Title
81392
    1CHL1    C3    1   2.778   3.384  10.033 -1.6492  0.1701  0.2787
    1CHL1    H3    2   2.802   3.484   9.992  1.4291 -1.2059 -1.5664
    1CHL1    O3    3   2.821   3.394  10.167  0.2440  0.4275  0.3810
    1CHL1   H3'    4   2.851   3.310  10.202  2.8284  0.9626 -0.3356
    1CHL1    C4    5   2.626   3.376  10.022 -0.4135  0.5408 -0.3566
    1CHL1   H4A    6   2.589   3.287  10.077  1.2808 -0.4789 -0.7897
    1CHL1   H4B    7   2.563   3.450  10.075 -0.0211  0.7118 -0.1187
    1CHL1    C5    8   2.585   3.362   9.880  0.7283 -0.1604  0.0701
    1CHL1    C6    9   2.484   3.440   9.824 -0.2421 -0.1281 -0.1635
    1CHL1    H6   10   2.441   3.520   9.885  0.7763  0.9256 -0.7891
    1CHL1    C7   11   2.437   3.424   9.677  0.2628  0.0631 -0.7073
    1CHL1   H7A   12   2.327   3.436   9.670  0.2974  0.1806 -1.1298
    1CHL1   H7B   13   2.486   3.498   9.609  1.3334 -0.6972 -0.7793
    1CHL1    C8   14   2.477   3.291   9.609  0.0998  0.2095 -0.1047
    1CHL1    H8   15   2.426   3.206   9.659 -0.0672  0.8542  0.8452
    1CHL1   C14   16   2.435   3.289   9.461  0.4640  0.2216  0.3372
    1CHL1   H14   17   2.488   3.381   9.427  2.1177 -0.6755  0.3669
    1CHL1   C15   18   2.283   3.296   9.413 -1.0779 -0.3114 -0.0728
    1CHL1  H15A   19   2.223   3.223   9.469  0.8266 -0.3927  2.0179
    1CHL1  H15B   20   2.240   3.397   9.431  2.7079  1.7158 -1.1464
    1CHL1   C16   21   2.295   3.262   9.262 -0.0307  0.0319  0.1338
    1CHL1  H16A   22   2.226   3.176   9.252  1.0063 -0.6061 -2.1742
    1CHL1  H16B   23   2.265   3.354   9.209 -1.9290  0.7184  2.2331
    1CHL1   C17   24   2.442   3.214   9.239 -0.3260 -0.4831 -0.1196
    1CHL1   H17   25   2.495   3.307   9.210  3.8341 -0.9039  4.7464
    1CHL1   C13   26   2.498   3.176   9.379  0.5303 -0.0801  0.4273
    1CHL1   C18   27   2.443   3.041   9.419 -1.0042 -0.0034  0.2351
    1CHL1  H18A   28   2.477   3.016   9.521 -1.1223 -0.4802  0.1611
    1CHL1  H18B   29   2.333   3.027   9.426 -0.7091 -1.6638  2.4197
    1CHL1  H18C   30   2.491   2.971   9.347 -0.2769  0.2265  0.4845
    1CHL1   C12   31   2.653   3.196   9.401  0.3183  0.2910 -0.0587
    1CHL1  H12A   32   2.712   3.127   9.337 -0.0572 -0.6796  0.6231
    1CHL1  H12B   33   2.686   3.295   9.361  0.4199  0.0402 -0.6122
    1CHL1   C11   34   2.698   3.173   9.546  0.2790 -0.0458  0.0666
    1CHL1  H11A   35   2.667   3.067   9.559 -2.7516  1.0693  3.4425
    1CHL1  H11B   36   2.806   3.182   9.571 -0.0716  0.0846  1.6009
    1CHL1    C9   37   2.626   3.272   9.634 -0.1675  0.2869 -1.2354
    1CHL1    H9   38   2.679   3.362   9.596 -0.7653 -0.0300 -2.8577
    1CHL1   C10   39   2.654   3.258   9.788 -0.4753 -0.0558 -0.0831
    1CHL1   C19   40   2.610   3.112   9.824  0.3237  0.3954  0.0210
    1CHL1  H19A   41   2.677   3.040   9.771  0.5789  1.3109 -0.9432
    1CHL1  H19B   42   2.624   3.095   9.933 -0.0442 -0.2719 -0.0339
    1CHL1  H19C   43   2.502   3.106   9.801 -0.0200 -0.2093  1.6723
    1CHL1    C1   44   2.813   3.281   9.810  0.3311 -0.4477 -0.1026
    1CHL1   H1A   45   2.870   3.202   9.756  1.0729  0.3466 -0.5031
    1CHL1   H1B   46   2.840   3.376   9.760  1.3381 -0.2280  0.8407
    1CHL1    C2   47   2.851   3.270   9.960  0.0297  0.3111  0.5036
    1CHL1   H2A   48   2.961   3.262   9.972 -0.0115  0.1830  0.8228
    1CHL1   H2B   49   2.811   3.183  10.016 -3.7451  1.6780  0.2533
    1CHL1   C20   50   2.458   3.118   9.113  0.7022  0.0439 -0.0890
    1CHL1   H20   51   2.429   3.018   9.150 -0.2098  0.3569  0.0584
    1CHL1   C21   52   2.614   3.118   9.081  0.8054  0.1850 -0.0152
    1CHL1  H21A   53   2.648   3.220   9.054  3.9022 -0.2377  1.8699
    1CHL1  H21B   54   2.627   3.059   8.988 -1.1670  0.0473 -0.2457
    1CHL1  H21C   55   2.665   3.075   9.171 -1.9483 -1.3214  0.9575
    1CHL1   C22   56   2.381   3.171   8.987 -0.3127  0.1278 -0.4091
    1CHL1  H22A   57   2.270   3.166   8.992 -0.4094  1.6522 -0.4643
    1CHL1  H22B   58   2.404   3.279   8.980  0.3962  0.2458  2.6404
    1CHL1   C23   59   2.425   3.119   8.845 -0.0191 -0.3193 -0.4792
    1CHL1  H23A   60   2.369   3.183   8.773  0.5535 -0.4049 -1.0067
    1CHL1  H23B   61   2.531   3.149   8.830 -0.0801  0.8861  1.1901
    1CHL1   C24   62   2.399   2.972   8.825 -0.2927 -0.6543 -0.8903
    1CHL1  H24A   63   2.432   2.936   8.925 -1.6885 -1.1689 -0.5986
    1CHL1  H24B   64   2.291   2.951   8.813 -1.0211  1.2145  1.6072
    1CHL1   C25   65   2.488   2.906   8.711 -0.1872 -0.2810  0.4732
    1CHL1   H25   66   2.596   2.897   8.734 -0.2557  1.3582  1.5745
    1CHL1   C26   67   2.442   2.761   8.703 -0.6147  0.3052 -0.6425
    1CHL1  H26A   68   2.441   2.704   8.798  0.1997  0.8376 -0.3111
    1CHL1  H26B   69   2.337   2.747   8.669 -0.6346  0.6600 -0.7312
    1CHL1  H26C   70   2.504   2.706   8.628 -0.8770 -1.8176  0.6122
    1CHL1   C27   71   2.478   2.972   8.573 -0.1255  0.3797 -0.5534
    1CHL1  H27A   72   2.529   3.070   8.568  0.1220  0.2461 -0.6656
    1CHL1  H27B   73   2.517   2.894   8.503  0.7330  1.3818 -1.2232
    1CHL1  H27C   74   2.371   2.983   8.544 -0.5495 -0.6973  0.5403
    2CHL1    C3   75   4.577   4.624  10.059  0.1356  0.3992 -0.0062
    2CHL1    H3   76   4.641   4.700  10.008  0.1802  0.3201 -0.0680
    2CHL1    O3   77   4.546   4.687  10.187  0.6849  0.1982  0.1797
    2CHL1   H3'   78   4.519   4.620  10.249  0.2803 -0.6066 -0.8421
    2CHL1    C4   79   4.442   4.605   9.983  0.4385 -0.2081 -0.6462
    2CHL1   H4A   80   4.366   4.541  10.033 -0.2686 -1.1258 -2.7905
    2CHL1   H4B   81   4.401   4.708   9.976 -1.5263 -1.0035 -1.3362
    2CHL1    C5   82   4.480   4.545   9.858 -0.3084 -0.0945  0.2189
    2CHL1    C6   83   4.446   4.596   9.741 -0.1297 -0.0495 -0.3941
    2CHL1    H6   84   4.402   4.696   9.732 -0.3537  0.2479  2.8201
    2CHL1    C7   85   4.466   4.539   9.609  0.1384 -0.3869  0.0928
    2CHL1   H7A   86   4.372   4.570   9.559  0.2540  1.2013  0.7786
    2CHL1   H7B   87   4.560   4.587   9.573  1.2363 -1.8659  0.8888
    2CHL1    C8   88   4.487   4.387   9.617 -0.8346  0.6509  0.1822
    2CHL1    H8   89   4.386   4.346   9.642 -0.0297 -1.6218 -0.1128
    2CHL1   C14   90   4.529   4.336   9.479 -0.1213 -0.1347 -0.0271
    2CHL1   H14   91   4.615   4.394   9.439  1.2176 -1.8156  0.3017
    2CHL1   C15   92   4.434   4.343   9.357 -0.1232  0.3073  0.2583
    2CHL1  H15A   93   4.334   4.308   9.389 -0.4316  0.2736 -0.7316
    2CHL1  H15B   94   4.430   4.443   9.310 -0.4820  0.0712 -0.2093
    2CHL1   C16   95   4.499   4.253   9.251 -0.1815  0.0651  0.5008
    2CHL1  H16A   96   4.424   4.182   9.210 -0.4358  1.6521 -1.9745
    2CHL1  H16B   97   4.546   4.308   9.167 -1.7748 -0.3048 -0.6632
    2CHL1   C17   98   4.609   4.174   9.320 -0.4754  0.1678 -0.7131
    2CHL1   H17   99   4.706   4.227   9.306  0.3204 -1.2927 -0.8675
    2CHL1   C13  100   4.578   4.190   9.473  0.1117  0.1684  0.2156
    2CHL1   C18  101   4.459   4.087   9.505  0.2574 -0.3570 -0.2409
    2CHL1  H18A  102   4.385   4.086   9.422 -0.1542  0.6901  0.0948
    2CHL1  H18B  103   4.496   3.986   9.532  0.9614 -0.1087 -0.2760
    2CHL1  H18C  104   4.411   4.119   9.601  2.8034  0.2849  0.8912
    2CHL1   C12  105   4.701   4.183   9.574  0.0674  0.3202  0.2645
    2CHL1  H12A  106   4.757   4.087   9.574  1.9377  1.3521  1.1590
    2CHL1  H12B  107   4.775   4.262   9.547 -1.0221  0.8304 -1.3921
    2CHL1   C11  108   4.651   4.219   9.716 -0.3256 -0.0282 -0.5239
    2CHL1  H11A  109   4.571   4.143   9.733 -0.0532 -0.4312 -1.0211
    2CHL1  H11B  110   4.728   4.195   9.792  0.3966 -0.2295 -1.3024
    2CHL1    C9  111   4.596   4.361   9.720 -0.3800 -0.5711  0.5994
    2CHL1    H9  112   4.686   4.414   9.682 -2.5025  1.1487 -2.5839
    2CHL1   C10  113   4.557   4.409   9.862  0.8342 -0.0604 -0.4660
    2CHL1   C19  114   4.467   4.307   9.929 -0.5060  0.5713 -0.4289
    2CHL1  H19A  115   4.520   4.210   9.940  0.5811  1.2758  0.8148
    2CHL1  H19B  116   4.449   4.337  10.035 -0.4065  1.0435 -0.5420
    2CHL1  H19C  117   4.368   4.289   9.880 -0.6168 -1.5283  0.4677
    2CHL1    C1  118   4.685   4.421   9.952 -0.4162  0.5603 -0.7255
    2CHL1   H1A  119   4.728   4.323   9.981 -3.0338  0.3220  3.0631
    2CHL1   H1B  120   4.765   4.483   9.906 -1.2467  1.7526 -0.6115
    2CHL1    C2  121   4.657   4.492  10.081  0.2269  0.1590 -0.0114
    2CHL1   H2A  122   4.751   4.516  10.137 -1.2075 -0.3677  2.8135
    2CHL1   H2B  123   4.605   4.419  10.145  2.5357 -2.5059 -0.9598
    2CHL1   C20  124   4.651   4.035   9.257  0.6835 -0.6369  0.4128
    2CHL1   H20  125   4.566   3.964   9.260  1.7837 -2.1774 -2.0040
    2CHL1   C21  126   4.779   3.989   9.326 -0.0294  0.8632  0.7445
    2CHL1  H21A  127   4.748   3.926   9.412 -0.7833 -0.0900 -0.1915
    2CHL1  H21B  128   4.844   4.069   9.367  1.8717 -0.0698 -0.3146
    2CHL1  H21C  129   4.834   3.919   9.259 -0.5493 -0.1496  1.3524
    2CHL1   C22  130   4.678   4.042   9.102  0.0660  0.5935 -0.5984
    2CHL1  H22A  131   4.591   4.094   9.055 -2.0069 -2.0173  0.0746
    2CHL1  H22B  132   4.773   4.097   9.090  0.8358 -0.2134  1.4194
    2CHL1   C23  133   4.678   3.900   9.039 -0.0109  0.5334  0.8567
    2CHL1  H23A  134   4.772   3.846   9.061 -1.6897 -3.4960 -0.7605
    2CHL1  H23B  135   4.588   3.847   9.077 -0.1422 -2.7190 -3.2483
    2CHL1   C24  136   4.662   3.912   8.886  0.2131  1.1395 -0.2058
    2CHL1  H24A  137   4.559   3.940   8.857 -0.2866  0.1823  0.5848
    2CHL1  H24B  138   4.732   3.984   8.839 -0.7823  0.9101 -2.1240
    2CHL1   C25  139   4.691   3.779   8.814 -0.1953  0.6992  0.5888
    2CHL1   H25  140   4.799   3.755   8.824  0.0674  1.5332 -0.0700
    2CHL1   C26  141   4.626   3.647   8.866  0.6963  0.2354 -0.4862
    2CHL1  H26A  142   4.664   3.562   8.806 -1.8246 -0.8859 -0.6380
    2CHL1  H26B  143   4.652   3.614   8.969  0.1653 -0.3525 -0.5370
    2CHL1  H26C  144   4.516   3.659   8.861  0.7570  0.9542 -0.2147
    2CHL1   C27  145   4.647   3.794   8.668 -0.7700  0.2991 -0.0314
    2CHL1  H27A  146   4.713   3.870   8.620  0.2136 -0.8213 -0.4949
    2CHL1  H27B  147   4.658   3.702   8.607 -2.6501 -0.0254  0.0612
    2CHL1  H27C  148   4.540   3.822   8.675 -0.0385  3.0854  1.9459
    3CHL1    C3  149   5.183   1.044   9.964  0.5966  0.4635 -0.6990
    3CHL1    H3  150   5.079   1.014   9.987  1.1091 -0.7982  0.0684
    3CHL1    O3  151   5.243   1.090  10.087  0.4885 -0.0307 -0.1251
    3CHL1   H3'  152   5.178   1.138  10.138  1.8308  0.9181  0.7586
    3CHL1    C4  153   5.253   0.919   9.912 -0.5654  0.3930 -0.1322
    3CHL1   H4A  154   5.359   0.929   9.882  0.6095 -0.8323  3.1448
    3CHL1   H4B  155   5.252   0.842   9.992 -0.5216 -0.4844 -0.9556
    3CHL1    C5  156   5.186   0.863   9.787  0.1355 -0.4155 -0.1760
    3CHL1    C6  157   5.130   0.747   9.780  0.6786 -0.3093 -0.4618
    3CHL1    H6  158   5.140   0.678   9.865  1.7732  1.0401  0.5374
    3CHL1    C7  159   5.074   0.688   9.653  0.0032 -0.8756  0.0729
    3CHL1   H7A  160   5.126   0.593   9.631  1.6249 -0.3731  1.4194
    3CHL1   H7B  161   4.967   0.664   9.666 -0.4015  0.5015 -0.5191
    3CHL1    C8  162   5.101   0.775   9.529 -0.1087  0.0168  0.1274
    3CHL1    H8  163   5.209   0.757   9.510 -0.6756 -1.6296 -1.8684
    3CHL1   C14  164   5.027   0.734   9.404 -0.7058 -0.3174  0.0297
    3CHL1   H14  165   4.918   0.753   9.418 -1.2775 -1.2193 -2.7113
    3CHL1   C15  166   5.044   0.595   9.362  0.1323  0.0465  0.5191
    3CHL1  H15A  167   5.151   0.573   9.343  0.2620  1.0629  0.0510
    3CHL1  H15B  168   5.000   0.517   9.428  0.3258  1.6194  2.6092
    3CHL1   C16  169   4.975   0.599   9.226  0.2302 -0.2667 -0.8151
    3CHL1  H16A  170   5.032   0.537   9.154  1.4135 -0.2871  0.1162
    3CHL1  H16B  171   4.869   0.565   9.233  0.5665 -1.3622 -0.9286
    3CHL1   C17  172   4.960   0.745   9.186 -0.3943 -0.4629 -0.5550
    3CHL1   H17  173   4.860   0.779   9.221 -0.4127 -0.4970 -0.5735
    3CHL1   C13  174   5.051   0.820   9.280 -0.7141 -0.0907 -0.6848
    3CHL1   C18  175   5.189   0.814   9.229 -0.6270 -0.6282 -0.2572
    3CHL1  H18A  176   5.215   0.713   9.189 -0.1413 -1.5219  2.1804
    3CHL1  H18B  177   5.211   0.883   9.145  1.3000  0.1718  0.8455
    3CHL1  H18C  178   5.267   0.825   9.306 -0.9754 -1.8646  0.2943
    3CHL1   C12  179   5.012   0.958   9.321 -0.7193  0.0886  0.6359
    3CHL1  H12A  180   5.021   1.020   9.229 -0.8722 -1.4691 -0.4593
    3CHL1  H12B  181   4.911   0.968   9.366  0.4767  0.4499  3.4880
    3CHL1   C11  182   5.098   1.012   9.431  1.0941  0.1771 -0.4065
    3CHL1  H11A  183   5.201   1.031   9.396  1.7822  0.0968  1.4594
    3CHL1  H11B  184   5.058   1.114   9.449 -0.0359 -0.0523 -1.4350
    3CHL1    C9  185   5.087   0.923   9.556  0.0387  0.2169 -0.1173
    3CHL1    H9  186   4.987   0.918   9.603 -1.0791  0.2344 -2.3933
    3CHL1   C10  187   5.177   0.975   9.677 -0.2192  0.0949 -0.2640
    3CHL1   C19  188   5.320   1.008   9.617 -0.1994 -0.3776 -0.0901
    3CHL1  H19A  189   5.401   1.007   9.694 -0.5786 -2.6639  0.3336
    3CHL1  H19B  190   5.346   0.935   9.537 -0.9981  0.4662 -1.1420
    3CHL1  H19C  191   5.327   1.101   9.556  1.5164 -0.3844  0.0329
    3CHL1    C1  192   5.116   1.108   9.726 -1.0117 -0.2360 -0.0992
    3CHL1   H1A  193   5.126   1.194   9.657  1.0934  1.6129  2.3137
    3CHL1   H1B  194   5.006   1.094   9.740 -1.2230  1.2695 -0.1078
    3CHL1    C2  195   5.172   1.157   9.861  0.3843  0.5011 -0.0718
    3CHL1   H2A  196   5.091   1.220   9.904  0.2591  1.8247 -2.0802
    3CHL1   H2B  197   5.264   1.217   9.846  0.8470 -0.5936 -1.9993
    3CHL1   C20  198   4.973   0.764   9.033 -0.1813  0.5386  0.7445
    3CHL1   H20  199   5.076   0.732   9.003  0.3658  2.2406  0.6841
    3CHL1   C21  200   4.942   0.909   9.004 -0.0994 -0.3172 -0.1376
    3CHL1  H21A  201   4.938   0.927   8.895  2.9287  0.3820 -0.2358
    3CHL1  H21B  202   5.015   0.983   9.046  0.0260 -1.7056  2.3025
    3CHL1  H21C  203   4.850   0.945   9.057  0.3097  0.2303  0.2220
    3CHL1   C22  204   4.872   0.673   8.964 -0.0153  0.1345 -0.5243
    3CHL1  H22A  205   4.901   0.567   8.983  2.2641  0.9784  1.1396
    3CHL1  H22B  206   4.770   0.690   9.006 -0.4428  0.2819 -1.5953
    3CHL1   C23  207   4.869   0.701   8.814  0.2573  0.0092  0.3982
    3CHL1  H23A  208   4.814   0.795   8.792 -2.1871 -1.0969  1.4812
    3CHL1  H23B  209   4.970   0.728   8.776 -0.2926  0.2075 -0.9631
    3CHL1   C24  210   4.823   0.594   8.717 -0.2840  0.0021  0.2770
    3CHL1  H24A  211   4.892   0.509   8.735 -0.5252 -0.2330  0.1246
    3CHL1  H24B  212   4.722   0.559   8.750 -0.9853  2.5753  1.0844
    3CHL1   C25  213   4.839   0.626   8.560 -0.6247  0.1108  0.2756
    3CHL1   H25  214   4.945   0.656   8.545 -0.9191  0.5921 -0.9654
    3CHL1   C26  215   4.801   0.497   8.484  0.1783  0.0182  0.7111
    3CHL1  H26A  216   4.706   0.466   8.533 -0.0836  1.9406  1.5298
    3CHL1  H26B  217   4.778   0.505   8.376 -1.3358 -1.3674  0.8849
    3CHL1  H26C  218   4.873   0.414   8.495  0.6445  0.4311  0.8108
    3CHL1   C27  219   4.753   0.741   8.522 -0.0532 -0.3060 -0.0920
    3CHL1  H27A  220   4.801   0.835   8.556  0.6746 -1.5359  2.5151
    3CHL1  H27B  221   4.738   0.744   8.412 -0.4661 -2.8923 -0.1726
    3CHL1  H27C  222   4.655   0.735   8.574  1.7874  0.5467  3.8477
    4CHL1    C3  223   2.274   4.033  10.379 -0.3122  0.7604 -0.1496
    4CHL1    H3  224   2.275   3.927  10.413  3.0966  1.0775  1.1946
    4CHL1    O3  225   2.298   4.119  10.480  0.1918 -0.4997 -0.1585
    4CHL1   H3'  226   2.325   4.202  10.441 -0.0969 -0.1944  0.2740
    4CHL1    C4  227   2.383   4.053  10.280  0.3680 -0.5469  0.4810
    4CHL1   H4A  228   2.390   4.163  10.267  2.8251 -0.4204  2.0750
    4CHL1   H4B  229   2.486   4.022  10.309  1.7263  2.3950 -0.7731
    4CHL1    C5  230   2.351   3.994  10.151 -0.0625 -0.8883  0.1285
    4CHL1    C6  231   2.440   3.918  10.089 -0.5557  0.0794 -1.1048
    4CHL1    H6  232   2.539   3.895  10.132 -0.3840  0.1043 -1.4880
    4CHL1    C7  233   2.423   3.858   9.954  0.0392  0.6436 -0.1617
    4CHL1   H7A  234   2.522   3.860   9.902  0.3407 -0.2469  0.3535
    4CHL1   H7B  235   2.392   3.752   9.970 -3.7482  1.2389 -2.4040
    4CHL1    C8  236   2.311   3.925   9.873  0.1335 -0.0638 -0.2785
    4CHL1    H8  237   2.347   4.028   9.851 -2.6846  1.2125  0.5674
    4CHL1   C14  238   2.284   3.840   9.756 -0.3492  0.3508  0.5160
    4CHL1   H14  239   2.234   3.748   9.791  0.7569 -0.7641 -0.7366
    4CHL1   C15  240   2.399   3.782   9.665  0.9876  0.4652 -0.2609
    4CHL1  H15A  241   2.483   3.852   9.643 -0.6413  1.4375 -4.1774
    4CHL1  H15B  242   2.443   3.696   9.719 -2.5356 -0.5414  1.2424
    4CHL1   C16  243   2.334   3.753   9.532  0.5985  0.5157 -0.3781
    4CHL1  H16A  244   2.391   3.807   9.453 -0.2559  0.8414 -0.7826
    4CHL1  H16B  245   2.341   3.648   9.499  0.0457  0.2421  0.3519
    4CHL1   C17  246   2.185   3.796   9.541  0.5873 -0.3989 -0.8088
    4CHL1   H17  247   2.125   3.713   9.583  1.3233 -2.2845 -3.3052
    4CHL1   C13  248   2.191   3.911   9.650  0.5755 -0.6369 -0.8128
    4CHL1   C18  249   2.246   4.046   9.596  0.1941  0.3035 -0.2504
    4CHL1  H18A  250   2.262   4.113   9.683  2.5278 -0.6308  0.1107
    4CHL1  H18B  251   2.341   4.039   9.539 -0.6659 -0.1839 -1.6589
    4CHL1  H18C  252   2.166   4.092   9.534  0.2985  0.8106 -0.0169
    4CHL1   C12  253   2.059   3.929   9.731  0.0452  0.3622 -0.9735
    4CHL1  H12A  254   1.987   3.992   9.675 -0.0342  2.0787  0.9247
    4CHL1  H12B  255   2.001   3.839   9.761 -0.0092  1.0320  1.1483
    4CHL1   C11  256   2.078   4.009   9.860 -0.3431 -0.5438  0.1448
    4CHL1  H11A  257   2.107   4.111   9.825  4.3388 -1.5448  0.4525
    4CHL1  H11B  258   1.984   4.018   9.917  0.2596  0.1821  1.0567
    4CHL1    C9  259   2.188   3.953   9.957  0.4801  0.3038  0.7796
    4CHL1    H9  260   2.151   3.853   9.986  0.0499 -0.5072 -2.3043
    4CHL1   C10  261   2.220   4.030  10.083  0.0942 -0.3085 -0.0272
    4CHL1   C19  262   2.230   4.177  10.044 -0.2843 -0.1849 -0.5454
    4CHL1  H19A  263   2.317   4.185   9.976 -0.7063  1.3066 -0.9574
    4CHL1  H19B  264   2.134   4.217  10.004 -0.7980 -1.7830 -0.9772
    4CHL1  H19C  265   2.251   4.239  10.134  1.3712 -2.5207  0.7872
    4CHL1    C1  266   2.111   3.995  10.192 -0.1186 -0.7480  0.2901
    4CHL1   H1A  267   2.016   4.022  10.141  0.5207  0.3815 -0.3591
    4CHL1   H1B  268   2.116   3.885  10.200  0.0068 -0.9509 -1.8612
    4CHL1    C2  269   2.137   4.064  10.328  0.6149 -0.2794 -0.0455
    4CHL1   H2A  270   2.055   4.034  10.398  0.6052  2.2597  1.1383
    4CHL1   H2B  271   2.120   4.174  10.329 -1.1681 -0.5150 -0.7746
    4CHL1   C20  272   2.116   3.829   9.410 -0.0446 -0.5970  0.8710
    4CHL1   H20  273   2.176   3.909   9.363  0.9730 -2.1056 -0.5184
    4CHL1   C21  274   1.976   3.890   9.422  0.3257 -0.2718  0.1653
    4CHL1  H21A  275   1.990   3.988   9.473 -1.4649 -1.1478  2.5171
    4CHL1  H21B  276   1.908   3.821   9.476 -0.8088 -0.9474 -1.9786
    4CHL1  H21C  277   1.920   3.920   9.331 -2.0807 -1.3115  1.2287
    4CHL1   C22  278   2.117   3.705   9.312  0.5389 -0.1313 -0.8848
    4CHL1  H22A  279   2.213   3.652   9.325  0.9684  1.3162  3.9455
    4CHL1  H22B  280   2.040   3.640   9.359  0.3831  1.2046  0.8256
    4CHL1   C23  281   2.092   3.744   9.168  0.1503  0.4801  0.2835
    4CHL1  H23A  282   1.984   3.769   9.154  0.0146  0.0864  0.5950
    4CHL1  H23B  283   2.151   3.834   9.141 -0.9244  1.6065  1.5195
    4CHL1   C24  284   2.134   3.630   9.070  0.6128  0.8537 -1.1666
    4CHL1  H24A  285   2.242   3.614   9.088  0.2314  0.2501  0.9046
    4CHL1  H24B  286   2.086   3.530   9.077 -0.0637  1.2745  0.8304
    4CHL1   C25  287   2.120   3.680   8.925 -0.5587 -0.2304  0.9102
    4CHL1   H25  288   2.010   3.688   8.912 -0.6817 -1.4586  1.0447
    4CHL1   C26  289   2.201   3.811   8.889  0.6860 -0.3217 -0.2063
    4CHL1  H26A  290   2.304   3.779   8.913  0.5870 -0.3721  0.1676
    4CHL1  H26B  291   2.184   3.826   8.781 -0.9891  1.8621  0.2764
    4CHL1  H26C  292   2.152   3.892   8.948 -0.4135 -0.6967 -0.5806
    4CHL1   C27  293   2.167   3.570   8.832  0.1645 -0.3391 -1.1332
    4CHL1  H27A  294   2.138   3.475   8.881  1.9707  0.2988  1.3657
    4CHL1  H27B  295   2.117   3.587   8.735  0.0719  1.9774 -0.7438
    4CHL1  H27C  296   2.278   3.564   8.821  0.0231 -1.0225 -2.3067
    5CHL1    C3  297   5.636   0.555  10.078  0.4925 -0.0622 -0.1923
    5CHL1    H3  298   5.738   0.597  10.066  0.0484  0.6952 -1.5565
    5CHL1    O3  299   5.600   0.548  10.215 -0.5655 -0.4563  0.1471
    5CHL1   H3'  300   5.569   0.635  10.243  0.2758  0.0771 -0.5549
    5CHL1    C4  301   5.522   0.643  10.007 -0.3740  0.1572  0.6075
    5CHL1   H4A  302   5.421   0.601  10.026 -0.1715 -0.2292  0.8474
    5CHL1   H4B  303   5.516   0.738  10.065 -0.8404 -0.2693  1.2703
    5CHL1    C5  304   5.550   0.654   9.860  0.3655 -0.0754 -0.3131
    5CHL1    C6  305   5.572   0.771   9.799  0.2060 -0.3059  0.8136
    5CHL1    H6  306   5.547   0.863   9.853  0.5024 -0.2577  0.8692
    5CHL1    C7  307   5.596   0.793   9.654  0.2615  0.1601 -0.3671
    5CHL1   H7A  308   5.540   0.883   9.618 -0.7677 -0.0779  0.5863
    5CHL1   H7B  309   5.702   0.823   9.644  0.3584  0.3972  1.0957
    5CHL1    C8  310   5.575   0.669   9.567  0.5804 -1.0723 -0.1850
    5CHL1    H8  311   5.465   0.669   9.547  0.5372  1.9279 -0.4514
    5CHL1   C14  312   5.642   0.683   9.437  0.8013 -0.0450 -0.3146
    5CHL1   H14  313   5.750   0.682   9.463  0.9178  0.0416 -0.7865
    5CHL1   C15  314   5.620   0.808   9.353  0.3425 -0.2030  0.3917
    5CHL1  H15A  315   5.510   0.822   9.343  0.6929  3.0972 -0.1877
    5CHL1  H15B  316   5.671   0.901   9.386 -1.0774  0.8189 -0.1933
    5CHL1   C16  317   5.678   0.765   9.211  0.0241  0.2813  0.1384
    5CHL1  H16A  318   5.601   0.798   9.138 -0.6915  0.3176  0.9041
    5CHL1  H16B  319   5.771   0.823   9.188 -0.2165 -0.1112 -2.0329
    5CHL1   C17  320   5.699   0.612   9.211  0.5635  0.4229  0.4229
    5CHL1   H17  321   5.805   0.599   9.240  0.5258 -1.6074 -0.1631
    5CHL1   C13  322   5.621   0.563   9.337  0.0810 -0.0855  0.4309
    5CHL1   C18  323   5.472   0.547   9.301 -0.0827 -0.0529 -0.4876
    5CHL1  H18A  324   5.450   0.644   9.252 -0.2257  0.3806  0.4308
    5CHL1  H18B  325   5.439   0.475   9.222 -0.9023  0.9994 -1.1376
    5CHL1  H18C  326   5.404   0.543   9.389  0.8113  1.9324  0.3451
    5CHL1   C12  327   5.678   0.432   9.413  0.2006  0.2327  0.6729
    5CHL1  H12A  328   5.661   0.335   9.362 -0.9841  0.4808  0.5605
    5CHL1  H12B  329   5.784   0.461   9.428  0.0672  0.8690  0.4279
    5CHL1   C11  330   5.612   0.410   9.549 -0.0113 -0.0649  0.4768
    5CHL1  H11A  331   5.505   0.391   9.526 -0.9899  2.0975  2.7816
    5CHL1  H11B  332   5.651   0.316   9.594 -0.9027 -0.5652  0.2336
    5CHL1    C9  333   5.627   0.536   9.638  0.0502 -0.2236 -1.0034
    5CHL1    H9  334   5.736   0.551   9.657  0.0547 -1.3134 -0.0666
    5CHL1   C10  335   5.563   0.516   9.783  0.7124 -0.4364  0.3897
    5CHL1   C19  336   5.425   0.460   9.772 -0.4385 -0.5001  0.0707
    5CHL1  H19A  337   5.375   0.441   9.869 -1.8273 -0.1043 -0.5406
    5CHL1  H19B  338   5.356   0.527   9.716 -1.0819 -0.7616  0.5367
    5CHL1  H19C  339   5.423   0.364   9.716 -1.4651 -0.8174  0.6243
    5CHL1    C1  340   5.645   0.410   9.860 -0.3165 -0.8064 -0.5052
    5CHL1   H1A  341   5.624   0.314   9.807 -3.0687 -1.3308  1.3547
    5CHL1   H1B  342   5.750   0.438   9.838 -0.1975 -0.4289  0.5255
    5CHL1    C2  343   5.637   0.415  10.016 -0.7600 -0.7698  0.0978
    5CHL1   H2A  344   5.721   0.359  10.062  0.5153  1.1936  0.2776
    5CHL1   H2B  345   5.542   0.365  10.043  0.2054 -2.4270  0.6012
    5CHL1   C20  346   5.682   0.543   9.071  0.3575  0.0467  0.1210
    5CHL1   H20  347   5.575   0.567   9.051  0.3100 -0.2871 -0.0326
    5CHL1   C21  348   5.677   0.389   9.078  0.5697 -0.2150  0.0055
    5CHL1  H21A  349   5.650   0.358   8.974  0.2079  0.4019 -0.0908
    5CHL1  H21B  350   5.596   0.351   9.144 -1.1061  2.0648 -0.6033
    5CHL1  H21C  351   5.778   0.345   9.092  1.4032  1.6041  0.0693
    5CHL1   C22  352   5.769   0.605   8.968 -0.2436  0.0074 -0.1351
    5CHL1  H22A  353   5.772   0.716   8.975  0.8521 -0.0732  1.1264
    5CHL1  H22B  354   5.869   0.561   8.987  0.2588  1.1389 -0.0977
    5CHL1   C23  355   5.730   0.581   8.821 -0.4699  0.8459  0.2237
    5CHL1  H23A  356   5.750   0.473   8.806  2.1525  1.5336 -2.0512
    5CHL1  H23B  357   5.624   0.610   8.799 -0.1816  2.6109  0.9595
    5CHL1   C24  358   5.839   0.645   8.733  0.3469  0.1455  0.4489
    5CHL1  H24A  359   5.851   0.753   8.753  2.1604  0.1024 -0.2265
    5CHL1  H24B  360   5.938   0.605   8.761  2.0159  1.5567 -2.9081
    5CHL1   C25  361   5.815   0.619   8.582  0.2829  0.2852 -0.4292
    5CHL1   H25  362   5.791   0.511   8.575 -3.5356  0.9012  0.3578
    5CHL1   C26  363   5.699   0.702   8.533 -0.4978  0.1944  0.8995
    5CHL1  H26A  364   5.604   0.671   8.581 -0.6660 -1.5371 -0.4407
    5CHL1  H26B  365   5.721   0.808   8.558 -1.1894  0.2794  1.1657
    5CHL1  H26C  366   5.689   0.700   8.422 -1.8067  0.2257  1.0086
    5CHL1   C27  367   5.945   0.648   8.505 -0.1248 -0.2626 -0.2914
    5CHL1  H27A  368   6.028   0.588   8.550  0.6078 -0.0723 -1.3381
    5CHL1  H27B  369   5.934   0.609   8.401 -2.3884 -0.0504 -0.1703
    5CHL1  H27C  370   5.968   0.757   8.502 -4.2060  0.7352 -2.5858
    6CHL1    C3  371   3.318   5.976  10.041 -0.0248  0.0896 -0.4794
    6CHL1    H3  372   3.236   5.904  10.058 -0.0684  0.6588  2.0913
    6CHL1    O3  373   3.364   6.007  10.172  0.2599  0.0199  0.1342
    6CHL1   H3'  374   3.404   6.093  10.154 -0.2276 -0.1604 -2.0147
    6CHL1    C4  375   3.425   5.903   9.966 -0.9612 -0.2093  0.4302
    6CHL1   H4A  376   3.518   5.962   9.957 -0.7380 -0.8322 -2.4837
    6CHL1   H4B  377   3.444   5.808  10.021 -0.7597  0.2632  1.1778
    6CHL1    C5  378   3.377   5.871   9.823  0.8307  0.1970  0.0246
    6CHL1    C6  379   3.379   5.748   9.776  0.5301 -0.3689 -0.1822
    6CHL1    H6  380   3.417   5.662   9.835 -1.0632  0.1976  1.7955
    6CHL1    C7  381   3.340   5.711   9.638 -0.0487 -0.2898  0.0108
    6CHL1   H7A  382   3.415   5.648   9.586  0.7016  0.3531  0.2920
    6CHL1   H7B  383   3.253   5.644   9.652 -0.6290  0.8761  2.4511
    6CHL1    C8  384   3.322   5.833   9.548  0.4829  0.4292  0.2158
    6CHL1    H8  385   3.424   5.873   9.529  0.3115  1.0451  0.5266
    6CHL1   C14  386   3.263   5.795   9.412  0.1732 -0.5912 -0.3034
    6CHL1   H14  387   3.164   5.750   9.436  0.3913 -0.7177  0.3980
    6CHL1   C15  388   3.329   5.691   9.323 -1.0155  0.6127 -0.0308
    6CHL1  H15A  389   3.437   5.708   9.304 -0.8513 -0.3265  0.0198
    6CHL1  H15B  390   3.336   5.590   9.369  1.5833  0.7798  0.0748
    6CHL1   C16  391   3.250   5.697   9.199 -0.1829 -0.6662  0.6850
    6CHL1  H16A  392   3.314   5.693   9.108 -0.7708  1.4615  0.1079
    6CHL1  H16B  393   3.173   5.621   9.174  0.1073 -0.2687 -1.6574
    6CHL1   C17  394   3.169   5.837   9.200  0.2885 -0.4468  0.0972
    6CHL1   H17  395   3.066   5.809   9.228  0.0111  2.1678  2.0220
    6CHL1   C13  396   3.225   5.914   9.317  0.3712 -0.0741  0.6698
    6CHL1   C18  397   3.360   5.988   9.282  0.7258 -0.5009  0.0131
    6CHL1  H18A  398   3.340   6.078   9.221  1.1005 -0.1078  0.4549
    6CHL1  H18B  399   3.431   6.016   9.363  0.5646 -0.1860  0.0452
    6CHL1  H18C  400   3.411   5.918   9.212  0.3682 -1.5887  0.7985
    6CHL1   C12  401   3.124   6.003   9.394 -0.5713 -0.1101  0.5791
    6CHL1  H12A  402   3.084   6.074   9.318 -0.4833 -2.2507 -1.6075
    6CHL1  H12B  403   3.032   5.945   9.419 -1.8936  1.7673  0.2575
    6CHL1   C11  404   3.192   6.061   9.518  0.3463  0.2335 -0.3256
    6CHL1  H11A  405   3.283   6.121   9.496 -0.2805  0.1294 -3.9096
    6CHL1  H11B  406   3.112   6.125   9.561 -0.0427  1.4867 -2.7532
    6CHL1    C9  407   3.239   5.945   9.621  0.3085 -0.6541 -0.4863
    6CHL1    H9  408   3.146   5.898   9.660  1.2710 -1.1611  1.3066
    6CHL1   C10  409   3.319   6.000   9.746 -0.4062 -0.0056  0.5538
    6CHL1   C19  410   3.439   6.095   9.700 -0.7625  0.0230 -0.6002
    6CHL1  H19A  411   3.501   6.045   9.623 -2.2145 -1.6534 -0.7279
    6CHL1  H19B  412   3.403   6.189   9.652 -0.1898  0.0947 -0.9008
    6CHL1  H19C  413   3.508   6.123   9.783 -1.2393 -1.6022  0.3931
    6CHL1    C1  414   3.222   6.073   9.843  0.1336 -0.1168 -0.0762
    6CHL1   H1A  415   3.194   6.172   9.803  1.9852  1.4831  2.3521
    6CHL1   H1B  416   3.138   6.002   9.859  0.4941 -0.8774 -1.3963
    6CHL1    C2  417   3.283   6.107   9.975  0.0021  0.5286 -1.0921
    6CHL1   H2A  418   3.212   6.161  10.041 -0.4587 -0.8657 -0.4161
    6CHL1   H2B  419   3.373   6.171   9.961  1.4945 -1.6617 -1.9561
    6CHL1   C20  420   3.165   5.901   9.063 -0.2254 -0.0874  0.1531
    6CHL1   H20  421   3.268   5.923   9.029  0.5384 -1.1668  1.6800
    6CHL1   C21  422   3.098   6.039   9.070  0.1947  0.0910 -0.0719
    6CHL1  H21A  423   3.003   6.018   9.125  0.3456  0.2840  0.2685
    6CHL1  H21B  424   3.080   6.086   8.971  1.3661 -1.2971 -0.9776
    6CHL1  H21C  425   3.144   6.120   9.131 -0.0165  1.5198 -1.7183
    6CHL1   C22  426   3.095   5.813   8.954 -0.3709 -0.4132 -0.5674
    6CHL1  H22A  427   3.144   5.713   8.949  0.4463  0.0168 -1.5254
    6CHL1  H22B  428   2.995   5.789   8.996  0.8595 -1.0697  2.2044
    6CHL1   C23  429   3.089   5.874   8.813 -1.1898  0.4077  0.5122
    6CHL1  H23A  430   3.037   5.972   8.826 -1.4144  0.1650  1.5144
    6CHL1  H23B  431   3.194   5.876   8.775 -1.5939 -0.8568 -0.7601
    6CHL1   C24  432   3.002   5.793   8.720 -0.6786 -0.1843 -0.0287
    6CHL1  H24A  433   3.054   5.699   8.691  0.0424  0.5428 -1.1638
    6CHL1  H24B  434   2.917   5.764   8.785 -1.7019  1.6382 -0.5069
    6CHL1   C25  435   2.948   5.847   8.588  0.5687 -0.1103 -0.1829
    6CHL1   H25  436   2.907   5.763   8.528  0.2089  0.4075 -0.6688
    6CHL1   C26  437   2.840   5.957   8.606 -0.1677 -0.3671  0.2843
    6CHL1  H26A  438   2.753   5.909   8.656 -0.1679  1.4485  2.1768
    6CHL1  H26B  439   2.879   6.035   8.675  1.5061 -0.5536 -0.3967
    6CHL1  H26C  440   2.814   6.002   8.508 -1.4236 -1.6056  0.0269
    6CHL1   C27  441   3.056   5.912   8.510 -0.1387 -0.2126 -0.5841
    6CHL1  H27A  442   3.007   5.938   8.414 -0.4860 -0.3893 -0.4582
    6CHL1  H27B  443   3.082   6.005   8.565 -0.8309 -0.6552  0.5425
    6CHL1  H27C  444   3.145   5.846   8.501 -0.6165 -1.0333  0.4868
    7CHL1    C3  445   0.197   0.284  10.173 -0.2320  0.3004  0.9391
    7CHL1    H3  446   0.090   0.268  10.151 -0.6766 -0.6584  3.4554
    7CHL1    O3  447   0.213   0.281  10.314 -0.4493  0.2646  0.3030
    7CHL1   H3'  448   0.303   0.249  10.322 -0.9201 -1.1811  0.1823
    7CHL1    C4  449   0.276   0.161  10.122  0.8217 -0.7244  0.1187
    7CHL1   H4A  450   0.379   0.163  10.162  1.0873  0.5140 -0.5932
    7CHL1   H4B  451   0.235   0.072  10.176 -0.0358 -0.7360 -0.5370
    7CHL1    C5  452   0.282   0.156   9.967  0.5383 -0.1580  0.4559
    7CHL1    C6  453   0.234   0.056   9.898  0.2772  0.0536 -0.2420
    7CHL1    H6  454   0.183  -0.024   9.953 -0.8076 -0.3850 -1.8217
    7CHL1    C7  455   0.240   0.048   9.748  0.1621  0.0474 -0.4008
    7CHL1   H7A  456   0.249  -0.055   9.709  1.4468  0.1794 -0.4731
    7CHL1   H7B  457   0.138   0.073   9.712  1.2669  4.3267 -1.0199
    7CHL1    C8  458   0.339   0.158   9.687  0.3430  0.1602 -0.0139
    7CHL1    H8  459   0.442   0.118   9.695 -0.5092 -1.9280  1.4657
    7CHL1   C14  460   0.306   0.174   9.540  0.1694 -0.1062 -0.0493
    7CHL1   H14  461   0.210   0.230   9.543 -0.4595 -0.9991 -2.1772
    7CHL1   C15  462   0.279   0.055   9.448  0.0441 -0.0327  0.5668
    7CHL1  H15A  463   0.352  -0.029   9.453 -0.7544 -0.6606  2.5988
    7CHL1  H15B  464   0.177   0.015   9.465  0.4201 -1.2286  0.0741
    7CHL1   C16  465   0.289   0.110   9.309 -0.8912 -0.3242 -0.0131
    7CHL1  H16A  466   0.355   0.053   9.240 -1.0416 -0.1605 -0.2976
    7CHL1  H16B  467   0.185   0.109   9.268 -1.4166  1.0588  1.2019
    7CHL1   C17  468   0.339   0.259   9.323  0.7078  0.5002  0.4344
    7CHL1   H17  469   0.244   0.316   9.319  0.3790 -0.0789 -3.0016
    7CHL1   C13  470   0.396   0.270   9.461  0.6537  0.1038  0.7887
    7CHL1   C18  471   0.537   0.213   9.463 -0.6856 -0.1354  0.2033
    7CHL1  H18A  472   0.574   0.196   9.567 -1.7716 -1.2209  0.4363
    7CHL1  H18B  473   0.548   0.122   9.401 -3.1951  1.1430 -2.3385
    7CHL1  H18C  474   0.608   0.278   9.408 -0.4422  1.0428  1.8221
    7CHL1   C12  475   0.380   0.410   9.532  0.2471 -0.5429 -0.3221
    7CHL1  H12A  476   0.455   0.480   9.488 -1.2006  0.4451 -1.3215
    7CHL1  H12B  477   0.280   0.449   9.503  1.1125  0.1787 -2.5837
    7CHL1   C11  478   0.409   0.403   9.681 -0.4424 -0.4981  0.0444
    7CHL1  H11A  479   0.519   0.412   9.692 -0.7437  1.4903  1.9513
    7CHL1  H11B  480   0.372   0.500   9.721  1.9122  0.1490  0.8338
    7CHL1    C9  481   0.323   0.288   9.753 -0.5207 -0.8891  0.3987
    7CHL1    H9  482   0.217   0.315   9.736 -0.3647  0.0777  0.8948
    7CHL1   C10  483   0.341   0.286   9.905  0.4843  0.3658 -0.2327
    7CHL1   C19  484   0.498   0.269   9.930  0.0534 -0.0296 -0.1747
    7CHL1  H19A  485   0.537   0.370   9.904  0.2986  0.1929  1.0212
    7CHL1  H19B  486   0.516   0.256  10.039 -0.3216  0.5445 -0.0397
    7CHL1  H19C  487   0.529   0.183   9.866 -1.7175 -0.4380 -0.5381
    7CHL1    C1  488   0.279   0.413   9.966 -0.5439 -0.5224  0.5924
    7CHL1   H1A  489   0.346   0.494   9.931  0.6205 -1.5094  0.5071
    7CHL1   H1B  490   0.177   0.420   9.922  0.2212 -0.7550 -1.3015
    7CHL1    C2  491   0.251   0.416  10.114  0.4248  0.3283  0.7736
    7CHL1   H2A  492   0.170   0.491  10.122  0.9170  1.3803 -2.6411
    7CHL1   H2B  493   0.345   0.446  10.166  1.8958 -0.3810 -1.3223
    7CHL1   C20  494   0.423   0.309   9.210  0.0456 -0.2262  0.3885
    7CHL1   H20  495   0.506   0.240   9.182 -0.3099  0.6482 -3.4523
    7CHL1   C21  496   0.481   0.447   9.234  0.7184 -0.4329 -0.5008
    7CHL1  H21A  497   0.395   0.510   9.263  0.7520  0.1917 -1.6692
    7CHL1  H21B  498   0.521   0.485   9.137  1.1787 -0.5498 -0.3591
    7CHL1  H21C  499   0.556   0.458   9.315 -0.1224  0.4470  0.1825
    7CHL1   C22  500   0.333   0.316   9.083 -0.5197 -0.7025  0.3102
    7CHL1  H22A  501   0.268   0.227   9.078 -1.7806  0.0887  1.7519
    7CHL1  H22B  502   0.263   0.401   9.098  0.4185  0.4184 -1.4024
    7CHL1   C23  503   0.414   0.326   8.955 -0.3606  0.2726  0.4473
    7CHL1  H23A  504   0.495   0.402   8.957 -0.2653  0.1782  0.1892
    7CHL1  H23B  505   0.470   0.233   8.934  0.1889  1.0485 -1.7505
    7CHL1   C24  506   0.340   0.371   8.828 -0.5350  0.7520 -0.2593
    7CHL1  H24A  507   0.262   0.297   8.800  0.4949 -0.3663 -0.2972
    7CHL1  H24B  508   0.296   0.465   8.868  1.9656  0.4739  3.6761
    7CHL1   C25  509   0.432   0.399   8.710  0.1989 -0.6151 -0.4284
    7CHL1   H25  510   0.526   0.339   8.715 -0.3892 -1.4297  1.1783
    7CHL1   C26  511   0.369   0.354   8.575  0.7438 -0.0140  0.4226
    7CHL1  H26A  512   0.290   0.425   8.545  2.3282  1.1546 -1.2322
    7CHL1  H26B  513   0.454   0.368   8.505  0.3090  1.3041  0.1369
    7CHL1  H26C  514   0.338   0.248   8.571  4.7380 -1.3189 -1.8342
    7CHL1   C27  515   0.495   0.543   8.702 -0.0502 -0.0467  1.0549
    7CHL1  H27A  516   0.579   0.544   8.629 -1.7592 -0.8646 -1.0384
    7CHL1  H27B  517   0.429   0.626   8.670  1.6240  1.3691  1.1167
    7CHL1  H27C  518   0.538   0.560   8.803 -1.1831 -1.8416  1.8915
    8CHL1    C3  519   5.958   1.452  10.342  0.3614 -0.3939 -0.3593
    8CHL1    H3  520   6.023   1.363  10.334 -1.5633 -1.7951 -1.2999
    8CHL1    O3  521   5.925   1.450  10.481 -0.4216 -0.3377  0.2309
    8CHL1   H3'  522   5.844   1.401  10.496  0.0571 -0.4941  2.6534
    8CHL1    C4  523   6.026   1.589  10.307 -0.0620  0.5496  0.5482
    8CHL1   H4A  524   5.955   1.673  10.316 -0.7023 -0.0925  1.7006
    8CHL1   H4B  525   6.099   1.603  10.389  3.2033 -1.4416 -1.7607
    8CHL1    C5  526   6.088   1.575  10.171 -0.2713  0.0021 -0.4134
    8CHL1    C6  527   6.221   1.584  10.146 -0.1503  0.9208  0.5986
    8CHL1    H6  528   6.287   1.608  10.230 -0.4484  2.4195  0.4244
    8CHL1    C7  529   6.281   1.576  10.005  0.0740 -0.0928  0.0182
    8CHL1   H7A  530   6.349   1.658   9.973 -1.3901  1.0373 -0.3265
    8CHL1   H7B  531   6.336   1.480   9.994  0.2311  0.2524 -2.9007
    8CHL1    C8  532   6.172   1.587   9.897  0.6068  0.2258  0.5555
    8CHL1    H8  533   6.150   1.696   9.891  0.7480  0.1921 -0.9199
    8CHL1   C14  534   6.225   1.547   9.760 -0.5121 -0.5094 -0.5079
    8CHL1   H14  535   6.249   1.439   9.771  1.1918 -0.2249 -1.2259
    8CHL1   C15  536   6.365   1.603   9.715 -0.1970 -0.2356 -0.6874
    8CHL1  H15A  537   6.353   1.713   9.732 -1.6718 -0.6116  1.0160
    8CHL1  H15B  538   6.460   1.578   9.765 -0.2817 -2.0700 -1.3787
    8CHL1   C16  539   6.372   1.572   9.568  0.0791  0.1572 -0.1014
    8CHL1  H16A  540   6.386   1.666   9.509 -1.9339 -0.2278 -1.3102
    8CHL1  H16B  541   6.463   1.514   9.543 -1.0239 -2.0430  0.7610
    8CHL1   C17  542   6.240   1.500   9.540 -0.0982  0.5007  0.6612
    8CHL1   H17  543   6.261   1.392   9.556  0.6118  0.5025 -0.1791
    8CHL1   C13  544   6.135   1.538   9.642 -0.1844 -0.8254  0.4884
    8CHL1   C18  545   6.091   1.680   9.609  0.7739  0.4588 -0.0241
    8CHL1  H18A  546   6.183   1.734   9.579  1.6769 -0.6224  0.7130
    8CHL1  H18B  547   6.020   1.672   9.524 -0.4308  2.4094  0.7514
    8CHL1  H18C  548   6.041   1.730   9.695  0.2656  0.4245 -0.2954
    8CHL1   C12  549   6.015   1.449   9.673  0.6253 -1.7496 -0.0511
    8CHL1  H12A  550   5.937   1.474   9.599 -0.2529  0.2394  1.4576
    8CHL1  H12B  551   6.040   1.340   9.678  1.1864 -1.5841  3.2168
    8CHL1   C11  552   5.951   1.485   9.809 -0.7930 -0.0386 -0.1227
    8CHL1  H11A  553   5.907   1.583   9.782  0.4704  0.9149  1.1396
    8CHL1  H11B  554   5.872   1.409   9.828 -0.3458 -0.6474 -0.6555
    8CHL1    C9  555   6.053   1.504   9.936  0.5341  0.0283  0.2740
    8CHL1    H9  556   6.086   1.399   9.947 -2.0741 -0.8633  0.3647
    8CHL1   C10  557   5.977   1.549  10.063 -0.3399  0.2981 -0.1182
    8CHL1   C19  558   5.900   1.680  10.037  0.4576  0.6622  0.1394
    8CHL1  H19A  559   5.845   1.712  10.129  0.2980 -0.5197  0.4656
    8CHL1  H19B  560   5.968   1.748   9.982  0.6524  0.8712  0.6287
    8CHL1  H19C  561   5.822   1.659   9.961 -0.4335  0.6621  1.0276
    8CHL1    C1  562   5.871   1.443  10.111 -0.1108  0.4145 -0.1917
    8CHL1   H1A  563   5.781   1.460  10.048  0.1779  1.6268 -0.3080
    8CHL1   H1B  564   5.900   1.337  10.099 -0.8587  0.0838  0.7325
    8CHL1    C2  565   5.829   1.443  10.257 -0.8254  0.0392 -0.2942
    8CHL1   H2A  566   5.786   1.347  10.292  0.6947 -0.2145  1.0314
    8CHL1   H2B  567   5.767   1.531  10.281  0.4999  0.6629  1.0515
    8CHL1   C20  568   6.201   1.512   9.391 -0.0598  0.0396  0.1299
    8CHL1   H20  569   6.155   1.612   9.376  1.3695  0.4969 -1.4869
    8CHL1   C21  570   6.105   1.399   9.360  0.4771  0.7822  0.5632
    8CHL1  H21A  571   6.008   1.430   9.405 -0.3612  0.5555 -1.0059
    8CHL1  H21B  572   6.143   1.304   9.403 -1.1136 -0.8605 -1.4480
    8CHL1  H21C  573   6.080   1.376   9.254 -1.4422 -3.4995  1.7243
    8CHL1   C22  574   6.319   1.509   9.288 -0.1944 -0.1101  0.4264
    8CHL1  H22A  575   6.382   1.597   9.315  0.1511 -0.1404 -0.2723
    8CHL1  H22B  576   6.393   1.428   9.303  1.0328  0.9530  0.3768
    8CHL1   C23  577   6.285   1.512   9.139  0.0104  0.4977 -0.2834
    8CHL1  H23A  578   6.268   1.406   9.109  1.1734  0.1891  0.0989
    8CHL1  H23B  579   6.191   1.569   9.122 -0.6180  0.0956  1.5654
    8CHL1   C24  580   6.398   1.575   9.055  0.2087 -0.1850  0.7040
    8CHL1  H24A  581   6.403   1.685   9.067  0.7290 -0.0256 -0.7679
    8CHL1  H24B  582   6.500   1.536   9.073  0.3697  0.1199  0.4531
    8CHL1   C25  583   6.354   1.574   8.904 -0.3442 -0.0475  0.3397
    8CHL1   H25  584   6.244   1.592   8.905 -0.2792  0.6569  2.9733
    8CHL1   C26  585   6.430   1.689   8.830  0.5714  0.2219  0.0472
    8CHL1  H26A  586   6.540   1.678   8.845  0.5630  0.1406  0.0484
    8CHL1  H26B  587   6.402   1.682   8.723 -0.3604 -1.1221  0.3479
    8CHL1  H26C  588   6.391   1.785   8.869 -1.1035 -0.1157 -0.7177
    8CHL1   C27  589   6.386   1.431   8.845  0.5760  0.3269 -0.9955
    8CHL1  H27A  590   6.332   1.441   8.748 -5.8490 -1.2757  1.9091
    8CHL1  H27B  591   6.495   1.412   8.842  0.7367  0.2873  1.9418
    8CHL1  H27C  592   6.341   1.355   8.912  1.2482  1.0946  0.3612
    9CHL1    C3  593   2.423   5.407   9.949  0.6019  0.1152 -0.0382
    9CHL1    H3  594   2.321   5.368   9.929 -0.8521  1.0929  4.4259
    9CHL1    O3  595   2.439   5.420  10.088  0.4397  0.3810 -0.0141
    9CHL1   H3'  596   2.383   5.491  10.121  0.8183  0.1332  1.2118
    9CHL1    C4  597   2.522   5.295   9.897  0.5216 -0.5669  0.0701
    9CHL1   H4A  598   2.625   5.324   9.924  0.3238  1.6371 -1.2781
    9CHL1   H4B  599   2.509   5.196   9.946  1.2855 -1.2267 -1.0241
    9CHL1    C5  600   2.502   5.278   9.748  0.0612 -0.1158 -0.1902
    9CHL1    C6  601   2.484   5.155   9.690 -0.0191 -0.2720  0.6010
    9CHL1    H6  602   2.493   5.060   9.745 -1.0215  0.1324  1.5237
    9CHL1    C7  603   2.470   5.136   9.542  0.4615  0.0686  0.5637
    9CHL1   H7A  604   2.540   5.062   9.499  0.7720 -0.1553  1.4382
    9CHL1   H7B  605   2.369   5.090   9.538  1.0103 -1.3282  1.9567
    9CHL1    C8  606   2.484   5.266   9.459  0.6496  0.1426  0.1236
    9CHL1    H8  607   2.593   5.287   9.450  0.5870  0.0498 -1.0052
    9CHL1   C14  608   2.432   5.254   9.314  0.9157  0.1006  0.0039
    9CHL1   H14  609   2.325   5.237   9.334  0.7830  0.8590 -0.0308
    9CHL1   C15  610   2.475   5.136   9.231  0.0595  0.0871  0.2543
    9CHL1  H15A  611   2.585   5.139   9.219  0.2227  0.6556  1.7762
    9CHL1  H15B  612   2.444   5.037   9.271  0.9830 -1.0185 -1.6290
    9CHL1   C16  613   2.410   5.161   9.095  0.6678 -0.1389  0.3964
    9CHL1  H16A  614   2.481   5.161   9.009 -0.0152  1.2379 -0.1956
    9CHL1  H16B  615   2.329   5.088   9.075 -0.1025  1.3691 -2.4376
    9CHL1   C17  616   2.354   5.312   9.110  0.0789 -0.2677  0.2981
    9CHL1   H17  617   2.246   5.299   9.132  0.0994  1.4131  1.5490
    9CHL1   C13  618   2.431   5.371   9.233  0.8910 -0.5514  1.1307
    9CHL1   C18  619   2.566   5.422   9.179  0.6651  0.4380  0.6587
    9CHL1  H18A  620   2.614   5.343   9.119 -1.1437 -0.0723 -0.1799
    9CHL1  H18B  621   2.561   5.516   9.119 -0.5607  1.5536  2.3858
    9CHL1  H18C  622   2.622   5.445   9.272 -0.3321  0.6765  1.2271
    9CHL1   C12  623   2.351   5.476   9.305 -0.6329 -0.5335  0.3851
    9CHL1  H12A  624   2.336   5.566   9.240  0.5985 -0.9164 -0.4535
    9CHL1  H12B  625   2.245   5.444   9.319 -0.3548 -0.9033  1.6775
    9CHL1   C11  626   2.415   5.516   9.434  0.0213 -0.9849  0.1883
    9CHL1  H11A  627   2.514   5.558   9.408 -0.4832  1.8742  2.3922
    9CHL1  H11B  628   2.357   5.598   9.481 -1.6857 -2.7966  1.4316
    9CHL1    C9  629   2.417   5.390   9.531 -0.8938  0.6323  0.1615
    9CHL1    H9  630   2.313   5.354   9.550 -0.6759 -0.3152 -0.3673
    9CHL1   C10  631   2.489   5.411   9.669  0.5399 -0.2297  0.1804
    9CHL1   C19  632   2.629   5.464   9.644 -0.0747  0.5486  0.1085
    9CHL1  H19A  633   2.617   5.567   9.603 -0.2336  0.1122 -0.9610
    9CHL1  H19B  634   2.679   5.478   9.743 -0.9921 -1.2691  0.8700
    9CHL1  H19C  635   2.694   5.395   9.587 -1.0052 -0.9701  0.8183
    9CHL1    C1  636   2.394   5.525   9.741 -0.4293  0.2919 -1.3050
    9CHL1   H1A  637   2.395   5.619   9.683 -0.4284  0.5279 -0.9285
    9CHL1   H1B  638   2.292   5.481   9.749 -0.2450  0.1431  1.4277
    9CHL1    C2  639   2.440   5.544   9.884 -0.5363  0.8592  0.5757
    9CHL1   H2A  640   2.375   5.617   9.937  1.1362  2.4318  0.5717
    9CHL1   H2B  641   2.540   5.592   9.897  0.0120  0.1289 -0.7383
    9CHL1   C20  642   2.367   5.385   8.972 -0.0034  0.5176  0.0721
    9CHL1   H20  643   2.472   5.408   8.943 -0.6490  0.8986 -2.2255
    9CHL1   C21  644   2.287   5.513   8.970 -0.6015  0.1404  0.1406
    9CHL1  H21A  645   2.346   5.589   9.026 -0.3450  0.4258 -0.5084
    9CHL1  H21B  646   2.187   5.490   9.014  0.3873 -0.8293  2.0147
    9CHL1  H21C  647   2.272   5.561   8.871  1.6173  2.8901  1.0234
    9CHL1   C22  648   2.307   5.298   8.852 -0.1113 -0.2206 -0.3188
    9CHL1  H22A  649   2.324   5.189   8.856 -0.2443 -0.2112  0.7894
    9CHL1  H22B  650   2.198   5.311   8.865  0.3557  1.3527  3.2265
    9CHL1   C23  651   2.354   5.349   8.717  0.0014 -0.3932  0.9174
    9CHL1  H23A  652   2.330   5.457   8.707 -2.7702 -0.7572  2.4259
    9CHL1  H23B  653   2.464   5.337   8.709 -0.1928 -1.0110 -2.8052
    9CHL1   C24  654   2.289   5.273   8.605  0.2001  1.4136  0.0855
    9CHL1  H24A  655   2.349   5.183   8.581 -1.6403  0.1303  0.0786
    9CHL1  H24B  656   2.187   5.239   8.631  0.3942  0.7279 -0.0340
    9CHL1   C25  657   2.264   5.358   8.470 -0.7318 -0.0937  0.3968
    9CHL1   H25  658   2.364   5.404   8.451 -1.0889  0.5988  0.2001
    9CHL1   C26  659   2.232   5.279   8.349  0.5514 -0.0758  0.5491
    9CHL1  H26A  660   2.326   5.232   8.311  0.5449 -1.9084  2.5812
    9CHL1  H26B  661   2.168   5.190   8.367  2.2228 -1.8844 -1.7247
    9CHL1  H26C  662   2.176   5.339   8.274 -1.0548 -3.8509 -1.5929
    9CHL1   C27  663   2.161   5.469   8.487  0.6876 -0.7137  0.0896
    9CHL1  H27A  664   2.056   5.436   8.471  0.4067  0.8544 -1.7017
    9CHL1  H27B  665   2.175   5.516   8.586  0.0766 -1.6872  0.6518
    9CHL1  H27C  666   2.185   5.552   8.417  0.3077 -1.2501 -0.6989
   10CHL1    C3  667   1.256   2.962   9.911  0.0159  0.3198  0.4982
   10CHL1    H3  668   1.320   2.891   9.855 -0.4050 -0.9279  1.5565
   10CHL1    O3  669   1.274   2.926  10.046 -0.0859  0.0458 -0.6560
   10CHL1   H3'  670   1.206   2.980  10.088  2.0164  0.6867  2.2338
   10CHL1    C4  671   1.302   3.111   9.878  0.3468  0.0159 -0.8950
   10CHL1   H4A  672   1.243   3.174   9.950  1.1265  0.2949 -0.4905
   10CHL1   H4B  673   1.406   3.124   9.914  0.2845 -2.4762  0.3862
   10CHL1    C5  674   1.273   3.149   9.730  0.1968 -0.7708  0.0284
   10CHL1    C6  675   1.373   3.189   9.655  0.7050  0.7892  0.2190
   10CHL1    H6  676   1.470   3.205   9.706  1.2992 -0.5373 -0.4498
   10CHL1    C7  677   1.366   3.221   9.504 -0.0809  0.0519  0.5586
   10CHL1   H7A  678   1.411   3.322   9.487 -1.4421  0.6845  0.5757
   10CHL1   H7B  679   1.427   3.141   9.457 -0.0447  0.3318  0.1210
   10CHL1    C8  680   1.220   3.225   9.447 -0.3268 -0.0920 -0.2868
   10CHL1    H8  681   1.180   3.323   9.483 -0.6361  1.4555 -4.3593
   10CHL1   C14  682   1.213   3.225   9.295 -0.3937  0.3257  0.7565
   10CHL1   H14  683   1.266   3.138   9.251 -0.2461  0.6910  0.1828
   10CHL1   C15  684   1.280   3.341   9.216 -0.2508 -0.1406 -0.8829
   10CHL1  H15A  685   1.256   3.440   9.259 -0.3924  0.2572 -1.8514
   10CHL1  H15B  686   1.390   3.346   9.234 -0.5579  1.9484  0.7478
   10CHL1   C16  687   1.233   3.324   9.068  0.1571  0.1209 -0.2294
   10CHL1  H16A  688   1.210   3.422   9.020 -0.1730  0.2109  0.1103
   10CHL1  H16B  689   1.308   3.283   8.998 -1.1523 -1.1456 -0.9350
   10CHL1   C17  690   1.112   3.233   9.075 -0.5938  0.7581  0.3783
   10CHL1   H17  691   1.148   3.133   9.042  0.3805  1.9127 -2.4391
   10CHL1   C13  692   1.071   3.222   9.231 -0.1790  0.1794  1.3129
   10CHL1   C18  693   0.986   3.347   9.268  0.6052 -0.5080 -0.4756
   10CHL1  H18A  694   0.989   3.363   9.378 -1.2576  1.5940 -0.6753
   10CHL1  H18B  695   1.022   3.443   9.226  0.7552 -1.0437 -1.6288
   10CHL1  H18C  696   0.878   3.336   9.243  1.0500 -1.9967 -1.9381
   10CHL1   C12  697   1.008   3.089   9.275 -0.6555  0.3991  0.5401
   10CHL1  H12A  698   0.899   3.081   9.255 -0.3493 -0.8016 -0.7978
   10CHL1  H12B  699   1.066   3.000   9.244 -0.6719  1.1515 -1.8258
   10CHL1   C11  700   0.998   3.086   9.433  0.3900  0.1783 -0.3693
   10CHL1  H11A  701   0.931   3.174   9.448 -1.6915 -1.0518 -1.9264
   10CHL1  H11B  702   0.939   3.004   9.479 -0.9906  0.7371 -1.0959
   10CHL1    C9  703   1.133   3.107   9.511 -0.3271 -0.2993 -0.1937
   10CHL1    H9  704   1.200   3.022   9.483 -0.4430 -0.8604  1.1534
   10CHL1   C10  705   1.131   3.107   9.668 -0.6900  0.2693 -1.0274
   10CHL1   C19  706   1.031   3.218   9.705 -0.5197  0.4724 -0.1118
   10CHL1  H19A  707   1.042   3.312   9.646 -1.0104  0.0990 -0.7958
   10CHL1  H19B  708   0.928   3.183   9.688  0.1518 -2.0206  0.5955
   10CHL1  H19C  709   1.030   3.232   9.816 -0.2096  0.8125 -0.1461
   10CHL1    C1  710   1.085   2.972   9.726  0.5782 -0.2376 -0.5701
   10CHL1   H1A  711   0.977   2.954   9.706  0.9526 -0.7651 -2.3624
   10CHL1   H1B  712   1.137   2.893   9.667  2.1498 -0.3090  0.8514
   10CHL1    C2  713   1.114   2.942   9.873 -0.0619  0.1545 -0.1801
   10CHL1   H2A  714   1.098   2.834   9.892  1.6357 -0.6254 -2.7150
   10CHL1   H2B  715   1.044   2.997   9.940  0.2679 -0.7080  0.9232
   10CHL1   C20  716   1.004   3.266   8.979 -0.3836 -0.4621  0.3259
   10CHL1   H20  717   0.945   3.355   9.011 -0.6684 -0.3393 -0.5125
   10CHL1   C21  718   0.914   3.144   8.968  0.1968 -0.0341  0.2063
   10CHL1  H21A  719   0.838   3.150   8.887 -0.3763  0.7007  0.7728
   10CHL1  H21B  720   0.858   3.147   9.064 -0.3128  3.0233 -0.0681
   10CHL1  H21C  721   0.975   3.052   8.967 -0.6874 -0.6267  0.0142
   10CHL1   C22  722   1.060   3.306   8.835 -0.1590 -0.2902 -0.1359
   10CHL1  H22A  723   0.964   3.329   8.784 -1.3176  0.5145  2.2725
   10CHL1  H22B  724   1.117   3.401   8.839 -1.3597  0.4063  1.3536
   10CHL1   C23  725   1.133   3.202   8.764  0.5368  0.5500  0.5983
   10CHL1  H23A  726   1.226   3.187   8.822  1.1109 -0.6806 -0.5790
   10CHL1  H23B  727   1.070   3.112   8.748 -0.7570  1.3911  0.7815
   10CHL1   C24  728   1.179   3.249   8.625  0.0233  0.3295 -0.1098
   10CHL1  H24A  729   1.082   3.277   8.578 -2.0067 -1.2733  2.8226
   10CHL1  H24B  730   1.248   3.336   8.626  1.5074 -0.8134  1.8265
   10CHL1   C25  731   1.231   3.130   8.537 -0.6946 -0.2660 -0.3449
   10CHL1   H25  732   1.146   3.059   8.529 -2.2478  1.0604  2.5778
   10CHL1   C26  733   1.264   3.176   8.395  0.2107  0.1378 -0.2463
   10CHL1  H26A  734   1.353   3.242   8.405  1.8500 -2.0724  0.5533
   10CHL1  H26B  735   1.298   3.090   8.333  3.0738 -1.6920  3.4261
   10CHL1  H26C  736   1.174   3.214   8.342 -0.4367 -2.6686 -1.3696
   10CHL1   C27  737   1.351   3.057   8.594  0.2315 -0.0577 -0.2756
   10CHL1  H27A  738   1.342   3.009   8.694 -1.5061  1.4088  0.3329
   10CHL1  H27B  739   1.383   2.977   8.524  0.4378 -0.7247  0.5638
   10CHL1  H27C  740   1.431   3.132   8.609  2.2447 -2.3997  1.6028
   11CHL1    C3  741   4.105   0.176   9.921  0.6133  0.1071  0.1781
   11CHL1    H3  742   4.056   0.271   9.889  2.0929  0.5533 -0.8705
   11CHL1    O3  743   4.114   0.188  10.058 -0.0927  0.1206  0.2592
   11CHL1   H3'  744   4.159   0.111  10.094  0.5493  0.2582 -0.2373
   11CHL1    C4  745   4.017   0.057   9.885 -0.3318 -0.2579 -0.0850
   11CHL1   H4A  746   4.041  -0.034   9.943 -1.9885  0.4866  1.8751
   11CHL1   H4B  747   3.915   0.077   9.925 -0.1103  0.8146 -0.0158
   11CHL1    C5  748   4.002   0.035   9.733 -0.9688 -0.0788  0.1045
   11CHL1    C6  749   3.887   0.047   9.657  0.2486  0.2853 -0.5158
   11CHL1    H6  750   3.789   0.063   9.703 -0.3572 -1.1442 -1.2630
   11CHL1    C7  751   3.885   0.028   9.511 -0.9541 -0.7704  0.9713
   11CHL1   H7A  752   3.794  -0.030   9.485 -1.5069  0.0445  1.0271
   11CHL1   H7B  753   3.874   0.127   9.460  2.5625 -1.7129 -2.0196
   11CHL1    C8  754   4.008  -0.039   9.445 -0.7172  0.2874  0.4012
   11CHL1    H8  755   3.989  -0.147   9.462 -0.3494  0.3589  1.3013
   11CHL1   C14  756   4.019  -0.006   9.295 -0.3704 -0.2758 -0.0850
   11CHL1   H14  757   4.042   0.102   9.284 -0.0874 -0.4155 -0.9097
   11CHL1   C15  758   3.883  -0.011   9.211  0.2093 -0.2151 -0.4471
   11CHL1  H15A  759   3.826  -0.099   9.249 -0.6970  1.1082  1.3914
   11CHL1  H15B  760   3.820   0.077   9.236 -0.9889 -1.4262  0.9717
   11CHL1   C16  761   3.931  -0.024   9.075 -0.0168  0.3246  0.1505
   11CHL1  H16A  762   3.879  -0.116   9.040 -0.4337  0.7309 -0.3134
   11CHL1  H16B  763   3.894   0.052   9.003 -3.8587 -0.4639  1.0458
   11CHL1   C17  764   4.092  -0.038   9.078  0.4989  0.2372  0.9022
   11CHL1   H17  765   4.133   0.065   9.076 -0.0552  0.4810  1.6573
   11CHL1   C13  766   4.128  -0.091   9.220 -0.6297  0.7544  0.0646
   11CHL1   C18  767   4.100  -0.245   9.225  0.7314 -0.3746  0.0189
   11CHL1  H18A  768   4.109  -0.270   9.332  1.0755  0.6556  0.2423
   11CHL1  H18B  769   4.001  -0.272   9.182  0.6011  3.2361 -2.4584
   11CHL1  H18C  770   4.168  -0.309   9.164 -1.1570 -0.8159 -1.7129
   11CHL1   C12  771   4.262  -0.048   9.286  0.4182 -0.4285  0.6079
   11CHL1  H12A  772   4.340  -0.122   9.258  1.8445 -0.0281  3.2429
   11CHL1  H12B  773   4.290   0.053   9.250  0.0420 -0.4344  0.2831
   11CHL1   C11  774   4.260  -0.065   9.440 -0.2796 -0.6106 -0.3648
   11CHL1  H11A  775   4.256  -0.172   9.469 -4.1763 -0.0520  1.8332
   11CHL1  H11B  776   4.349  -0.001   9.458 -0.8826 -0.3401  1.8278
   11CHL1    C9  777   4.144   0.011   9.506  0.1967  0.0857 -0.0189
   11CHL1    H9  778   4.148   0.115   9.468 -0.3893 -0.2969 -1.1775
   11CHL1   C10  779   4.139   0.005   9.665  0.0944 -0.1572  0.1518
   11CHL1   C19  780   4.199  -0.131   9.715 -0.0976 -0.5691 -0.2704
   11CHL1  H19A  781   4.305  -0.149   9.689  0.0006  0.6435 -0.7493
   11CHL1  H19B  782   4.190  -0.147   9.824  0.0645  0.0189 -0.1697
   11CHL1  H19C  783   4.135  -0.213   9.675 -2.0769  0.1235  1.2982
   11CHL1    C1  784   4.235   0.119   9.713 -0.9331  0.1920  0.4977
   11CHL1   H1A  785   4.335   0.107   9.665 -1.0408 -0.8765  0.5225
   11CHL1   H1B  786   4.191   0.208   9.664 -1.0739 -0.8623 -1.3922
   11CHL1    C2  787   4.248   0.155   9.857 -0.6438 -0.0554 -0.0993
   11CHL1   H2A  788   4.311   0.246   9.868 -0.4534 -0.4208  2.9041
   11CHL1   H2B  789   4.291   0.070   9.915 -1.2631 -0.7486 -0.6378
   11CHL1   C20  790   4.144  -0.110   8.956  0.9106  0.1472 -0.4180
   11CHL1   H20  791   4.132  -0.218   8.977 -0.1486  0.6184  1.6360
   11CHL1   C21  792   4.292  -0.077   8.936 -0.5105 -0.2378  0.3636
   11CHL1  H21A  793   4.359  -0.118   9.015  0.8749 -2.9211 -1.9976
   11CHL1  H21B  794   4.295   0.034   8.936  0.0942 -0.2174 -1.3283
   11CHL1  H21C  795   4.338  -0.117   8.843  1.4990 -1.8282  1.9149
   11CHL1   C22  796   4.072  -0.075   8.818 -1.2440 -0.4705 -0.2127
   11CHL1  H22A  797   4.134  -0.134   8.748  0.4530  1.4853 -0.4747
   11CHL1  H22B  798   3.969  -0.116   8.809 -1.6667  1.0213 -4.6240
   11CHL1   C23  799   4.081   0.078   8.786  0.2852 -0.8120 -0.1026
   11CHL1  H23A  800   4.036   0.128   8.874  1.2571  0.0231 -0.0699
   11CHL1  H23B  801   4.180   0.127   8.782  0.1657 -0.3841  1.4297
   11CHL1   C24  802   3.987   0.113   8.665 -0.5662 -0.0858 -0.5919
   11CHL1  H24A  803   3.884   0.074   8.685 -0.2592 -0.0444  1.2512
   11CHL1  H24B  804   3.972   0.223   8.658 -0.8750 -0.1438 -0.8633
   11CHL1   C25  805   4.035   0.071   8.522 -0.4726 -0.2684  0.2066
   11CHL1   H25  806   4.049  -0.039   8.530  0.7361 -0.1421  0.0520
   11CHL1   C26  807   3.926   0.095   8.416  0.5691  0.2146  0.3500
   11CHL1  H26A  808   3.853   0.011   8.410  2.6422 -2.0260  3.1721
   11CHL1  H26B  809   3.883   0.195   8.439  1.3428  0.0855  2.5737
   11CHL1  H26C  810   3.972   0.112   8.317  0.0477  0.6334  0.1776
   11CHL1   C27  811   4.175   0.125   8.471  0.6845 -0.4409  0.0353
   11CHL1  H27A  812   4.217   0.075   8.381 -0.9349  0.4927 -1.2925
   11CHL1  H27B  813   4.169   0.233   8.445 -2.2369 -0.8329 -1.3813
   11CHL1  H27C  814   4.255   0.104   8.545  1.4664 -1.8975 -1.1504
   12CHL1    C3  815   6.575   0.565  10.227  0.3747 -0.3705  0.0750
   12CHL1    H3  816   6.647   0.650  10.231  0.0579 -0.0973  0.0131
   12CHL1    O3  817   6.529   0.551  10.358  0.3875 -0.1201  0.3274
   12CHL1   H3'  818   6.479   0.627  10.389  2.5408  0.8471  1.6573
   12CHL1    C4  819   6.450   0.604  10.134 -0.3753  0.6806 -0.2473
   12CHL1   H4A  820   6.359   0.542  10.150 -0.5685  0.5770 -1.6303
   12CHL1   H4B  821   6.407   0.705  10.156  0.5465  0.5619  2.5691
   12CHL1    C5  822   6.488   0.593   9.987  0.6453  0.4585 -0.3045
   12CHL1    C6  823   6.471   0.707   9.914  0.0137  0.3945  0.1736
   12CHL1    H6  824   6.423   0.799   9.949 -1.5756  0.2882 -1.5648
   12CHL1    C7  825   6.495   0.711   9.764  0.8247  0.4091  0.2193
   12CHL1   H7A  826   6.412   0.760   9.710  1.5308  3.2051  1.4632
   12CHL1   H7B  827   6.578   0.784   9.752 -0.0017  1.1849 -0.8542
   12CHL1    C8  828   6.528   0.573   9.700  0.5597 -0.1712  0.0486
   12CHL1    H8  829   6.431   0.520   9.694  0.2871  0.4499 -3.1309
   12CHL1   C14  830   6.578   0.591   9.561 -0.3616 -0.2896  0.2142
   12CHL1   H14  831   6.677   0.642   9.570  1.1595 -3.1997  1.4618
   12CHL1   C15  832   6.495   0.678   9.462 -0.3126  0.2779 -0.3452
   12CHL1  H15A  833   6.385   0.661   9.468 -0.6732  2.1454 -1.0157
   12CHL1  H15B  834   6.518   0.778   9.506 -0.9800 -0.0424  0.7918
   12CHL1   C16  835   6.556   0.635   9.328 -0.4828 -0.6482 -0.1328
   12CHL1  H16A  836   6.475   0.607   9.258  0.2935 -0.7476 -1.0013
   12CHL1  H16B  837   6.594   0.730   9.284 -1.9766  0.2900  0.5112
   12CHL1   C17  838   6.663   0.525   9.357 -0.0587  0.2210 -0.1410
   12CHL1   H17  839   6.759   0.575   9.382 -0.3614 -0.2588  2.2015
   12CHL1   C13  840   6.612   0.466   9.490 -0.5886  0.2327  1.2459
   12CHL1   C18  841   6.488   0.370   9.460 -0.3291 -0.4458 -0.4028
   12CHL1  H18A  842   6.440   0.338   9.555  0.1337  0.2918  0.0871
   12CHL1  H18B  843   6.410   0.433   9.412  0.7773  1.6224  0.4097
   12CHL1  H18C  844   6.522   0.280   9.405  0.1336  1.1568 -2.8780
   12CHL1   C12  845   6.716   0.390   9.571  0.0287 -0.5808  0.0402
   12CHL1  H12A  846   6.721   0.286   9.532 -0.1534 -0.1127 -1.2874
   12CHL1  H12B  847   6.810   0.449   9.559  1.2945 -2.2387  1.2738
   12CHL1   C11  848   6.680   0.368   9.724  0.6412  0.7182  0.3266
   12CHL1  H11A  849   6.607   0.285   9.737  0.4121  1.0479  1.2590
   12CHL1  H11B  850   6.782   0.349   9.763  0.6906  3.4581  1.7856
   12CHL1    C9  851   6.626   0.499   9.788 -0.7915  0.0491 -0.5128
   12CHL1    H9  852   6.709   0.571   9.804 -1.5274  1.0818 -1.2444
   12CHL1   C10  853   6.564   0.473   9.928  0.8465 -0.1877 -0.0024
   12CHL1   C19  854   6.464   0.356   9.932 -0.0675  0.0283  0.1745
   12CHL1  H19A  855   6.512   0.256   9.918 -0.5079 -0.3440  1.1764
   12CHL1  H19B  856   6.409   0.350  10.029 -0.5523  0.0098 -0.1006
   12CHL1  H19C  857   6.384   0.365   9.856  0.3094 -0.7671 -0.3335
   12CHL1    C1  858   6.674   0.439  10.023 -0.3980 -0.2704 -0.8490
   12CHL1   H1A  859   6.713   0.341   9.989  2.5334  0.7426 -0.7054
   12CHL1   H1B  860   6.764   0.501  10.003  1.3579 -2.5748 -0.4427
   12CHL1    C2  861   6.641   0.441  10.175  0.1257 -0.3263  0.0924
   12CHL1   H2A  862   6.726   0.423  10.243  1.5267 -1.2097 -1.8064
   12CHL1   H2B  863   6.559   0.367  10.192  1.2941 -1.2972  1.7845
   12CHL1   C20  864   6.688   0.434   9.234 -0.0576  0.0231 -0.1377
   12CHL1   H20  865   6.593   0.397   9.191  1.1671 -1.8651 -1.3866
   12CHL1   C21  866   6.787   0.315   9.273 -0.0728 -0.0360 -0.0505
   12CHL1  H21A  867   6.860   0.349   9.350  0.9851  0.8907 -1.4278
   12CHL1  H21B  868   6.843   0.291   9.181  1.2433  1.3065  0.3642
   12CHL1  H21C  869   6.735   0.229   9.321 -0.8718 -0.2320 -1.2298
   12CHL1   C22  870   6.761   0.527   9.126  0.5867  0.3089  0.3716
   12CHL1  H22A  871   6.715   0.628   9.119 -0.2651 -0.1747 -2.8896
   12CHL1  H22B  872   6.870   0.530   9.143  0.9271  1.5525 -1.7285
   12CHL1   C23  873   6.731   0.476   8.985  0.0989 -0.8219  0.5326
   12CHL1  H23A  874   6.783   0.378   8.971 -0.4518 -1.2015  1.0472
   12CHL1  H23B  875   6.622   0.484   8.966 -0.2364  2.4642  3.0448
   12CHL1   C24  876   6.790   0.587   8.888 -0.6434 -0.3077 -0.1773
   12CHL1  H24A  877   6.729   0.678   8.908 -1.6004 -0.7059 -1.2041
   12CHL1  H24B  878   6.897   0.598   8.918 -0.4569 -2.4111  0.0887
   12CHL1   C25  879   6.806   0.555   8.732  0.4673  0.2979  0.5631
   12CHL1   H25  880   6.843   0.451   8.730  0.4992  0.2640  2.2168
   12CHL1   C26  881   6.677   0.565   8.654 -0.1613  0.3899 -0.1209
   12CHL1  H26A  882   6.689   0.529   8.550  2.6419 -0.0512  0.2831
   12CHL1  H26B  883   6.595   0.505   8.700 -0.0571  0.2522 -0.1145
   12CHL1  H26C  884   6.655   0.674   8.643 -0.2769  0.4218  0.3995
   12CHL1   C27  885   6.912   0.642   8.669  0.3809 -0.0330 -1.0721
   12CHL1  H27A  886   6.886   0.749   8.684  2.2648  0.1713  1.6235
   12CHL1  H27B  887   7.010   0.625   8.720 -0.8104 -0.4116  1.2331
   12CHL1  H27C  888   6.917   0.636   8.559  0.2664  2.5379 -1.2720
   13CHL1    C3  889   6.219   3.696   9.815 -0.1561 -0.5033 -0.8080
   13CHL1    H3  890   6.121   3.651   9.843 -0.3601  0.7678  0.6629
   13CHL1    O3  891   6.299   3.708   9.931  0.2045 -0.6800  0.5986
   13CHL1   H3'  892   6.373   3.762   9.903  0.2134 -0.3130  1.3114
   13CHL1    C4  893   6.288   3.613   9.709  0.1864 -0.1245  0.5499
   13CHL1   H4A  894   6.397   3.630   9.710  0.5295 -1.2707 -3.1009
   13CHL1   H4B  895   6.284   3.515   9.761 -1.2242  0.8883  2.5086
   13CHL1    C5  896   6.225   3.625   9.569 -0.4161 -0.3550 -0.2438
   13CHL1    C6  897   6.195   3.513   9.501  0.2293 -1.0259 -0.5323
   13CHL1    H6  898   6.203   3.418   9.555 -1.4750  0.1603  2.0083
   13CHL1    C7  899   6.153   3.514   9.354 -0.3083  0.1947 -0.4917
   13CHL1   H7A  900   6.203   3.425   9.310 -0.4024 -2.0206  3.3544
   13CHL1   H7B  901   6.043   3.497   9.345 -0.4098  0.6276 -0.1184
   13CHL1    C8  902   6.192   3.648   9.282 -0.4521 -0.3590  0.5242
   13CHL1    H8  903   6.301   3.646   9.260 -0.8319 -3.0091 -1.6835
   13CHL1   C14  904   6.123   3.649   9.147 -0.3655 -0.3642 -0.2515
   13CHL1   H14  905   6.016   3.647   9.174 -0.1468 -1.2574  0.6144
   13CHL1   C15  906   6.144   3.529   9.054 -0.3160 -0.8356  0.0639
   13CHL1  H15A  907   6.252   3.505   9.048 -0.2639 -0.3940 -0.9556
   13CHL1  H15B  908   6.088   3.441   9.094  0.5806 -2.1075 -1.3463
   13CHL1   C16  909   6.086   3.582   8.912 -0.9401  0.5283  0.4490
   13CHL1  H16A  910   6.165   3.567   8.835  0.5573 -0.4550  2.0976
   13CHL1  H16B  911   5.996   3.522   8.886  0.9428 -1.1431 -2.9569
   13CHL1   C17  912   6.046   3.730   8.942 -0.2473  0.2435 -0.5644
   13CHL1   H17  913   5.947   3.719   8.990  1.0739 -3.6112  1.7181
   13CHL1   C13  914   6.132   3.773   9.060  0.1057  0.7848 -0.4237
   13CHL1   C18  915   6.277   3.793   9.028 -0.1947  0.2218  0.1917
   13CHL1  H18A  916   6.290   3.857   8.938  1.3750  0.6994  0.7182
   13CHL1  H18B  917   6.339   3.837   9.110  0.7647  0.0891 -0.4438
   13CHL1  H18C  918   6.314   3.694   8.996  0.0679  0.6769 -0.9619
   13CHL1   C12  919   6.079   3.889   9.151 -0.1686 -0.1326 -0.1415
   13CHL1  H12A  920   6.105   3.978   9.091  1.6628 -0.5070  0.0458
   13CHL1  H12B  921   5.968   3.878   9.153 -0.1628 -0.2278 -0.2771
   13CHL1   C11  922   6.142   3.896   9.294  0.1063 -0.4632 -0.5148
   13CHL1  H11A  923   6.249   3.921   9.281 -0.2207  0.7052 -0.9891
   13CHL1  H11B  924   6.108   3.975   9.364 -0.4995 -2.1949  1.2533
   13CHL1    C9  925   6.144   3.765   9.373 -0.0804 -0.5389  0.1707
   13CHL1    H9  926   6.039   3.735   9.398  0.2873  0.3057  3.1234
   13CHL1   C10  927   6.214   3.770   9.513 -0.2417  0.6020 -0.3370
   13CHL1   C19  928   6.355   3.834   9.497  0.2538  0.0877  0.3567
   13CHL1  H19A  929   6.358   3.940   9.461 -0.8015 -0.6419 -2.0855
   13CHL1  H19B  930   6.414   3.830   9.591 -0.6321  0.3923  0.9301
   13CHL1  H19C  931   6.406   3.767   9.424 -0.5139 -0.2533  0.1337
   13CHL1    C1  932   6.130   3.843   9.625  0.0090 -0.3080  0.5584
   13CHL1   H1A  933   6.126   3.950   9.596 -3.0504 -0.0899  1.4706
   13CHL1   H1B  934   6.026   3.805   9.618 -0.4779  1.1720 -0.7249
   13CHL1    C2  935   6.191   3.843   9.771 -0.1856  0.0564  0.0254
   13CHL1   H2A  936   6.119   3.895   9.838 -0.9862 -1.5322  0.4634
   13CHL1   H2B  937   6.289   3.895   9.773  0.4459 -0.8952 -2.4106
   13CHL1   C20  938   6.037   3.828   8.828 -0.0980  0.0168 -0.8345
   13CHL1   H20  939   6.070   3.922   8.875 -0.1583 -1.0653  1.5176
   13CHL1   C21  940   5.889   3.823   8.785 -0.0036 -0.2859  0.1448
   13CHL1  H21A  941   5.834   3.853   8.877  0.2679 -1.7635  0.8057
   13CHL1  H21B  942   5.863   3.717   8.766  0.5789 -0.5856  0.9445
   13CHL1  H21C  943   5.864   3.895   8.704  1.0216  0.6587  0.6450
   13CHL1   C22  944   6.133   3.795   8.708 -0.1165  0.1586 -0.0579
   13CHL1  H22A  945   6.237   3.789   8.746 -1.1507 -3.9570  2.8478
   13CHL1  H22B  946   6.106   3.694   8.670 -0.8493  0.5193 -0.5246
   13CHL1   C23  947   6.128   3.897   8.596 -0.4462 -0.5724  0.2670
   13CHL1  H23A  948   6.023   3.922   8.568 -0.5809  1.1353  2.1093
   13CHL1  H23B  949   6.153   3.987   8.655 -2.1046  0.3781 -0.4142
   13CHL1   C24  950   6.219   3.859   8.483  0.0374 -0.4331  0.6198
   13CHL1  H24A  951   6.318   3.836   8.530  0.7687  1.6297  0.2083
   13CHL1  H24B  952   6.172   3.770   8.438 -2.5291  1.3997 -0.5276
   13CHL1   C25  953   6.239   3.980   8.377 -0.2381  0.3628 -0.1122
   13CHL1   H25  954   6.139   4.010   8.339  0.1342  0.5279 -1.0002
   13CHL1   C26  955   6.312   4.110   8.419  0.0466 -0.3594 -0.9729
   13CHL1  H26A  956   6.417   4.082   8.444  0.0425  0.6499  0.2352
   13CHL1  H26B  957   6.302   4.181   8.334 -0.2675 -0.6982 -1.2207
   13CHL1  H26C  958   6.261   4.151   8.509 -0.7451 -3.8106  0.2986
   13CHL1   C27  959   6.299   3.919   8.250  0.0338 -0.2052  0.4059
   13CHL1  H27A  960   6.280   3.985   8.162 -0.7795 -1.6253 -0.5376
   13CHL1  H27B  961   6.407   3.897   8.238  0.3137  0.2967  1.8403
   13CHL1  H27C  962   6.249   3.824   8.220 -0.7406 -0.3936  2.1769
   14CHL1    C3  963   6.011   0.066  10.234  0.2112 -0.3776  0.4349
   14CHL1    H3  964   5.990   0.175  10.239  1.8660 -0.0627  1.6962
   14CHL1    O3  965   6.000   0.022  10.366 -0.3522 -0.2074 -0.7130
   14CHL1   H3'  966   6.072  -0.041  10.377  0.2509  0.5099 -0.5096
   14CHL1    C4  967   5.911  -0.003  10.142  0.6222 -1.1977  0.2609
   14CHL1   H4A  968   5.911  -0.110  10.171 -0.0280 -1.0336  0.9270
   14CHL1   H4B  969   5.814   0.039  10.177  1.0835 -0.4083  0.6314
   14CHL1    C5  970   5.926   0.019   9.992 -0.5565  0.4160  0.2946
   14CHL1    C6  971   5.827   0.065   9.919  0.0531  0.1249  0.0449
   14CHL1    H6  972   5.731   0.081   9.970 -1.3973 -0.8194 -2.2182
   14CHL1    C7  973   5.824   0.094   9.769  0.3849  0.3809 -0.2626
   14CHL1   H7A  974   5.729   0.052   9.729  0.8865  0.4237 -1.5638
   14CHL1   H7B  975   5.824   0.203   9.749 -1.1902  0.3445 -0.5897
   14CHL1    C8  976   5.942   0.024   9.711  0.5682 -0.1521  0.4930
   14CHL1    H8  977   5.929  -0.086   9.719  1.7619 -0.7261 -3.3087
   14CHL1   C14  978   5.953   0.055   9.556 -0.4292  0.2186  0.1929
   14CHL1   H14  979   5.973   0.164   9.548 -4.0699  0.8975 -1.5140
   14CHL1   C15  980   5.829   0.033   9.472 -0.2573 -0.8961  0.3486
   14CHL1  H15A  981   5.763  -0.043   9.519 -0.5703 -1.5968 -1.1398
   14CHL1  H15B  982   5.771   0.128   9.470  1.5446  0.2859 -2.5696
   14CHL1   C16  983   5.879   0.003   9.338 -0.5065  0.2407 -0.2001
   14CHL1  H16A  984   5.849  -0.102   9.318  1.5503 -0.1417 -1.6571
   14CHL1  H16B  985   5.826   0.059   9.257  0.7444 -1.3804 -2.2385
   14CHL1   C17  986   6.034   0.020   9.344  0.3882 -0.3591  0.2589
   14CHL1   H17  987   6.052   0.128   9.327  2.5245 -0.6880  0.1751
   14CHL1   C13  988   6.075  -0.010   9.493 -0.3677 -0.3833  0.4224
   14CHL1   C18  989   6.069  -0.167   9.505 -0.4995  0.7574 -0.4663
   14CHL1  H18A  990   6.081  -0.211   9.607 -1.1832 -1.9992 -1.5057
   14CHL1  H18B  991   5.975  -0.211   9.466 -0.6841  0.4601  0.2872
   14CHL1  H18C  992   6.153  -0.207   9.445  0.8071 -0.7623  2.1879
   14CHL1   C12  993   6.199   0.056   9.549 -0.0390  0.4941 -0.2951
   14CHL1  H12A  994   6.285   0.004   9.500  1.0552  2.1711 -0.2558
   14CHL1  H12B  995   6.217   0.165   9.533 -0.6946  0.6150 -0.2300
   14CHL1   C11  996   6.204   0.032   9.701 -0.0497 -0.0912 -0.0922
   14CHL1  H11A  997   6.218  -0.077   9.713 -1.2914 -0.2502  0.0603
   14CHL1  H11B  998   6.290   0.079   9.753  0.0420 -1.9261  1.5261
   14CHL1    C9  999   6.078   0.059   9.786  0.3842 -0.4628 -0.2559
   14CHL1    H9 1000   6.072   0.170   9.796  1.0241 -0.3889 -0.6598
   14CHL1   C10 1001   6.070   0.010   9.933 -0.5615  0.2393  0.5019
   14CHL1   C19 1002   6.108  -0.139   9.937 -0.5135 -0.0252 -0.0448
   14CHL1  H19A 1003   6.217  -0.150   9.919 -0.4626  2.5159 -1.8618
   14CHL1  H19B 1004   6.093  -0.198  10.030 -0.2678 -1.8030 -1.0971
   14CHL1  H19C 1005   6.052  -0.196   9.860 -0.0496 -0.8109  0.1899
   14CHL1    C1 1006   6.162   0.098  10.024 -0.1530 -0.8501 -0.2212
   14CHL1   H1A 1007   6.268   0.105   9.989  0.3001  0.2476  1.2277
   14CHL1   H1B 1008   6.126   0.203  10.028 -1.5812 -1.2134 -2.2588
   14CHL1    C2 1009   6.156   0.050  10.175  0.4292 -0.1259 -0.3207
   14CHL1   H2A 1010   6.232   0.108  10.232 -0.2474 -0.2783  0.7709
   14CHL1   H2B 1011   6.171  -0.058  10.195 -0.4671  0.0092  1.2420
   14CHL1   C20 1012   6.105  -0.046   9.223  0.2594  0.0678  0.1213
   14CHL1   H20 1013   6.073  -0.152   9.228 -1.6431  0.4752 -1.8814
   14CHL1   C21 1014   6.255  -0.045   9.242  0.1211 -0.0781 -0.7502
   14CHL1  H21A 1015   6.312  -0.087   9.156 -1.0159 -2.5774 -0.3932
   14CHL1  H21B 1016   6.298  -0.098   9.331 -1.1645  2.0336  1.2403
   14CHL1  H21C 1017   6.283   0.062   9.243  1.5232 -0.4043  0.6264
   14CHL1   C22 1018   6.059   0.016   9.082 -0.2939 -0.1834 -0.5558
   14CHL1  H22A 1019   5.948   0.023   9.080 -0.2576  0.4044 -0.7307
   14CHL1  H22B 1020   6.104   0.118   9.083 -0.3161 -0.1605  1.3276
   14CHL1   C23 1021   6.100  -0.065   8.954  0.6118 -0.2245  0.4487
   14CHL1  H23A 1022   6.208  -0.090   8.959  0.3843 -1.2506  0.3502
   14CHL1  H23B 1023   6.051  -0.164   8.943 -0.2049  0.0494  1.3947
   14CHL1   C24 1024   6.067   0.021   8.830  0.2553 -0.6633  0.0404
   14CHL1  H24A 1025   6.105   0.124   8.841 -2.4598  0.3975  0.2684
   14CHL1  H24B 1026   6.109  -0.033   8.742 -2.5104 -0.5684 -1.4700
   14CHL1   C25 1027   5.919   0.042   8.794 -0.5567  0.3022 -0.6864
   14CHL1   H25 1028   5.866   0.068   8.888 -0.3710 -0.1112 -0.4623
   14CHL1   C26 1029   5.904   0.168   8.712 -0.3802  0.2060  0.2129
   14CHL1  H26A 1030   5.940   0.255   8.770 -0.7947  0.6287 -0.1586
   14CHL1  H26B 1031   5.969   0.158   8.622 -2.3973  1.8232 -1.5352
   14CHL1  H26C 1032   5.797   0.185   8.687 -0.2425  0.1133 -0.4639
   14CHL1   C27 1033   5.852  -0.076   8.721 -0.3348  0.1043  0.1034
   14CHL1  H27A 1034   5.742  -0.066   8.734 -0.8289 -2.2223 -1.6880
   14CHL1  H27B 1035   5.882  -0.074   8.614 -3.0872 -1.8193 -0.8155
   14CHL1  H27C 1036   5.884  -0.173   8.765  1.7971  1.7827  2.5170
   15CHL1    C3 1037   6.495   6.285   9.987 -0.1127  0.5557 -0.2985
   15CHL1    H3 1038   6.550   6.189   9.977 -1.2663 -0.2883  1.1531
   15CHL1    O3 1039   6.505   6.309  10.122  0.0582 -0.1969 -0.2084
   15CHL1   H3' 1040   6.598   6.324  10.139  0.2672 -0.7370 -0.8597
   15CHL1    C4 1041   6.551   6.402   9.907 -0.0938 -0.5543 -0.4819
   15CHL1   H4A 1042   6.507   6.501   9.934  1.7130  0.7143 -1.9354
   15CHL1   H4B 1043   6.661   6.413   9.920  0.3117 -0.9688 -3.0571
   15CHL1    C5 1044   6.537   6.367   9.760 -0.1108 -0.1997  0.3378
   15CHL1    C6 1045   6.644   6.357   9.675  0.4622 -0.0696 -0.6055
   15CHL1    H6 1046   6.744   6.386   9.713  0.6281 -0.0267 -1.0741
   15CHL1    C7 1047   6.642   6.316   9.527 -0.6025  0.6567 -0.0662
   15CHL1   H7A 1048   6.711   6.377   9.465 -1.4947  0.5551 -1.1869
   15CHL1   H7B 1049   6.681   6.213   9.514 -0.2436  0.7687  0.1011
   15CHL1    C8 1050   6.503   6.323   9.466  0.5782  1.0011 -0.9862
   15CHL1    H8 1051   6.484   6.431   9.453 -2.2375  0.2783 -4.2628
   15CHL1   C14 1052   6.491   6.245   9.332 -0.2787  0.1640  0.1423
   15CHL1   H14 1053   6.502   6.138   9.357  1.9012  0.6307  1.4164
   15CHL1   C15 1054   6.597   6.270   9.224 -0.3059 -0.6625 -0.5134
   15CHL1  H15A 1055   6.606   6.381   9.219 -3.2722 -0.3190  0.0952
   15CHL1  H15B 1056   6.693   6.227   9.260  1.1639  4.0113  2.1238
   15CHL1   C16 1057   6.532   6.221   9.096  0.0224 -0.6434  0.0886
   15CHL1  H16A 1058   6.569   6.285   9.013 -0.6645 -1.3013 -0.7525
   15CHL1  H16B 1059   6.571   6.121   9.066  0.0939 -0.0895 -1.7970
   15CHL1   C17 1060   6.379   6.206   9.122 -0.1414  0.4013  0.1134
   15CHL1   H17 1061   6.362   6.098   9.143 -2.1214  0.7113  0.2998
   15CHL1   C13 1062   6.357   6.267   9.268  0.1902  0.0327  0.5424
   15CHL1   C18 1063   6.324   6.414   9.239 -0.0696 -0.3117 -0.3526
   15CHL1  H18A 1064   6.408   6.460   9.183 -1.3420  1.7955 -0.6614
   15CHL1  H18B 1065   6.227   6.423   9.186 -0.1033  0.5328 -0.1607
   15CHL1  H18C 1066   6.323   6.478   9.330 -1.1558 -1.4090  0.4462
   15CHL1   C12 1067   6.242   6.198   9.357 -0.1632  0.0453  0.6447
   15CHL1  H12A 1068   6.141   6.196   9.309 -1.7669  0.5204  3.7531
   15CHL1  H12B 1069   6.273   6.091   9.355 -1.2092 -0.3719 -3.4112
   15CHL1   C11 1070   6.252   6.270   9.491  0.0139  0.0915 -0.2472
   15CHL1  H11A 1071   6.230   6.378   9.476  0.1311  0.1101 -0.2846
   15CHL1  H11B 1072   6.161   6.234   9.544 -0.7358  0.9472 -0.9170
   15CHL1    C9 1073   6.392   6.265   9.563  0.1977 -0.9746  0.4314
   15CHL1    H9 1074   6.414   6.156   9.558 -0.2091 -1.0509  0.2795
   15CHL1   C10 1075   6.393   6.325   9.704  0.5298 -0.3209 -0.3764
   15CHL1   C19 1076   6.300   6.454   9.708 -0.4108  0.2044 -0.2769
   15CHL1  H19A 1077   6.312   6.498   9.809 -0.5146 -0.4774  0.0427
   15CHL1  H19B 1078   6.349   6.521   9.634  2.1406 -0.7601  0.4484
   15CHL1  H19C 1079   6.190   6.437   9.699 -0.6199  1.4092 -0.0996
   15CHL1    C1 1080   6.337   6.224   9.811 -0.5564  0.0644  0.1917
   15CHL1   H1A 1081   6.233   6.197   9.786 -0.4705 -1.1070  0.9990
   15CHL1   H1B 1082   6.398   6.132   9.797 -2.6319 -1.6746  1.7843
   15CHL1    C2 1083   6.348   6.259   9.954  0.1326  0.0840 -0.0089
   15CHL1   H2A 1084   6.315   6.180  10.025  0.0957  0.6648  0.6329
   15CHL1   H2B 1085   6.293   6.349   9.990 -2.2484 -1.4803  0.4789
   15CHL1   C20 1086   6.277   6.236   9.006 -0.7951  0.1944 -0.2567
   15CHL1   H20 1087   6.277   6.346   8.997  1.8242  0.3960  1.1736
   15CHL1   C21 1088   6.143   6.179   9.043  0.2189 -0.6420 -0.0478
   15CHL1  H21A 1089   6.078   6.155   8.956 -1.3982  0.2623  0.8462
   15CHL1  H21B 1090   6.077   6.246   9.102 -1.1281 -2.4085  0.5262
   15CHL1  H21C 1091   6.149   6.088   9.106 -2.1937  0.2735  1.6969
   15CHL1   C22 1092   6.330   6.182   8.875  0.3675  0.0771 -0.5456
   15CHL1  H22A 1093   6.423   6.234   8.843  1.0472 -0.7424  0.0642
   15CHL1  H22B 1094   6.348   6.073   8.886 -0.1141  0.0084 -0.4032
   15CHL1   C23 1095   6.240   6.208   8.755  0.6618 -0.5119  0.3742
   15CHL1  H23A 1096   6.135   6.172   8.758  0.1045  1.0742  0.4216
   15CHL1  H23B 1097   6.235   6.316   8.728  2.6750 -0.8474 -1.7394
   15CHL1   C24 1098   6.293   6.146   8.624  0.1983  0.3288 -0.6665
   15CHL1  H24A 1099   6.401   6.172   8.610  1.0325 -1.7433  1.2881
   15CHL1  H24B 1100   6.281   6.036   8.619 -1.7464  0.5266 -1.1225
   15CHL1   C25 1101   6.212   6.184   8.503 -0.0405  0.3067  0.3300
   15CHL1   H25 1102   6.217   6.294   8.489 -1.1105  0.7164  2.5803
   15CHL1   C26 1103   6.283   6.121   8.379 -0.4633  0.7879 -0.2165
   15CHL1  H26A 1104   6.270   6.011   8.378 -1.4381  0.9045 -1.4949
   15CHL1  H26B 1105   6.254   6.160   8.279  2.8311  1.8582 -0.9076
   15CHL1  H26C 1106   6.391   6.149   8.387 -0.0171 -0.7584 -0.5570
   15CHL1   C27 1107   6.067   6.136   8.493  0.0029 -0.1039 -0.2745
   15CHL1  H27A 1108   6.007   6.189   8.570  1.5420 -2.6641  2.9641
   15CHL1  H27B 1109   6.019   6.144   8.393 -0.0827  0.2508 -0.2076
   15CHL1  H27C 1110   6.061   6.027   8.516 -0.6784 -0.0507 -0.1898
   16CHL1    C3 1111   1.517   6.165  10.266 -0.4206  0.3659  0.3369
   16CHL1    H3 1112   1.494   6.266  10.225  1.2153  1.2985  1.5878
   16CHL1    O3 1113   1.498   6.164  10.406 -0.3089  0.1067  0.0342
   16CHL1   H3' 1114   1.514   6.071  10.425  0.8108  0.2584 -0.0899
   16CHL1    C4 1115   1.411   6.072  10.204  0.2135 -0.2450  0.8445
   16CHL1   H4A 1116   1.408   5.978  10.264 -0.0515 -0.0418  1.1527
   16CHL1   H4B 1117   1.315   6.123  10.226  1.2724  1.8972  0.7009
   16CHL1    C5 1118   1.433   6.052  10.053 -0.8297 -0.4686  0.2176
   16CHL1    C6 1119   1.323   6.077   9.974  0.1180 -0.3402 -0.6055
   16CHL1    H6 1120   1.221   6.093  10.009 -0.2446 -1.7829 -0.9152
   16CHL1    C7 1121   1.337   6.078   9.828  0.3976 -0.0739 -0.4143
   16CHL1   H7A 1122   1.254   6.028   9.775  0.1072  0.5532 -0.5612
   16CHL1   H7B 1123   1.317   6.184   9.803  0.4549  0.0190 -0.0705
   16CHL1    C8 1124   1.463   6.027   9.769 -0.1364  0.0557 -0.9763
   16CHL1    H8 1125   1.455   5.916   9.777  1.1979  0.0834  2.0270
   16CHL1   C14 1126   1.476   6.073   9.627 -0.0347  0.7037 -0.9791
   16CHL1   H14 1127   1.480   6.184   9.631  0.7432  0.6446  0.3637
   16CHL1   C15 1128   1.352   6.048   9.535  0.3062 -0.4115 -0.4280
   16CHL1  H15A 1129   1.316   5.943   9.540 -1.3767  0.1311 -0.8114
   16CHL1  H15B 1130   1.273   6.123   9.552 -0.3404 -0.9557 -0.9549
   16CHL1   C16 1131   1.418   6.067   9.389 -0.1281  0.2286 -0.2753
   16CHL1  H16A 1132   1.398   5.973   9.333  0.7343 -1.0203  1.4265
   16CHL1  H16B 1133   1.371   6.156   9.341 -3.3833  0.0651  2.2926
   16CHL1   C17 1134   1.576   6.101   9.420 -0.0885 -0.4486 -0.2591
   16CHL1   H17 1135   1.563   6.208   9.447 -3.0865 -0.4590 -1.2951
   16CHL1   C13 1136   1.603   6.034   9.551  0.2851  0.4129 -0.1290
   16CHL1   C18 1137   1.611   5.880   9.528 -0.0739 -0.3417  0.3999
   16CHL1  H18A 1138   1.586   5.818   9.617  0.1933 -1.2790 -0.1699
   16CHL1  H18B 1139   1.548   5.847   9.443  1.4544  0.5679 -1.1319
   16CHL1  H18C 1140   1.715   5.861   9.494 -0.3126  1.3029 -1.4044
   16CHL1   C12 1141   1.723   6.086   9.639  1.1929 -0.1952 -0.6011
   16CHL1  H12A 1142   1.817   6.057   9.586  2.1629 -0.5802  1.2482
   16CHL1  H12B 1143   1.717   6.197   9.645 -3.1185 -0.3123  0.4689
   16CHL1   C11 1144   1.715   6.023   9.781  0.2284  0.1538  0.4886
   16CHL1  H11A 1145   1.692   5.915   9.768  0.0211  0.1537  0.8499
   16CHL1  H11B 1146   1.807   6.045   9.839  0.3609  4.5994 -1.0663
   16CHL1    C9 1147   1.586   6.066   9.856  0.4157 -0.9976 -0.7609
   16CHL1    H9 1148   1.588   6.176   9.838 -0.3243 -1.1218 -1.6958
   16CHL1   C10 1149   1.574   6.030  10.006  0.2572 -0.8391 -0.0091
   16CHL1   C19 1150   1.614   5.884  10.034  0.0351  0.0946 -0.1267
   16CHL1  H19A 1151   1.605   5.855  10.141  1.2584  2.0498  0.5628
   16CHL1  H19B 1152   1.541   5.820   9.979 -1.0956 -0.1600  1.5740
   16CHL1  H19C 1153   1.716   5.871   9.993 -0.8652 -1.0536 -2.1632
   16CHL1    C1 1154   1.668   6.126  10.078 -0.3750 -0.0180 -0.2577
   16CHL1   H1A 1155   1.775   6.106  10.054  0.3922  1.4015  1.7043
   16CHL1   H1B 1156   1.641   6.229  10.045 -0.3719 -0.7671 -2.8508
   16CHL1    C2 1157   1.662   6.131  10.231  0.0298  0.3246  0.5059
   16CHL1   H2A 1158   1.732   6.214  10.251 -0.0234  0.5166 -0.0808
   16CHL1   H2B 1159   1.698   6.035  10.274 -3.9121 -0.6163  2.1429
   16CHL1   C20 1160   1.669   6.100   9.303  0.0694  0.4596  0.5157
   16CHL1   H20 1161   1.699   5.996   9.279 -0.9291  0.2738 -0.0268
   16CHL1   C21 1162   1.803   6.168   9.330 -0.0351  0.5811 -0.5223
   16CHL1  H21A 1163   1.855   6.107   9.406 -0.0327  0.9547 -0.2215
   16CHL1  H21B 1164   1.780   6.267   9.376  1.5933  0.4841  0.5935
   16CHL1  H21C 1165   1.859   6.181   9.234 -0.7163 -0.6595 -1.1068
   16CHL1   C22 1166   1.603   6.159   9.171  0.1906  0.2973  1.0239
   16CHL1  H22A 1167   1.516   6.093   9.153 -1.0813  2.4610 -1.2409
   16CHL1  H22B 1168   1.570   6.264   9.184 -0.5555 -0.0150  1.7687
   16CHL1   C23 1169   1.691   6.148   9.044  0.2145 -0.5601  0.3878
   16CHL1  H23A 1170   1.766   6.230   9.045 -0.7058  0.3052 -0.6807
   16CHL1  H23B 1171   1.755   6.057   9.040 -0.6052 -1.1088 -1.1616
   16CHL1   C24 1172   1.608   6.164   8.914 -0.3195  0.2211 -0.3257
   16CHL1  H24A 1173   1.523   6.094   8.907 -1.6071  1.5780  0.9402
   16CHL1  H24B 1174   1.562   6.265   8.923  1.2469  0.8952  0.5352
   16CHL1   C25 1175   1.686   6.147   8.786 -1.1416  0.2145  0.6033
   16CHL1   H25 1176   1.739   6.050   8.785 -0.5233  0.5244 -0.9626
   16CHL1   C26 1177   1.600   6.153   8.654  0.2855 -0.2609  0.1040
   16CHL1  H26A 1178   1.503   6.107   8.680 -0.5799  1.6238  0.3784
   16CHL1  H26B 1179   1.576   6.261   8.642 -0.4376 -0.4591 -0.2551
   16CHL1  H26C 1180   1.654   6.106   8.569  0.2066  1.7725 -1.1270
   16CHL1   C27 1181   1.802   6.261   8.772  0.1093  0.6205  0.0892
   16CHL1  H27A 1182   1.756   6.361   8.757  0.2808  0.7599  0.4920
   16CHL1  H27B 1183   1.857   6.272   8.868 -0.1096  3.2759 -0.0184
   16CHL1  H27C 1184   1.881   6.226   8.702 -1.4670 -2.2417 -0.4188
   17CHL1    C3 1185   1.171   2.361  10.166  0.5343 -0.3426  0.0677
   17CHL1    H3 1186   1.266   2.311  10.137  1.6866  1.8347 -0.1705
   17CHL1    O3 1187   1.142   2.362  10.303 -0.1307  0.0138 -0.4659
   17CHL1   H3' 1188   1.049   2.383  10.305 -0.5694 -1.5779  2.6192
   17CHL1    C4 1189   1.162   2.500  10.107 -0.1745  0.0937  0.4897
   17CHL1   H4A 1190   1.065   2.542  10.142 -1.3478 -2.4836  0.5206
   17CHL1   H4B 1191   1.234   2.574  10.148 -0.8798 -0.6252  3.1846
   17CHL1    C5 1192   1.164   2.507   9.957  0.0712  0.5380 -0.7361
   17CHL1    C6 1193   1.265   2.570   9.895  0.4325  0.1321  0.1263
   17CHL1    H6 1194   1.349   2.619   9.947 -0.3896  2.6865 -0.7988
   17CHL1    C7 1195   1.264   2.591   9.748  0.2994  0.2379 -0.2551
   17CHL1   H7A 1196   1.279   2.698   9.724 -1.7784  1.1419  2.0249
   17CHL1   H7B 1197   1.335   2.530   9.687  0.1952 -0.1214 -0.0207
   17CHL1    C8 1198   1.126   2.560   9.689 -0.3128 -0.0949  0.2149
   17CHL1    H8 1199   1.059   2.643   9.722 -0.1315 -0.8468  2.6487
   17CHL1   C14 1200   1.137   2.555   9.538 -0.1739 -0.0751  0.1383
   17CHL1   H14 1201   1.197   2.463   9.522 -1.4571 -1.4448  2.6067
   17CHL1   C15 1202   1.218   2.663   9.457 -0.1206 -0.4268  0.3948
   17CHL1  H15A 1203   1.198   2.759   9.510 -0.2338 -0.2171 -0.0189
   17CHL1  H15B 1204   1.326   2.641   9.471  0.0217 -1.5413 -1.9602
   17CHL1   C16 1205   1.169   2.658   9.311 -0.0584  0.5710 -0.3805
   17CHL1  H16A 1206   1.130   2.760   9.291  1.9811  0.9933 -2.7354
   17CHL1  H16B 1207   1.256   2.645   9.242  0.0117 -0.7342 -0.0847
   17CHL1   C17 1208   1.062   2.540   9.312  0.8932 -0.3909 -0.4098
   17CHL1   H17 1209   1.130   2.458   9.282  0.6524 -0.6143 -0.3519
   17CHL1   C13 1210   1.009   2.527   9.461 -0.7328 -0.5023 -0.3946
   17CHL1   C18 1211   0.909   2.649   9.482  0.7407 -0.2584 -0.8872
   17CHL1  H18A 1212   0.933   2.727   9.407  1.8513 -1.6883 -2.0837
   17CHL1  H18B 1213   0.806   2.611   9.464 -0.2679  2.1011 -0.4555
   17CHL1  H18C 1214   0.902   2.692   9.584  0.9630  1.0416 -1.4027
   17CHL1   C12 1215   0.950   2.396   9.508  0.1369  0.4168 -0.6177
   17CHL1  H12A 1216   0.855   2.381   9.453 -0.3634  1.6509 -0.1308
   17CHL1  H12B 1217   1.024   2.315   9.488 -1.2327 -1.0775  0.0961
   17CHL1   C11 1218   0.927   2.397   9.666  0.4254  0.0099  0.2506
   17CHL1  H11A 1219   0.835   2.452   9.694  2.0650  2.8602  0.3949
   17CHL1  H11B 1220   0.915   2.293   9.705  0.5748  0.2692  1.0062
   17CHL1    C9 1221   1.055   2.437   9.743 -0.5788  0.4049  0.1279
   17CHL1    H9 1222   1.133   2.360   9.720 -1.0460  0.0195 -0.1729
   17CHL1   C10 1223   1.042   2.436   9.896  0.5853 -0.2769 -0.1777
   17CHL1   C19 1224   0.914   2.509   9.932  0.1124  0.7114 -0.2918
   17CHL1  H19A 1225   0.821   2.453   9.907 -0.2934  1.4923 -0.5494
   17CHL1  H19B 1226   0.905   2.521  10.042 -0.0106  0.8200 -0.3141
   17CHL1  H19C 1227   0.905   2.613   9.894  1.4349  1.5661  1.5788
   17CHL1    C1 1228   1.043   2.293   9.950 -0.3061 -0.3460  0.1866
   17CHL1   H1A 1229   0.949   2.241   9.923 -1.2108  0.6724  1.2210
   17CHL1   H1B 1230   1.119   2.239   9.890 -1.4528 -1.3786 -0.3809
   17CHL1    C2 1231   1.049   2.290  10.105  0.9990  1.0236  0.6329
   17CHL1   H2A 1232   1.058   2.184  10.138 -0.6812  0.0088 -1.8439
   17CHL1   H2B 1233   0.952   2.334  10.137  0.9147 -0.0575  1.9503
   17CHL1   C20 1234   0.949   2.555   9.209 -0.5335  1.2823  0.0025
   17CHL1   H20 1235   0.852   2.582   9.256 -1.2182  0.8352 -1.1017
   17CHL1   C21 1236   0.933   2.415   9.138  0.6814  0.0511  0.2096
   17CHL1  H21A 1237   0.939   2.343   9.223 -0.2956 -1.3818 -0.9100
   17CHL1  H21B 1238   1.017   2.389   9.070  0.7894  0.8515  0.0214
   17CHL1  H21C 1239   0.836   2.402   9.086  1.1093  1.3131 -0.9587
   17CHL1   C22 1240   0.982   2.650   9.097 -0.1471 -0.8011 -0.2332
   17CHL1  H22A 1241   0.968   2.749   9.147  2.7290 -0.9470  1.0210
   17CHL1  H22B 1242   1.086   2.634   9.062  0.0740  0.4962 -0.2276
   17CHL1   C23 1243   0.890   2.642   8.972  0.3486 -1.0680  0.1402
   17CHL1  H23A 1244   0.900   2.547   8.916 -0.8822 -1.0587 -0.1170
   17CHL1  H23B 1245   0.788   2.640   9.017  0.4910 -1.0978  0.4690
   17CHL1   C24 1246   0.895   2.767   8.876 -0.2883  0.0765  0.3103
   17CHL1  H24A 1247   0.847   2.848   8.935  2.1053  0.7458  1.4786
   17CHL1  H24B 1248   0.998   2.802   8.857 -0.5348  2.4680  2.8145
   17CHL1   C25 1249   0.828   2.740   8.741 -0.0502  0.4351  0.0226
   17CHL1   H25 1250   0.883   2.661   8.685 -1.0207  2.2299 -3.7504
   17CHL1   C26 1251   0.686   2.688   8.757  0.6198 -0.3573 -0.3752
   17CHL1  H26A 1252   0.700   2.590   8.808  1.6320 -0.0265  0.0012
   17CHL1  H26B 1253   0.619   2.754   8.817 -1.3738 -0.2189 -2.6156
   17CHL1  H26C 1254   0.635   2.677   8.659  1.6993 -0.6146 -0.9234
   17CHL1   C27 1255   0.827   2.870   8.665 -0.3753  0.2286  0.2971
   17CHL1  H27A 1256   0.743   2.869   8.592 -0.2512 -1.4476  0.1510
   17CHL1  H27B 1257   0.817   2.966   8.720 -1.8357  1.1759 -1.4787
   17CHL1  H27C 1258   0.921   2.885   8.608 -0.5849 -0.1426 -0.1558
   18CHL1    C3 1259   2.734   2.794  10.067  0.1770 -0.4346  0.4221
   18CHL1    H3 1260   2.746   2.889  10.010 -0.4228 -1.4071 -1.4180
   18CHL1    O3 1261   2.735   2.807  10.207  0.0515 -0.1750 -0.5217
   18CHL1   H3' 1262   2.659   2.863  10.228 -0.7261 -1.3243 -0.1824
   18CHL1    C4 1263   2.595   2.736  10.018 -0.0759  0.0446 -0.7822
   18CHL1   H4A 1264   2.598   2.638  10.070  1.2954  0.8262  0.6881
   18CHL1   H4B 1265   2.524   2.810  10.061  0.8235 -0.3094  1.4699
   18CHL1    C5 1266   2.584   2.709   9.875  0.4758 -0.4362 -0.3370
   18CHL1    C6 1267   2.475   2.750   9.796 -0.5433  0.7010 -0.5667
   18CHL1    H6 1268   2.384   2.799   9.835  0.4678  1.5231  0.8833
   18CHL1    C7 1269   2.467   2.722   9.644  0.4550 -0.2463 -0.8580
   18CHL1   H7A 1270   2.369   2.683   9.611  0.1568 -2.6004  2.3069
   18CHL1   H7B 1271   2.475   2.824   9.600  0.9439  0.0693 -0.0649
   18CHL1    C8 1272   2.581   2.639   9.587  0.2354 -0.2231 -0.7483
   18CHL1    H8 1273   2.548   2.536   9.612 -1.6428  0.2037 -1.2823
   18CHL1   C14 1274   2.601   2.660   9.442  0.6024 -0.1699  0.8691
   18CHL1   H14 1275   2.627   2.762   9.408 -1.5143 -0.2167 -1.1741
   18CHL1   C15 1276   2.470   2.634   9.355 -0.4887  0.1746 -0.7346
   18CHL1  H15A 1277   2.430   2.538   9.393  2.1177 -0.5146  0.4237
   18CHL1  H15B 1278   2.399   2.719   9.368 -0.7110  0.0744 -1.2423
   18CHL1   C16 1279   2.521   2.609   9.212 -0.3356  0.2685 -0.2046
   18CHL1  H16A 1280   2.485   2.508   9.185 -2.8250  0.8800  0.5369
   18CHL1  H16B 1281   2.477   2.676   9.135 -0.8595 -0.5733 -0.6541
   18CHL1   C17 1282   2.676   2.597   9.224  1.2066 -0.6383  0.2992
   18CHL1   H17 1283   2.706   2.698   9.190  0.2333 -0.4699 -0.1120
   18CHL1   C13 1284   2.708   2.575   9.374  0.5320  0.2470 -1.0685
   18CHL1   C18 1285   2.690   2.424   9.406 -0.7072 -0.1751 -0.3555
   18CHL1  H18A 1286   2.674   2.389   9.511 -0.1317 -0.5016 -0.3747
   18CHL1  H18B 1287   2.602   2.387   9.350 -0.8411  0.4721 -0.5811
   18CHL1  H18C 1288   2.776   2.365   9.368 -0.4559 -2.1487  2.8673
   18CHL1   C12 1289   2.841   2.623   9.435 -0.1263 -1.1004 -0.5921
   18CHL1  H12A 1290   2.922   2.572   9.379  0.1373 -1.2285 -0.1075
   18CHL1  H12B 1291   2.848   2.729   9.401  0.3177 -0.9872 -0.1681
   18CHL1   C11 1292   2.845   2.608   9.590  0.0556  0.4965 -0.1471
   18CHL1  H11A 1293   2.861   2.501   9.616 -1.3505  0.4283  0.5172
   18CHL1  H11B 1294   2.934   2.664   9.628 -0.2534  0.4043  0.7455
   18CHL1    C9 1295   2.715   2.666   9.660  0.2623  0.6163  0.1028
   18CHL1    H9 1296   2.723   2.777   9.654  0.5446  0.6547  1.0164
   18CHL1   C10 1297   2.709   2.646   9.813 -0.0952  0.0236 -0.1657
   18CHL1   C19 1298   2.698   2.490   9.850  0.0967 -0.0330 -0.2652
   18CHL1  H19A 1299   2.604   2.452   9.805 -2.2215  1.5756  2.8471
   18CHL1  H19B 1300   2.784   2.428   9.817  1.3068  1.2922  0.2836
   18CHL1  H19C 1301   2.694   2.466   9.958 -0.6826 -0.7325 -0.4409
   18CHL1    C1 1302   2.847   2.697   9.869 -0.3630 -0.5997 -0.4798
   18CHL1   H1A 1303   2.938   2.641   9.837 -0.5161 -1.3152  0.2957
   18CHL1   H1B 1304   2.855   2.802   9.835  0.1592 -0.7757 -0.9121
   18CHL1    C2 1305   2.848   2.699  10.026 -0.1942  0.3214  0.1242
   18CHL1   H2A 1306   2.949   2.728  10.062  0.5492 -2.9034  1.0035
   18CHL1   H2B 1307   2.828   2.597  10.067 -0.7862 -0.3578 -1.7322
   18CHL1   C20 1308   2.731   2.501   9.116  0.0617 -0.0546  0.0857
   18CHL1   H20 1309   2.706   2.398   9.149 -1.1384  0.4493  0.8146
   18CHL1   C21 1310   2.884   2.511   9.114  0.3207 -0.7161 -0.1789
   18CHL1  H21A 1311   2.923   2.615   9.112  1.5160 -1.1143  1.1726
   18CHL1  H21B 1312   2.926   2.454   9.028 -0.6242 -1.0593 -0.4256
   18CHL1  H21C 1313   2.930   2.470   9.206 -0.4418 -0.0646  0.5071
   18CHL1   C22 1314   2.677   2.527   8.976  0.0706  0.2543 -0.4119
   18CHL1  H22A 1315   2.568   2.546   8.981  0.2211  0.7648  2.0623
   18CHL1  H22B 1316   2.722   2.626   8.952  1.7463  0.3294  2.5441
   18CHL1   C23 1317   2.707   2.419   8.871  0.4876 -0.0996  0.0452
   18CHL1  H23A 1318   2.817   2.413   8.858  0.8114  1.4266  1.7064
   18CHL1  H23B 1319   2.665   2.323   8.911  0.5562  0.3668  1.2976
   18CHL1   C24 1320   2.641   2.461   8.732 -0.0697 -0.0280  0.0074
   18CHL1  H24A 1321   2.532   2.443   8.748  0.2423 -1.7200  0.3644
   18CHL1  H24B 1322   2.642   2.572   8.722  1.0283 -0.1095 -0.9314
   18CHL1   C25 1323   2.693   2.393   8.609 -0.2010  0.6576 -0.5431
   18CHL1   H25 1324   2.802   2.376   8.624 -0.1209  1.3750 -0.3019
   18CHL1   C26 1325   2.629   2.257   8.587 -0.0965  0.1163  0.2479
   18CHL1  H26A 1326   2.695   2.190   8.528  1.6482  0.5132  1.6736
   18CHL1  H26B 1327   2.599   2.196   8.674  1.0901 -0.4286  0.2944
   18CHL1  H26C 1328   2.540   2.276   8.523  1.6934  1.7349 -1.9390
   18CHL1   C27 1329   2.666   2.472   8.482 -0.7228  0.0082 -0.5642
   18CHL1  H27A 1330   2.562   2.505   8.465 -1.2446 -0.9342  0.6567
   18CHL1  H27B 1331   2.719   2.568   8.462  0.1517 -0.2588  0.3720
   18CHL1  H27C 1332   2.692   2.404   8.398 -2.5297  0.8823 -1.8759
   19CHL1    C3 1333   6.123   4.399   9.920 -0.1624  0.1330 -0.2154
   19CHL1    H3 1334   6.085   4.496   9.880 -0.3595 -0.2381 -0.9532
   19CHL1    O3 1335   6.078   4.386  10.052 -0.6891  0.4395  0.0515
   19CHL1   H3' 1336   6.092   4.294  10.076  0.1301 -0.2200 -2.6038
   19CHL1    C4 1337   6.064   4.285   9.836 -0.1399 -0.3865 -0.3661
   19CHL1   H4A 1338   6.106   4.194   9.883  0.6796  1.6216  3.0917
   19CHL1   H4B 1339   5.953   4.282   9.841 -0.1688 -3.7385 -0.8569
   19CHL1    C5 1340   6.109   4.290   9.692  0.2137 -0.4775 -1.1363
   19CHL1    C6 1341   6.020   4.282   9.597  0.1749 -0.3053 -0.6639
   19CHL1    H6 1342   5.914   4.269   9.622  0.2920 -0.9031 -0.4753
   19CHL1    C7 1343   6.054   4.284   9.455 -0.2098  0.3583  0.1698
   19CHL1   H7A 1344   6.009   4.197   9.402  0.4979  0.6214 -0.9031
   19CHL1   H7B 1345   6.012   4.374   9.403  0.4776  0.4561 -0.2260
   19CHL1    C8 1346   6.207   4.278   9.423 -0.5338 -0.2251 -0.9898
   19CHL1    H8 1347   6.242   4.173   9.437 -1.2516 -0.3499 -0.0335
   19CHL1   C14 1348   6.238   4.322   9.278 -0.0187  0.5314 -0.2112
   19CHL1   H14 1349   6.189   4.421   9.271  0.3443  0.8538  1.3245
   19CHL1   C15 1350   6.176   4.245   9.157 -0.2250 -0.2116  0.2131
   19CHL1  H15A 1351   6.201   4.139   9.180 -0.7089  0.0984  2.4181
   19CHL1  H15B 1352   6.070   4.276   9.165 -0.1075 -0.0939  1.5717
   19CHL1   C16 1353   6.249   4.295   9.040  0.1346 -0.1570  0.3651
   19CHL1  H16A 1354   6.287   4.207   8.984  1.5103  1.3430 -1.1884
   19CHL1  H16B 1355   6.190   4.366   8.979  0.7796 -0.5534 -0.7451
   19CHL1   C17 1356   6.370   4.380   9.099  0.1084  0.0178  0.5806
   19CHL1   H17 1357   6.342   4.487   9.107  1.0880  0.2509  1.1665
   19CHL1   C13 1358   6.387   4.340   9.248  0.3731 -0.2859  0.4837
   19CHL1   C18 1359   6.455   4.204   9.236  0.2037 -0.2229 -0.3828
   19CHL1  H18A 1360   6.452   4.146   9.331 -2.1854 -0.0589 -0.2971
   19CHL1  H18B 1361   6.407   4.137   9.162 -0.6629  0.9115 -0.8712
   19CHL1  H18C 1362   6.561   4.209   9.204  0.1038 -0.6110 -0.7749
   19CHL1   C12 1363   6.454   4.433   9.343  0.0854  0.1439  0.2429
   19CHL1  H12A 1364   6.562   4.446   9.318 -0.0633 -0.7900 -1.0030
   19CHL1  H12B 1365   6.421   4.539   9.337  0.0417  0.0384 -2.9372
   19CHL1   C11 1366   6.440   4.376   9.486  0.2717  0.2565  0.5911
   19CHL1  H11A 1367   6.490   4.278   9.494  0.0537  0.1477  0.6175
   19CHL1  H11B 1368   6.486   4.444   9.561  0.9357 -0.2922  0.6809
   19CHL1    C9 1369   6.288   4.362   9.520  0.1166 -0.0503 -0.5258
   19CHL1    H9 1370   6.245   4.464   9.514 -1.5774 -0.6377  1.0374
   19CHL1   C10 1371   6.261   4.318   9.668 -0.0196  0.5146 -0.0851
   19CHL1   C19 1372   6.345   4.187   9.710  0.6137 -0.2125 -0.6719
   19CHL1  H19A 1373   6.295   4.095   9.672 -0.2349 -0.2049  0.3720
   19CHL1  H19B 1374   6.449   4.201   9.676  1.8163 -1.4337  2.2148
   19CHL1  H19C 1375   6.349   4.172   9.820 -1.3871 -1.0310 -0.6512
   19CHL1    C1 1376   6.310   4.435   9.765 -1.0696 -0.5480 -0.0755
   19CHL1   H1A 1377   6.420   4.442   9.746 -1.1487 -1.6967 -1.0014
   19CHL1   H1B 1378   6.270   4.533   9.731  1.9593 -0.1139 -2.8664
   19CHL1    C2 1379   6.280   4.408   9.914  0.8629 -0.1704  0.5564
   19CHL1   H2A 1380   6.307   4.497   9.975  2.5018 -1.5065  1.8908
   19CHL1   H2B 1381   6.333   4.323   9.961 -1.1822 -1.3085  0.9354
   19CHL1   C20 1382   6.489   4.377   9.001 -0.0302 -0.0807  0.1538
   19CHL1   H20 1383   6.536   4.276   9.009  0.9706  0.3620  0.0056
   19CHL1   C21 1384   6.590   4.487   9.046  0.3803 -0.0590  0.4625
   19CHL1  H21A 1385   6.667   4.511   8.971  0.7324 -1.4147  0.3519
   19CHL1  H21B 1386   6.643   4.448   9.136 -0.5015  0.8126  1.3980
   19CHL1  H21C 1387   6.536   4.582   9.066  0.4061  0.1475 -0.4149
   19CHL1   C22 1388   6.440   4.394   8.851 -0.3272  0.3224 -0.3404
   19CHL1  H22A 1389   6.356   4.330   8.816  0.1807 -0.0259 -0.9397
   19CHL1  H22B 1390   6.411   4.500   8.835 -1.7868  0.1982  1.1394
   19CHL1   C23 1391   6.553   4.367   8.756  0.3963  0.9160  0.8573
   19CHL1  H23A 1392   6.653   4.406   8.784  1.4136 -0.5800 -0.4711
   19CHL1  H23B 1393   6.570   4.257   8.764 -0.7630  0.6856  0.3789
   19CHL1   C24 1394   6.515   4.399   8.612 -0.2539 -0.6622  0.2357
   19CHL1  H24A 1395   6.586   4.351   8.541 -0.4810  2.8169 -2.5861
   19CHL1  H24B 1396   6.415   4.367   8.577  0.0841 -2.6918  0.9601
   19CHL1   C25 1397   6.512   4.546   8.568  0.0417  0.2105 -0.3715
   19CHL1   H25 1398   6.435   4.587   8.637  0.7766  0.5902  0.2286
   19CHL1   C26 1399   6.635   4.628   8.606  0.3273 -0.3271 -0.2322
   19CHL1  H26A 1400   6.713   4.605   8.530  0.4189  0.2641 -0.3273
   19CHL1  H26B 1401   6.603   4.734   8.596  0.6461 -0.2772 -0.7540
   19CHL1  H26C 1402   6.663   4.615   8.713 -1.2401  4.5276  1.0368
   19CHL1   C27 1403   6.457   4.575   8.421 -1.1187  0.7459 -0.7232
   19CHL1  H27A 1404   6.428   4.683   8.424  0.0002  1.0419 -0.3250
   19CHL1  H27B 1405   6.538   4.563   8.346 -0.6001 -1.6110  0.1239
   19CHL1  H27C 1406   6.366   4.515   8.399 -1.8075  1.8797 -1.0412
   20CHL1    C3 1407   3.008   0.458  10.420 -0.2097  0.9082  0.7473
   20CHL1    H3 1408   3.107   0.508  10.435  0.5636 -0.8383  1.8317
   20CHL1    O3 1409   2.965   0.418  10.547 -0.3812  0.4361  0.5113
   20CHL1   H3' 1410   2.899   0.351  10.527 -2.2580  1.4840  2.6780
   20CHL1    C4 1411   2.906   0.544  10.336 -0.1883  0.3223  0.1201
   20CHL1   H4A 1412   2.809   0.492  10.327  0.3027 -0.5130 -0.4416
   20CHL1   H4B 1413   2.883   0.628  10.405 -1.3510 -1.8298  2.5246
   20CHL1    C5 1414   2.982   0.585  10.208 -0.0114  0.4168 -0.9048
   20CHL1    C6 1415   3.012   0.712  10.188  0.1191 -0.1304  0.4542
   20CHL1    H6 1416   2.985   0.785  10.266 -0.1111 -0.4126  0.6422
   20CHL1    C7 1417   3.081   0.762  10.064  0.0526  0.1346 -0.3610
   20CHL1   H7A 1418   3.030   0.851  10.020 -1.1238 -0.4278 -0.1810
   20CHL1   H7B 1419   3.188   0.770  10.093 -0.2410 -0.6421  1.0140
   20CHL1    C8 1420   3.072   0.652   9.958  1.2368 -0.1246  0.2764
   20CHL1    H8 1421   2.970   0.650   9.913  1.8466  0.3936 -1.2059
   20CHL1   C14 1422   3.169   0.689   9.846 -0.6482  0.1897 -0.5560
   20CHL1   H14 1423   3.271   0.693   9.889 -1.6193 -0.2433  1.9537
   20CHL1   C15 1424   3.153   0.829   9.779  0.5786  0.0536  0.0578
   20CHL1  H15A 1425   3.043   0.842   9.769  0.7974  1.9017 -0.3128
   20CHL1  H15B 1426   3.195   0.913   9.839  1.9360 -1.8957  1.9491
   20CHL1   C16 1427   3.219   0.805   9.642 -0.0141  0.4157  0.4848
   20CHL1  H16A 1428   3.142   0.818   9.564  2.1882  0.8709 -1.7472
   20CHL1  H16B 1429   3.308   0.869   9.624  1.9113 -1.8673  1.2854
   20CHL1   C17 1430   3.270   0.658   9.630 -0.3561 -0.5679  0.6435
   20CHL1   H17 1431   3.373   0.673   9.668 -0.2143  0.0615  0.0344
   20CHL1   C13 1432   3.181   0.582   9.731  0.7744  0.1294 -0.0015
   20CHL1   C18 1433   3.041   0.563   9.675 -0.1064 -0.1045 -0.1242
   20CHL1  H18A 1434   2.991   0.653   9.633  0.8606  0.2942 -0.4587
   20CHL1  H18B 1435   3.036   0.487   9.594 -3.6899 -1.2593  0.9880
   20CHL1  H18C 1436   2.967   0.517   9.743  0.0337  1.6540  1.2879
   20CHL1   C12 1437   3.236   0.452   9.791 -0.6081 -0.1693 -0.1668
   20CHL1  H12A 1438   3.244   0.380   9.707 -1.1416 -1.3773  0.7976
   20CHL1  H12B 1439   3.331   0.484   9.839 -1.2332  0.8009  0.4606
   20CHL1   C11 1440   3.144   0.399   9.904  0.1330 -0.7596  0.5089
   20CHL1  H11A 1441   3.057   0.351   9.855 -0.6992  0.0048  1.2071
   20CHL1  H11B 1442   3.202   0.316   9.950  0.7577 -0.2288  0.6885
   20CHL1    C9 1443   3.112   0.507  10.010 -0.0422 -0.4637 -0.3033
   20CHL1    H9 1444   3.207   0.531  10.062 -1.0980  0.9379  1.0623
   20CHL1   C10 1445   3.011   0.463  10.124  0.3341  0.6117  0.5865
   20CHL1   C19 1446   2.879   0.413  10.060 -0.2099  0.0104 -0.3822
   20CHL1  H19A 1447   2.831   0.489   9.995  2.2954  0.0872 -2.2938
   20CHL1  H19B 1448   2.906   0.322  10.002  0.6806 -0.1639  0.2852
   20CHL1  H19C 1449   2.813   0.384  10.144 -0.9061  2.3782 -0.0509
   20CHL1    C1 1450   3.075   0.348  10.202  0.0968  0.9156 -0.1211
   20CHL1   H1A 1451   3.077   0.246  10.157 -2.2134 -0.2262  2.1287
   20CHL1   H1B 1452   3.181   0.374  10.222  0.8949 -1.0821 -1.4209
   20CHL1    C2 1453   3.014   0.321  10.339  0.0871  0.1724  0.0118
   20CHL1   H2A 1454   3.082   0.252  10.395  0.0825 -0.0381 -0.2409
   20CHL1   H2B 1455   2.910   0.284  10.328 -0.8019  2.1855  1.1857
   20CHL1   C20 1456   3.278   0.617   9.476 -0.1049 -0.7871 -0.0834
   20CHL1   H20 1457   3.176   0.630   9.435 -0.6842 -1.6323  1.0418
   20CHL1   C21 1458   3.316   0.467   9.461  0.2318 -0.7122  0.5087
   20CHL1  H21A 1459   3.406   0.448   9.523  0.2269  0.1092  0.7899
   20CHL1  H21B 1460   3.329   0.433   9.357 -2.9933  1.1649 -0.6580
   20CHL1  H21C 1461   3.242   0.400   9.510 -0.7941 -0.5274 -0.7238
   20CHL1   C22 1462   3.371   0.710   9.397 -0.2351  0.2147  0.3053
   20CHL1  H22A 1463   3.360   0.819   9.419  1.3742  0.2206  1.2448
   20CHL1  H22B 1464   3.474   0.679   9.423  0.8364 -1.1670 -4.5563
   20CHL1   C23 1465   3.357   0.701   9.245 -0.3156 -0.1374  0.4486
   20CHL1  H23A 1466   3.341   0.594   9.218  1.6387 -0.4072  0.2595
   20CHL1  H23B 1467   3.272   0.758   9.202  0.7699 -0.5533 -2.4504
   20CHL1   C24 1468   3.485   0.755   9.179 -0.6582 -0.5105  0.1180
   20CHL1  H24A 1469   3.468   0.865   9.179 -0.4127 -0.4114 -2.3811
   20CHL1  H24B 1470   3.570   0.724   9.243 -0.4579  1.5541  0.9287
   20CHL1   C25 1471   3.489   0.716   9.035 -0.2734 -0.0825 -0.8263
   20CHL1   H25 1472   3.490   0.605   9.025  2.7507 -0.1406 -0.6901
   20CHL1   C26 1473   3.373   0.774   8.955  0.1804  0.0459 -0.5527
   20CHL1  H26A 1474   3.287   0.712   8.991 -0.4745  0.0422 -2.0587
   20CHL1  H26B 1475   3.347   0.881   8.963 -3.3691 -0.6909 -0.3563
   20CHL1  H26C 1476   3.397   0.756   8.848 -0.4861 -1.2286 -0.5144
   20CHL1   C27 1477   3.619   0.770   8.976 -0.2329 -0.1599 -0.5581
   20CHL1  H27A 1478   3.628   0.747   8.868 -0.1043 -2.0560 -0.1737
   20CHL1  H27B 1479   3.606   0.880   8.977  3.0009  0.3537  2.0123
   20CHL1  H27C 1480   3.714   0.748   9.029 -0.2674  1.2772  0.1640
   21CHL1    C3 1481   0.543   1.297  10.126 -0.0638 -0.6268  0.4681
   21CHL1    H3 1482   0.438   1.330  10.112 -0.9146 -1.6793  3.5115
   21CHL1    O3 1483   0.566   1.249  10.255  0.7629  0.5988 -0.5530
   21CHL1   H3' 1484   0.653   1.280  10.280 -0.1627  1.2348  2.1521
   21CHL1    C4 1485   0.568   1.169  10.038  0.4697 -0.2780 -0.6993
   21CHL1   H4A 1486   0.667   1.130  10.071  0.7141  1.0153  0.1760
   21CHL1   H4B 1487   0.492   1.101  10.082 -1.0819  0.9837 -1.3090
   21CHL1    C5 1488   0.566   1.190   9.895 -0.3556 -0.0636  0.5045
   21CHL1    C6 1489   0.487   1.111   9.817  0.4426  0.4933  0.3410
   21CHL1    H6 1490   0.431   1.032   9.869  2.5690 -0.1806  1.7396
   21CHL1    C7 1491   0.478   1.123   9.674  0.0896  0.3834  0.6938
   21CHL1   H7A 1492   0.473   1.027   9.617 -0.5048  1.6702 -1.5236
   21CHL1   H7B 1493   0.379   1.170   9.661 -0.2780 -0.6814 -0.5961
   21CHL1    C8 1494   0.582   1.215   9.606  0.7494  0.0349 -0.1694
   21CHL1    H8 1495   0.675   1.155   9.596  0.1575 -1.0146  0.4033
   21CHL1   C14 1496   0.551   1.252   9.462 -0.1645  0.6566  0.2328
   21CHL1   H14 1497   0.463   1.319   9.466 -0.7542 -0.0206 -0.9312
   21CHL1   C15 1498   0.511   1.140   9.357 -0.4396  0.0531  0.2713
   21CHL1  H15A 1499   0.566   1.045   9.370  0.9493  0.8325  0.2472
   21CHL1  H15B 1500   0.400   1.133   9.366 -0.5667  3.0108  2.8661
   21CHL1   C16 1501   0.529   1.214   9.224 -0.3994 -0.2631  1.1964
   21CHL1  H16A 1502   0.606   1.158   9.167  0.3217  0.0175  1.8797
   21CHL1  H16B 1503   0.434   1.224   9.166  0.0465 -1.8802  0.1000
   21CHL1   C17 1504   0.581   1.364   9.245  0.3290  0.4902  0.4532
   21CHL1   H17 1505   0.494   1.432   9.251 -0.2950 -0.2305 -0.1696
   21CHL1   C13 1506   0.652   1.340   9.380 -0.0617 -0.4480 -0.2711
   21CHL1   C18 1507   0.785   1.269   9.350 -0.7356 -0.7577  0.5303
   21CHL1  H18A 1508   0.785   1.186   9.277  0.1797  0.0442 -0.4011
   21CHL1  H18B 1509   0.855   1.350   9.321  0.7137 -1.6555  1.3791
   21CHL1  H18C 1510   0.831   1.227   9.442  1.4782 -2.0134 -1.0651
   21CHL1   C12 1511   0.661   1.468   9.470 -0.0013  0.3627  0.7481
   21CHL1  H12A 1512   0.735   1.538   9.426 -0.2462 -0.4347 -1.0322
   21CHL1  H12B 1513   0.560   1.515   9.471 -0.0263  0.3855 -0.6925
   21CHL1   C11 1514   0.701   1.437   9.615 -0.0194  1.2065 -0.7036
   21CHL1  H11A 1515   0.804   1.395   9.611 -0.9108 -1.2828  0.2360
   21CHL1  H11B 1516   0.706   1.537   9.662  0.1368  1.1737 -0.6487
   21CHL1    C9 1517   0.607   1.343   9.694  0.1708  0.7408 -0.6392
   21CHL1    H9 1518   0.511   1.398   9.693 -1.7601 -2.3542 -0.1833
   21CHL1   C10 1519   0.648   1.312   9.842 -0.0228 -0.3095  0.6431
   21CHL1   C19 1520   0.800   1.269   9.845 -0.3410 -0.0333  0.5825
   21CHL1  H19A 1521   0.822   1.191   9.769  0.9267  0.7348  0.1433
   21CHL1  H19B 1522   0.870   1.355   9.843 -0.8741  0.4077 -2.1918
   21CHL1  H19C 1523   0.828   1.224   9.943  1.8974 -0.2423 -0.1018
   21CHL1    C1 1524   0.626   1.438   9.937 -0.1765 -0.6885 -0.0742
   21CHL1   H1A 1525   0.683   1.529   9.907 -4.5230  2.3249 -0.2148
   21CHL1   H1B 1526   0.531   1.487   9.906  1.5874  1.9843 -1.6612
   21CHL1    C2 1527   0.634   1.407  10.087  0.0390 -0.1389 -0.2100
   21CHL1   H2A 1528   0.610   1.503  10.138 -0.6288 -2.1906  3.7551
   21CHL1   H2B 1529   0.739   1.376  10.102 -0.3642 -1.1723  0.6965
   21CHL1   C20 1530   0.661   1.407   9.125  0.0724  0.0213 -0.7595
   21CHL1   H20 1531   0.753   1.346   9.113  0.7040  0.6951  0.5391
   21CHL1   C21 1532   0.703   1.548   9.145  0.5653 -0.1237  0.7879
   21CHL1  H21A 1533   0.777   1.557   9.227  0.6674  1.2476  0.5556
   21CHL1  H21B 1534   0.612   1.609   9.166 -0.1818 -0.4974 -1.1152
   21CHL1  H21C 1535   0.747   1.594   9.054  0.8911 -1.2860  0.3394
   21CHL1   C22 1536   0.582   1.385   8.989  0.3497  0.7933  0.9786
   21CHL1  H22A 1537   0.530   1.288   8.978 -1.1536  1.6591 -0.0635
   21CHL1  H22B 1538   0.494   1.453   8.993  0.2918  0.6858  3.2202
   21CHL1   C23 1539   0.661   1.424   8.862  0.1844  1.0176 -0.7150
   21CHL1  H23A 1540   0.680   1.533   8.853  4.5635  0.6097  1.0256
   21CHL1  H23B 1541   0.764   1.382   8.871  0.6767  1.2749 -3.8797
   21CHL1   C24 1542   0.606   1.369   8.733 -0.1364  0.2551  0.2976
   21CHL1  H24A 1543   0.683   1.358   8.654  0.2978 -0.6005  0.8269
   21CHL1  H24B 1544   0.568   1.268   8.758  1.2711  0.1036  2.0165
   21CHL1   C25 1545   0.484   1.438   8.667  0.3886  0.7860 -0.8309
   21CHL1   H25 1546   0.406   1.425   8.745  0.3575  3.0759 -0.4010
   21CHL1   C26 1547   0.496   1.584   8.625  0.2641 -0.5870 -0.7337
   21CHL1  H26A 1548   0.584   1.578   8.558  1.6357  2.5563  0.5504
   21CHL1  H26B 1549   0.408   1.623   8.571  0.1669  0.5849  0.2217
   21CHL1  H26C 1550   0.514   1.647   8.716 -0.1507 -1.8078  0.2191
   21CHL1   C27 1551   0.437   1.364   8.542 -1.2154 -0.0462  0.0914
   21CHL1  H27A 1552   0.418   1.259   8.572 -0.5502  0.3476  2.0221
   21CHL1  H27B 1553   0.343   1.400   8.496 -0.6009  1.7588  0.1598
   21CHL1  H27C 1554   0.519   1.364   8.467 -0.9470 -0.0736  0.3837
   22CHL1    C3 1555   0.417   2.289  10.018  0.4496  0.1039  0.1715
   22CHL1    H3 1556   0.361   2.385  10.026  1.8907  1.0775 -0.8822
   22CHL1    O3 1557   0.438   2.249  10.154  0.0170  0.2708  0.3322
   22CHL1   H3' 1558   0.350   2.233  10.188  0.2623 -0.3492  0.6930
   22CHL1    C4 1559   0.367   2.176   9.929  0.0918 -0.4930 -0.5028
   22CHL1   H4A 1560   0.456   2.112   9.945  1.1342  0.5981 -1.6898
   22CHL1   H4B 1561   0.275   2.140   9.981  0.4878 -1.0984 -0.2128
   22CHL1    C5 1562   0.343   2.203   9.786 -0.2944  0.2103  0.1169
   22CHL1    C6 1563   0.215   2.202   9.737 -0.6249 -0.4150 -0.0834
   22CHL1    H6 1564   0.132   2.166   9.799 -1.6990  0.3618 -1.0329
   22CHL1    C7 1565   0.191   2.242   9.594 -0.1421 -1.0139 -0.2047
   22CHL1   H7A 1566   0.120   2.173   9.545 -1.0528 -0.4634  0.3059
   22CHL1   H7B 1567   0.138   2.339   9.594  0.1555 -0.7873  2.0657
   22CHL1    C8 1568   0.321   2.252   9.511  0.0127  0.1267 -0.0692
   22CHL1    H8 1569   0.359   2.148   9.510 -2.1802 -0.8530  3.0829
   22CHL1   C14 1570   0.279   2.314   9.382 -0.2807 -0.6273 -0.0289
   22CHL1   H14 1571   0.233   2.408   9.417 -0.0256  0.1864 -1.7753
   22CHL1   C15 1572   0.174   2.249   9.298  0.6069 -0.1943  0.4349
   22CHL1  H15A 1573   0.170   2.139   9.307 -1.6985 -0.1377  0.5369
   22CHL1  H15B 1574   0.074   2.291   9.320  1.5942  1.2139  2.5864
   22CHL1   C16 1575   0.202   2.299   9.147  0.3483  0.2086 -0.3019
   22CHL1  H16A 1576   0.203   2.216   9.073  0.3231 -1.1799  1.1956
   22CHL1  H16B 1577   0.116   2.367   9.131 -0.1926 -0.6582 -1.1949
   22CHL1   C17 1578   0.322   2.398   9.160 -0.0643  0.0264 -0.7149
   22CHL1   H17 1579   0.272   2.492   9.191  2.2427  1.6720 -1.7303
   22CHL1   C13 1580   0.393   2.362   9.289  0.4839  0.8308  0.0578
   22CHL1   C18 1581   0.466   2.233   9.243 -0.5919  0.6511 -0.0427
   22CHL1  H18A 1582   0.482   2.166   9.330  3.8845  0.4115 -0.8222
   22CHL1  H18B 1583   0.406   2.166   9.178  1.0122  0.0513 -0.9579
   22CHL1  H18C 1584   0.556   2.267   9.188 -1.2619  0.5086 -1.2653
   22CHL1   C12 1585   0.489   2.445   9.366  0.6009 -1.1024  0.0183
   22CHL1  H12A 1586   0.581   2.466   9.308  2.0162  1.2826  2.8221
   22CHL1  H12B 1587   0.447   2.541   9.402  1.6525 -0.6325  0.0351
   22CHL1   C11 1588   0.542   2.376   9.489 -0.2988 -0.7057 -0.9928
   22CHL1  H11A 1589   0.604   2.288   9.460  0.0639 -1.2919  1.3162
   22CHL1  H11B 1590   0.616   2.444   9.536 -2.5039  0.3820  1.1257
   22CHL1    C9 1591   0.428   2.332   9.581 -0.5072 -0.1667  0.8040
   22CHL1    H9 1592   0.376   2.429   9.598 -0.2406  0.7286 -2.5956
   22CHL1   C10 1593   0.473   2.272   9.712  0.2996  0.3332 -0.2729
   22CHL1   C19 1594   0.578   2.163   9.687 -0.4397  0.9755 -0.1654
   22CHL1  H19A 1595   0.542   2.087   9.614  4.4025  0.2373 -2.1097
   22CHL1  H19B 1596   0.667   2.219   9.652  1.0397 -0.2713  1.3992
   22CHL1  H19C 1597   0.615   2.110   9.778 -0.4556 -0.0324 -0.7244
   22CHL1    C1 1598   0.540   2.377   9.810  0.0634  0.2639  0.7099
   22CHL1   H1A 1599   0.646   2.394   9.780  0.7124  0.0649  2.6966
   22CHL1   H1B 1600   0.477   2.468   9.807  0.8150  0.8068  1.0473
   22CHL1    C2 1601   0.553   2.336   9.962  0.4488  0.6256  0.2074
   22CHL1   H2A 1602   0.591   2.421  10.022 -0.6076 -0.2301  2.1944
   22CHL1   H2B 1603   0.630   2.256   9.963 -0.4333 -0.2368  1.6272
   22CHL1   C20 1604   0.398   2.425   9.029 -0.2459  0.4569  0.1971
   22CHL1   H20 1605   0.445   2.333   8.989 -1.2214  0.5408 -1.2399
   22CHL1   C21 1606   0.507   2.542   9.037  0.4549  0.2577 -0.4320
   22CHL1  H21A 1607   0.461   2.637   9.074  2.9732  0.7615  1.7169
   22CHL1  H21B 1608   0.550   2.555   8.936 -0.9823  1.5594 -0.9179
   22CHL1  H21C 1609   0.596   2.521   9.100  1.0967 -0.8695 -1.6693
   22CHL1   C22 1610   0.297   2.462   8.916  0.7549 -0.2287  0.8995
   22CHL1  H22A 1611   0.213   2.390   8.923  1.8718 -1.4126  3.9164
   22CHL1  H22B 1612   0.258   2.562   8.946 -0.4772 -1.0454  2.1860
   22CHL1   C23 1613   0.350   2.465   8.774 -0.1742 -0.1563  0.4468
   22CHL1  H23A 1614   0.269   2.503   8.709 -0.9347 -1.7072  0.4534
   22CHL1  H23B 1615   0.436   2.535   8.764  2.5889 -2.9726  2.5060
   22CHL1   C24 1616   0.397   2.331   8.709  0.2594  0.4067 -0.2153
   22CHL1  H24A 1617   0.491   2.293   8.755 -0.2953 -1.1495 -0.3161
   22CHL1  H24B 1618   0.320   2.254   8.731 -0.6568  1.5031  0.5224
   22CHL1   C25 1619   0.419   2.353   8.555 -0.6091 -0.5246  0.4489
   22CHL1   H25 1620   0.317   2.382   8.521  0.0815 -0.2136 -1.5097
   22CHL1   C26 1621   0.508   2.473   8.518  0.1747  0.5804 -0.2682
   22CHL1  H26A 1622   0.611   2.454   8.555  0.2912  0.4467 -0.6517
   22CHL1  H26B 1623   0.504   2.489   8.408 -2.7823 -0.3736 -0.3751
   22CHL1  H26C 1624   0.470   2.570   8.555  0.1855  1.4066 -2.2902
   22CHL1   C27 1625   0.459   2.223   8.481 -0.0609 -0.2868 -0.2817
   22CHL1  H27A 1626   0.460   2.232   8.370 -0.1942  2.2890 -0.1396
   22CHL1  H27B 1627   0.557   2.182   8.513 -0.8072 -1.0461  1.1127
   22CHL1  H27C 1628   0.381   2.150   8.510  1.2105 -1.1458  1.1108
   23CHL1    C3 1629   2.973   5.471   9.894 -0.2951 -0.2805  0.1033
   23CHL1    H3 1630   2.862   5.481   9.892 -0.2313  0.4321 -1.1906
   23CHL1    O3 1631   3.020   5.514  10.025 -0.3758  0.3163  0.3157
   23CHL1   H3' 1632   3.016   5.437  10.082 -0.7908  0.0182 -0.1056
   23CHL1    C4 1633   3.016   5.328   9.865 -0.6951 -0.7851 -0.5447
   23CHL1   H4A 1634   3.125   5.328   9.886 -0.6168 -1.5203 -0.8941
   23CHL1   H4B 1635   2.973   5.262   9.944  1.0962  1.4209  2.5240
   23CHL1    C5 1636   2.985   5.289   9.722 -0.0010  0.3603 -0.3302
   23CHL1    C6 1637   2.913   5.186   9.701  0.4270 -0.2555  0.1819
   23CHL1    H6 1638   2.868   5.134   9.787  0.4106 -1.6951 -0.6633
   23CHL1    C7 1639   2.876   5.130   9.559  0.0555  0.3681 -0.9600
   23CHL1   H7A 1640   2.886   5.020   9.551 -2.7893  0.0641 -1.5439
   23CHL1   H7B 1641   2.770   5.163   9.550 -0.2854  0.8770  2.8558
   23CHL1    C8 1642   2.966   5.200   9.452  0.8744 -0.6692 -0.5627
   23CHL1    H8 1643   3.071   5.164   9.457  2.5880  3.4606 -2.1079
   23CHL1   C14 1644   2.909   5.178   9.314 -0.8170 -0.2136 -1.2835
   23CHL1   H14 1645   2.807   5.222   9.322 -1.6240 -2.0087 -1.2212
   23CHL1   C15 1646   2.877   5.036   9.269 -0.5168  0.4853 -0.1725
   23CHL1  H15A 1647   2.963   4.978   9.309 -1.6438 -1.6812 -0.7379
   23CHL1  H15B 1648   2.776   5.012   9.309 -0.5429 -1.1466 -1.1040
   23CHL1   C16 1649   2.880   5.036   9.117 -0.3045 -0.7555  0.1508
   23CHL1  H16A 1650   2.969   4.980   9.081 -0.1041  0.4275 -1.2986
   23CHL1  H16B 1651   2.788   4.991   9.073 -0.6971 -0.0343  0.2131
   23CHL1   C17 1652   2.903   5.187   9.082 -1.3258  0.8101 -0.4780
   23CHL1   H17 1653   2.800   5.229   9.086 -2.2495 -1.3977  0.1311
   23CHL1   C13 1654   2.982   5.246   9.201 -0.4521  0.4113 -0.3208
   23CHL1   C18 1655   3.125   5.188   9.189 -0.4315  0.2855  0.4918
   23CHL1  H18A 1656   3.184   5.215   9.279 -1.6162 -0.4503  1.5197
   23CHL1  H18B 1657   3.124   5.078   9.180  0.2814  0.0521  2.6961
   23CHL1  H18C 1658   3.171   5.220   9.094 -2.8660  2.8849  0.0394
   23CHL1   C12 1659   2.972   5.396   9.221  0.2199 -0.6246 -0.1252
   23CHL1  H12A 1660   3.027   5.452   9.141  0.4777  2.1899  1.8855
   23CHL1  H12B 1661   2.865   5.425   9.216  0.3556 -0.2670 -1.8493
   23CHL1   C11 1662   3.042   5.430   9.356 -0.4409  0.3594  0.3939
   23CHL1  H11A 1663   3.152   5.412   9.351  0.1613  3.6792 -1.4282
   23CHL1  H11B 1664   3.030   5.541   9.356  2.4634  0.7671 -0.8736
   23CHL1    C9 1665   2.977   5.355   9.475 -0.1624 -0.3265 -0.6054
   23CHL1    H9 1666   2.869   5.380   9.477 -0.3906 -1.3052  0.1283
   23CHL1   C10 1667   3.034   5.386   9.615 -0.2797 -0.6491 -0.4042
   23CHL1   C19 1668   3.197   5.377   9.618  0.6679  0.2036  0.3566
   23CHL1  H19A 1669   3.249   5.446   9.548  0.1667  1.6127  1.3151
   23CHL1  H19B 1670   3.229   5.398   9.722 -1.0937 -1.2274  1.2396
   23CHL1  H19C 1671   3.240   5.278   9.592  1.7291  1.1583 -1.7510
   23CHL1    C1 1672   2.990   5.527   9.656  0.4866 -0.6129  0.1089
   23CHL1   H1A 1673   3.027   5.603   9.583  0.6627  1.3131  2.0917
   23CHL1   H1B 1674   2.880   5.540   9.659 -0.0582 -3.3395 -2.4996
   23CHL1    C2 1675   3.031   5.564   9.790  0.0137  0.8883  0.0990
   23CHL1   H2A 1676   2.994   5.668   9.805  0.3037  0.9454  0.4168
   23CHL1   H2B 1677   3.140   5.564   9.808 -0.2135  0.4420  1.7240
   23CHL1   C20 1678   2.955   5.205   8.941 -0.3945 -0.3276 -0.5805
   23CHL1   H20 1679   3.066   5.205   8.930  0.0942 -1.1150  2.9799
   23CHL1   C21 1680   2.901   5.344   8.892  0.8160 -0.0215  0.3362
   23CHL1  H21A 1681   2.916   5.355   8.783  1.0074  0.5799  0.4253
   23CHL1  H21B 1682   2.936   5.436   8.942  0.3520  1.5963 -2.1655
   23CHL1  H21C 1683   2.791   5.356   8.907  1.3045  1.6088  3.2436
   23CHL1   C22 1684   2.897   5.088   8.844 -0.3069  0.1855 -0.0509
   23CHL1  H22A 1685   2.955   4.996   8.865 -3.9209 -2.1413  0.5047
   23CHL1  H22B 1686   2.791   5.063   8.865  0.3174 -3.0598 -0.2258
   23CHL1   C23 1687   2.912   5.112   8.694 -0.4324 -0.4379 -0.5170
   23CHL1  H23A 1688   2.830   5.176   8.656 -1.6196 -1.7239 -0.1901
   23CHL1  H23B 1689   3.009   5.162   8.675  0.7532 -2.1755  0.6262
   23CHL1   C24 1690   2.930   4.979   8.613  0.0217 -0.3653  0.1007
   23CHL1  H24A 1691   3.033   4.940   8.622  0.2835  0.0590 -0.9554
   23CHL1  H24B 1692   2.855   4.903   8.643 -1.8535  0.7574 -1.5026
   23CHL1   C25 1693   2.910   4.986   8.459  0.7061 -0.3942 -0.7903
   23CHL1   H25 1694   2.815   5.040   8.439  1.4982  0.6628 -1.8341
   23CHL1   C26 1695   3.019   5.057   8.393  0.0236  0.0908  0.1722
   23CHL1  H26A 1696   3.108   4.990   8.400 -0.0958 -0.2690 -1.3675
   23CHL1  H26B 1697   3.011   5.072   8.283  0.2839  0.8437  0.2479
   23CHL1  H26C 1698   3.029   5.148   8.455  0.4031 -0.1734  0.5089
   23CHL1   C27 1699   2.902   4.845   8.410  0.0502  0.0269 -0.2520
   23CHL1  H27A 1700   2.799   4.805   8.426  0.7451 -1.6806  0.1509
   23CHL1  H27B 1701   2.914   4.829   8.300 -1.3644  0.7538 -0.5429
   23CHL1  H27C 1702   2.975   4.780   8.463 -1.4839 -1.4510  0.1463
   24CHL1    C3 1703   5.710   6.375  10.028 -0.8085 -0.2305  0.0608
   24CHL1    H3 1704   5.627   6.433   9.982 -1.8215 -2.3800 -0.9564
   24CHL1    O3 1705   5.721   6.392  10.171  0.5525  0.2655  0.7461
   24CHL1   H3' 1706   5.808   6.360  10.195  1.0968 -0.0240 -1.4317
   24CHL1    C4 1707   5.694   6.229   9.986  0.3246 -0.7416  0.6326
   24CHL1   H4A 1708   5.782   6.178  10.030  2.3250  2.0489  0.1287
   24CHL1   H4B 1709   5.605   6.200  10.046  0.6008  1.5277  2.2620
   24CHL1    C5 1710   5.682   6.215   9.834  0.4761  0.2995  0.1947
   24CHL1    C6 1711   5.577   6.152   9.776  0.0382 -0.2382  0.0328
   24CHL1    H6 1712   5.501   6.106   9.841  1.5068  0.1619  2.1320
   24CHL1    C7 1713   5.564   6.133   9.624 -0.1834 -0.4834 -0.1365
   24CHL1   H7A 1714   5.530   6.030   9.604  2.3648 -1.3598 -0.3572
   24CHL1   H7B 1715   5.481   6.197   9.588 -1.8459 -1.2361  2.1234
   24CHL1    C8 1716   5.694   6.171   9.545 -0.0439 -0.5111 -0.1871
   24CHL1    H8 1717   5.753   6.076   9.544 -1.9521 -1.8156  1.5602
   24CHL1   C14 1718   5.650   6.212   9.404  0.2772  0.3847  0.2054
   24CHL1   H14 1719   5.588   6.304   9.409 -0.9651 -0.2714 -2.0009
   24CHL1   C15 1720   5.557   6.117   9.328  0.5363 -0.5679  0.1812
   24CHL1  H15A 1721   5.596   6.018   9.359  1.0054  0.5393  3.5487
   24CHL1  H15B 1722   5.454   6.130   9.366  0.4106  1.7336 -0.7461
   24CHL1   C16 1723   5.571   6.154   9.179  0.3854  0.3830 -0.6519
   24CHL1  H16A 1724   5.585   6.065   9.114  2.6275  0.3363 -0.1647
   24CHL1  H16B 1725   5.474   6.202   9.152  1.1975  0.9555 -2.7347
   24CHL1   C17 1726   5.690   6.254   9.167  0.0814 -0.2441 -0.8440
   24CHL1   H17 1727   5.631   6.349   9.165 -0.7734 -0.7648 -1.3382
   24CHL1   C13 1728   5.764   6.248   9.302  0.5373 -0.4172  0.2770
   24CHL1   C18 1729   5.857   6.126   9.290 -0.0523  0.9429 -0.1479
   24CHL1  H18A 1730   5.939   6.149   9.219  0.1617 -1.0391 -0.5811
   24CHL1  H18B 1731   5.903   6.116   9.390  2.9312  1.0375 -1.4192
   24CHL1  H18C 1732   5.811   6.030   9.258 -1.1995  1.1260  0.8480
   24CHL1   C12 1733   5.838   6.376   9.365  0.3308  0.3937  0.0807
   24CHL1  H12A 1734   5.926   6.400   9.302  0.2357  0.5522  0.0065
   24CHL1  H12B 1735   5.760   6.455   9.353  0.9747  0.9587 -0.4453
   24CHL1   C11 1736   5.872   6.353   9.511  0.2652  0.1312 -0.2010
   24CHL1  H11A 1737   5.962   6.289   9.521  0.0756 -0.2021 -0.6158
   24CHL1  H11B 1738   5.901   6.449   9.560 -2.0319  1.2512 -0.8780
   24CHL1    C9 1739   5.766   6.291   9.605 -0.2913 -0.4708 -0.0104
   24CHL1    H9 1740   5.697   6.378   9.600  1.5905  1.1585  0.9453
   24CHL1   C10 1741   5.796   6.287   9.757 -0.0785 -0.7178 -0.5710
   24CHL1   C19 1742   5.925   6.209   9.786  0.3153 -0.0832 -0.6549
   24CHL1  H19A 1743   6.006   6.245   9.719  1.4875  1.1290  1.2891
   24CHL1  H19B 1744   5.967   6.234   9.886 -0.0246  2.3569 -1.0475
   24CHL1  H19C 1745   5.916   6.101   9.766 -0.5912 -0.3252  0.8547
   24CHL1    C1 1746   5.824   6.423   9.807 -0.2648 -0.3678  0.1861
   24CHL1   H1A 1747   5.921   6.463   9.770 -0.3313 -0.9778 -0.6787
   24CHL1   H1B 1748   5.747   6.496   9.773 -0.2480 -0.4524 -0.0305
   24CHL1    C2 1749   5.838   6.436   9.964  0.2963 -0.2017 -0.1358
   24CHL1   H2A 1750   5.854   6.544   9.984  1.8723  0.0701 -2.4664
   24CHL1   H2B 1751   5.925   6.380  10.004 -1.1903 -1.4802  1.4447
   24CHL1   C20 1752   5.777   6.240   9.039  0.3272 -0.2387  0.3088
   24CHL1   H20 1753   5.833   6.144   9.051 -0.3053 -0.3261  3.2156
   24CHL1   C21 1754   5.864   6.369   9.017  0.4754  1.2354 -0.5240
   24CHL1  H21A 1755   5.946   6.343   8.947  0.1791 -0.3228 -0.3221
   24CHL1  H21B 1756   5.911   6.402   9.112 -1.6138  0.4299  0.8885
   24CHL1  H21C 1757   5.796   6.448   8.979 -0.7763 -0.0173 -0.9991
   24CHL1   C22 1758   5.678   6.223   8.918  0.2576 -0.2091 -0.1756
   24CHL1  H22A 1759   5.643   6.117   8.915  0.1293 -0.1764  0.1338
   24CHL1  H22B 1760   5.591   6.290   8.937 -0.6026 -1.2643 -0.2551
   24CHL1   C23 1761   5.729   6.269   8.785  0.1988 -0.7591  0.0330
   24CHL1  H23A 1762   5.733   6.380   8.787  0.6041 -0.7214 -1.4266
   24CHL1  H23B 1763   5.831   6.227   8.769 -0.1708 -1.2943 -1.0847
   24CHL1   C24 1764   5.624   6.230   8.678  0.0591  0.6768 -0.0600
   24CHL1  H24A 1765   5.633   6.121   8.661 -0.1754  1.0251 -2.9794
   24CHL1  H24B 1766   5.521   6.257   8.710  1.2804  3.2209  2.0371
   24CHL1   C25 1767   5.653   6.295   8.538 -0.5396 -0.1474 -0.4799
   24CHL1   H25 1768   5.753   6.265   8.502  0.3492  1.4282  0.5666
   24CHL1   C26 1769   5.553   6.242   8.434  0.0434 -0.9090  0.0577
   24CHL1  H26A 1770   5.572   6.256   8.326 -2.3031  0.9439 -0.2129
   24CHL1  H26B 1771   5.534   6.134   8.450 -0.7897 -1.0844 -1.8544
   24CHL1  H26C 1772   5.453   6.291   8.446  0.9360  2.1851 -3.2277
   24CHL1   C27 1773   5.641   6.447   8.550  0.0724 -0.7824 -0.1530
   24CHL1  H27A 1774   5.535   6.474   8.566  0.2458  0.4350 -0.9517
   24CHL1  H27B 1775   5.707   6.490   8.629 -0.1620 -2.3741  0.9754
   24CHL1  H27C 1776   5.675   6.497   8.457  1.2728 -3.1526 -1.0695
   25CHL1    C3 1777   1.206   6.472  10.256 -0.1038  0.4743 -0.3391
   25CHL1    H3 1778   1.229   6.364  10.252  2.8872  0.9251  1.4464
   25CHL1    O3 1779   1.202   6.508  10.394 -0.1389 -0.2525 -0.3863
   25CHL1   H3' 1780   1.117   6.485  10.431  0.8256 -0.6420  1.6929
   25CHL1    C4 1781   1.329   6.540  10.168  0.0186  0.1049  0.1113
   25CHL1   H4A 1782   1.335   6.649  10.189  1.2584  0.0345  0.1789
   25CHL1   H4B 1783   1.423   6.509  10.219  0.8569  3.1455  0.6566
   25CHL1    C5 1784   1.328   6.518  10.020  0.2839 -0.2695 -0.3860
   25CHL1    C6 1785   1.445   6.486   9.958 -0.0221 -0.0035  0.2809
   25CHL1    H6 1786   1.541   6.484  10.010  1.2057  1.8800 -1.7241
   25CHL1    C7 1787   1.454   6.483   9.809 -0.4542 -0.1550  0.5377
   25CHL1   H7A 1788   1.533   6.547   9.765 -2.5291  1.5991 -0.8471
   25CHL1   H7B 1789   1.468   6.378   9.775 -1.2968 -0.4364  1.0237
   25CHL1    C8 1790   1.330   6.537   9.744 -0.0594 -0.2338  0.3338
   25CHL1    H8 1791   1.329   6.648   9.740  1.3207 -0.1444  1.4901
   25CHL1   C14 1792   1.332   6.491   9.598 -0.1892 -0.0418  0.4000
   25CHL1   H14 1793   1.343   6.381   9.587  1.1826  0.0433  0.6729
   25CHL1   C15 1794   1.462   6.541   9.526  0.1718 -0.0368 -0.2366
   25CHL1  H15A 1795   1.476   6.651   9.529  1.1779 -0.0434 -2.3075
   25CHL1  H15B 1796   1.558   6.489   9.545  0.8511  0.5662 -1.8042
   25CHL1   C16 1797   1.423   6.499   9.380  0.1596  0.5702  0.4570
   25CHL1  H16A 1798   1.457   6.568   9.300 -0.9075 -0.0404 -0.5563
   25CHL1  H16B 1799   1.470   6.400   9.366  0.3769  0.4287  2.0278
   25CHL1   C17 1800   1.265   6.473   9.380 -0.0581  0.6613  0.1400
   25CHL1   H17 1801   1.252   6.364   9.393  0.7945  0.3235 -1.5862
   25CHL1   C13 1802   1.211   6.537   9.520 -0.3585  0.0953 -0.5906
   25CHL1   C18 1803   1.204   6.692   9.516  0.7598 -0.1837  0.1173
   25CHL1  H18A 1804   1.177   6.738   9.613 -0.9901  0.3757 -0.6080
   25CHL1  H18B 1805   1.296   6.738   9.473 -1.2602  1.1800 -3.1742
   25CHL1  H18C 1806   1.125   6.727   9.447  0.1125 -2.9305 -0.6880
   25CHL1   C12 1807   1.085   6.474   9.584  0.4406  0.1935  0.7994
   25CHL1  H12A 1808   0.998   6.502   9.521  2.0753 -0.8591 -2.1021
   25CHL1  H12B 1809   1.086   6.364   9.573 -0.0404  0.3552 -1.3986
   25CHL1   C11 1810   1.071   6.525   9.722 -0.4857  0.2357 -0.9396
   25CHL1  H11A 1811   1.057   6.635   9.719  0.3290  0.3263 -3.6143
   25CHL1  H11B 1812   0.976   6.489   9.769  0.0894 -0.4158 -0.2436
   25CHL1    C9 1813   1.191   6.488   9.813  0.0653 -0.5724  0.0025
   25CHL1    H9 1814   1.200   6.377   9.817  0.8496 -0.5118  0.1201
   25CHL1   C10 1815   1.188   6.541   9.963 -0.4421  0.5825 -0.2567
   25CHL1   C19 1816   1.153   6.689   9.959  0.1320 -0.2500  0.2919
   25CHL1  H19A 1817   1.049   6.711   9.929 -0.2064  1.0131  2.1915
   25CHL1  H19B 1818   1.173   6.733  10.059 -0.6848 -1.1219  0.8494
   25CHL1  H19C 1819   1.230   6.732   9.891  1.3956  1.6101  2.7404
   25CHL1    C1 1820   1.087   6.455  10.037 -0.0321 -0.1671 -0.5190
   25CHL1   H1A 1821   0.988   6.465   9.989  1.2318  1.2656 -3.0369
   25CHL1   H1B 1822   1.099   6.345  10.029  1.9009 -0.0794  0.4395
   25CHL1    C2 1823   1.069   6.496  10.190  0.1514  0.8543 -0.4949
   25CHL1   H2A 1824   0.997   6.424  10.234  1.7884  0.1440  1.1480
   25CHL1   H2B 1825   1.046   6.603  10.205 -1.0610  0.2214  3.2223
   25CHL1   C20 1826   1.193   6.512   9.250 -0.0911  0.0427  0.3140
   25CHL1   H20 1827   1.223   6.617   9.228  1.3681 -1.0009 -3.5271
   25CHL1   C21 1828   1.039   6.493   9.260 -0.1344 -0.3153 -0.3241
   25CHL1  H21A 1829   0.994   6.580   9.313 -1.5016 -1.6273  0.7384
   25CHL1  H21B 1830   1.023   6.399   9.317  1.7461  0.0810  0.9553
   25CHL1  H21C 1831   0.996   6.490   9.158 -2.4122 -0.6874  0.5843
   25CHL1   C22 1832   1.242   6.442   9.128  0.1394 -0.1923 -0.1263
   25CHL1  H22A 1833   1.351   6.426   9.136  0.8388  2.9196 -2.0176
   25CHL1  H22B 1834   1.202   6.338   9.124 -0.9001  0.1469  0.7639
   25CHL1   C23 1835   1.225   6.534   9.000 -0.8724 -0.7207 -0.0688
   25CHL1  H23A 1836   1.117   6.546   8.975 -0.4968  1.2846 -0.9431
   25CHL1  H23B 1837   1.269   6.634   9.024 -0.1825 -1.2006  0.6907
   25CHL1   C24 1838   1.289   6.482   8.873  0.4635 -0.0279 -0.1952
   25CHL1  H24A 1839   1.392   6.458   8.907  0.5881  2.2525  1.2521
   25CHL1  H24B 1840   1.240   6.393   8.827  0.1645  1.5189 -3.0758
   25CHL1   C25 1841   1.307   6.589   8.768 -0.3679 -0.3781  0.2683
   25CHL1   H25 1842   1.365   6.673   8.812  1.6197  0.1485 -2.9785
   25CHL1   C26 1843   1.405   6.546   8.653 -0.1976 -0.4847 -0.6344
   25CHL1  H26A 1844   1.439   6.635   8.596 -1.2813  0.1766 -0.2723
   25CHL1  H26B 1845   1.497   6.496   8.690 -0.6632  0.5958  2.2356
   25CHL1  H26C 1846   1.343   6.479   8.591 -0.8714  0.4540 -0.9821
   25CHL1   C27 1847   1.178   6.630   8.703  0.0468  0.5030  0.1055
   25CHL1  H27A 1848   1.192   6.698   8.616 -2.0725  2.7640  1.3811
   25CHL1  H27B 1849   1.127   6.540   8.663  0.4598  1.0534 -1.7271
   25CHL1  H27C 1850   1.104   6.677   8.772  0.3858  1.8392 -0.4038
   26CHL1    C3 1851   1.743   2.277  10.006  0.8094  0.3273 -0.2925
   26CHL1    H3 1852   1.843   2.241   9.974  0.6504 -0.1619 -0.2390
   26CHL1    O3 1853   1.735   2.330  10.139 -0.7759  0.4760  0.3390
   26CHL1   H3' 1854   1.737   2.425  10.134 -1.1466  0.4213 -1.3527
   26CHL1    C4 1855   1.690   2.372   9.898 -0.0628 -0.1366 -0.5930
   26CHL1   H4A 1856   1.600   2.425   9.933  0.4940 -0.1697  0.9824
   26CHL1   H4B 1857   1.756   2.461   9.894 -1.1100  0.7796  1.3459
   26CHL1    C5 1858   1.659   2.320   9.760 -0.2382  0.8178  0.2606
   26CHL1    C6 1859   1.726   2.372   9.656 -0.1840 -0.9218  0.1141
   26CHL1    H6 1860   1.793   2.458   9.671  0.7560 -1.6652  0.3040
   26CHL1    C7 1861   1.706   2.327   9.514  0.1088  0.1831  0.2760
   26CHL1   H7A 1862   1.697   2.416   9.447  0.7956  0.5283  0.6245
   26CHL1   H7B 1863   1.788   2.264   9.474 -1.8798 -1.1811 -1.9015
   26CHL1    C8 1864   1.578   2.241   9.510 -0.3943 -0.0241 -0.4032
   26CHL1    H8 1865   1.487   2.305   9.515 -1.6230 -1.6371 -1.5300
   26CHL1   C14 1866   1.546   2.195   9.368  0.1954  0.4206 -0.0460
   26CHL1   H14 1867   1.632   2.127   9.352 -2.4548 -4.0904  2.4309
   26CHL1   C15 1868   1.547   2.295   9.251  0.0749  0.1016  0.4039
   26CHL1  H15A 1869   1.496   2.392   9.273  2.1580  1.2430  0.4699
   26CHL1  H15B 1870   1.651   2.326   9.229 -0.0104 -0.1170 -0.3416
   26CHL1   C16 1871   1.476   2.231   9.128  0.3853 -0.2385 -0.0614
   26CHL1  H16A 1872   1.380   2.278   9.099 -2.0119 -3.3651  2.1095
   26CHL1  H16B 1873   1.538   2.229   9.036 -2.4375 -1.0539 -2.0693
   26CHL1   C17 1874   1.441   2.090   9.189  0.3644  0.8438 -0.0538
   26CHL1   H17 1875   1.529   2.022   9.185 -2.2898 -2.8414 -0.5657
   26CHL1   C13 1876   1.420   2.116   9.346  0.1012  0.2868  0.0992
   26CHL1   C18 1877   1.297   2.206   9.373 -0.1278 -0.1330 -0.7798
   26CHL1  H18A 1878   1.300   2.303   9.318 -1.6568  2.4623  3.2819
   26CHL1  H18B 1879   1.204   2.152   9.344 -0.8139 -0.2576  1.4809
   26CHL1  H18C 1880   1.284   2.244   9.476  0.1054  2.0673 -1.5124
   26CHL1   C12 1881   1.422   1.994   9.443  0.3719 -0.7617  0.1057
   26CHL1  H12A 1882   1.325   1.942   9.427 -0.3724 -0.4728  3.1425
   26CHL1  H12B 1883   1.503   1.922   9.413 -0.2259 -1.2250 -0.4275
   26CHL1   C11 1884   1.438   2.045   9.591 -0.2379  0.4015  0.1828
   26CHL1  H11A 1885   1.340   2.092   9.612 -2.4788 -3.4088 -0.8735
   26CHL1  H11B 1886   1.446   1.955   9.655  1.7772 -0.1195 -0.7018
   26CHL1    C9 1887   1.562   2.137   9.616 -0.3464  0.1606 -0.3429
   26CHL1    H9 1888   1.651   2.070   9.613 -0.3735  0.1481 -1.6237
   26CHL1   C10 1889   1.565   2.205   9.761 -1.0136  0.6797  0.6577
   26CHL1   C19 1890   1.427   2.261   9.800 -0.9092 -0.2652  0.2605
   26CHL1  H19A 1891   1.403   2.335   9.721 -0.1309 -1.5179 -1.2111
   26CHL1  H19B 1892   1.355   2.177   9.793  0.8339 -1.7892 -0.0103
   26CHL1  H19C 1893   1.421   2.300   9.904 -0.1246 -1.0701  0.6132
   26CHL1    C1 1894   1.613   2.098   9.862 -0.1851 -0.4231  0.2588
   26CHL1   H1A 1895   1.541   2.015   9.880 -0.6825  0.1035  0.7261
   26CHL1   H1B 1896   1.703   2.043   9.827  0.0200 -0.5424  0.9639
   26CHL1    C2 1897   1.645   2.152  10.001  0.3225  0.1162  0.4655
   26CHL1   H2A 1898   1.688   2.075  10.069  0.4095  1.0869  1.5384
   26CHL1   H2B 1899   1.553   2.185  10.053 -0.2329 -1.0964  0.2981
   26CHL1   C20 1900   1.321   2.022   9.115  0.4902 -0.3705  0.4604
   26CHL1   H20 1901   1.235   2.092   9.127  2.0353  1.7869 -0.3639
   26CHL1   C21 1902   1.276   1.886   9.164 -0.0985 -0.5514 -0.5794
   26CHL1  H21A 1903   1.200   1.839   9.098  0.5924 -0.5613 -1.3810
   26CHL1  H21B 1904   1.226   1.897   9.263  0.2707 -0.4973 -0.3965
   26CHL1  H21C 1905   1.356   1.809   9.172 -1.7402 -2.4640 -1.5902
   26CHL1   C22 1906   1.347   2.022   8.959 -0.7173 -0.6948 -0.4117
   26CHL1  H22A 1907   1.352   2.130   8.935 -0.8327 -0.4539  0.5861
   26CHL1  H22B 1908   1.444   1.970   8.948 -1.4528 -1.7850 -2.2336
   26CHL1   C23 1909   1.248   1.953   8.866  0.7862 -0.3219 -0.3254
   26CHL1  H23A 1910   1.257   1.848   8.900 -0.1537 -0.3212 -0.0336
   26CHL1  H23B 1911   1.152   2.003   8.892  1.8296  2.1838 -0.9429
   26CHL1   C24 1912   1.277   1.970   8.720  0.6710 -0.0205 -0.2155
   26CHL1  H24A 1913   1.228   2.067   8.696 -1.2868 -0.8671  0.1711
   26CHL1  H24B 1914   1.386   1.986   8.706  0.0288  2.9423 -3.3379
   26CHL1   C25 1915   1.221   1.857   8.629  0.1849  0.0163  0.0697
   26CHL1   H25 1916   1.232   1.890   8.524 -1.1647  1.3751  0.3256
   26CHL1   C26 1917   1.290   1.716   8.638 -0.0112 -0.1645 -0.2106
   26CHL1  H26A 1918   1.273   1.664   8.734  1.1511 -1.9550 -0.9403
   26CHL1  H26B 1919   1.248   1.641   8.568  1.4582 -1.0630 -0.1654
   26CHL1  H26C 1920   1.400   1.730   8.626  0.1382  0.2478  1.4178
   26CHL1   C27 1921   1.070   1.841   8.650 -0.2288 -0.1583  0.0563
   26CHL1  H27A 1922   1.016   1.801   8.562 -1.1194 -1.8266  1.3094
   26CHL1  H27B 1923   1.046   1.773   8.734 -0.0071  0.1822  0.3989
   26CHL1  H27C 1924   1.024   1.937   8.683  0.3481 -0.0654  0.5914
   27CHL1    C3 1925   0.970   6.078  10.435 -0.6750  0.1644 -0.5930
   27CHL1    H3 1926   0.997   6.183  10.409 -3.7076  1.3515  0.6537
   27CHL1    O3 1927   0.986   6.069  10.579 -0.3154  0.1042  0.1400
   27CHL1   H3' 1928   0.932   5.994  10.607 -2.3799  0.0652 -3.3084
   27CHL1    C4 1929   0.823   6.078  10.399  0.1636 -0.8167 -0.1911
   27CHL1   H4A 1930   0.779   5.985  10.441 -1.4555  0.0234  0.0305
   27CHL1   H4B 1931   0.783   6.161  10.460 -1.0439 -1.8840  0.5057
   27CHL1    C5 1932   0.808   6.086  10.253  0.0124  0.1139  0.0233
   27CHL1    C6 1933   0.725   6.180  10.208 -0.0873  0.3448  0.4793
   27CHL1    H6 1934   0.678   6.242  10.285  0.4375  1.5730 -0.1708
   27CHL1    C7 1935   0.692   6.203  10.067 -0.0501 -0.1017 -0.1710
   27CHL1   H7A 1936   0.585   6.219  10.040 -0.6324 -1.5899  1.1097
   27CHL1   H7B 1937   0.739   6.301  10.042  1.5984 -0.8258 -0.0490
   27CHL1    C8 1938   0.769   6.112   9.974 -0.8521  0.1056  0.3843
   27CHL1    H8 1939   0.705   6.021   9.971 -1.2032  0.3378  0.6607
   27CHL1   C14 1940   0.778   6.181   9.845 -0.2931  0.3089 -0.2146
   27CHL1   H14 1941   0.851   6.263   9.864 -0.6333  0.6911 -0.5569
   27CHL1   C15 1942   0.653   6.249   9.797  0.4140 -0.4656  0.1146
   27CHL1  H15A 1943   0.576   6.174   9.823  0.0234  0.3688  1.4826
   27CHL1  H15B 1944   0.615   6.344   9.841 -0.7879 -1.6433  1.7449
   27CHL1   C16 1945   0.667   6.256   9.641 -0.6880  0.5926 -0.7163
   27CHL1  H16A 1946   0.577   6.220   9.586 -0.6952  0.1630 -0.4334
   27CHL1  H16B 1947   0.669   6.364   9.617 -1.5670  0.6202 -0.6689
   27CHL1   C17 1948   0.804   6.185   9.610 -0.3519 -0.8763  0.4170
   27CHL1   H17 1949   0.872   6.270   9.632  0.4603 -1.0549 -1.2832
   27CHL1   C13 1950   0.829   6.097   9.731 -0.2218 -0.1408 -0.4955
   27CHL1   C18 1951   0.723   5.979   9.709  0.3135  0.2171  0.4236
   27CHL1  H18A 1952   0.676   5.937   9.801 -1.7041  0.9067 -0.2392
   27CHL1  H18B 1953   0.646   5.993   9.631  1.3912  1.1198 -0.5157
   27CHL1  H18C 1954   0.783   5.900   9.659 -0.4737 -1.2141  1.6733
   27CHL1   C12 1955   0.970   6.049   9.772 -0.0641 -0.2485  0.0331
   27CHL1  H12A 1956   1.004   5.960   9.715  0.1483 -0.2871  0.2198
   27CHL1  H12B 1957   1.046   6.130   9.771 -1.1051  0.7666 -1.1869
   27CHL1   C11 1958   0.969   5.984   9.915  0.0036  0.4543 -0.2677
   27CHL1  H11A 1959   0.922   5.883   9.909  2.0971 -0.5789 -0.3914
   27CHL1  H11B 1960   1.075   5.970   9.946 -0.6542 -0.4567  1.7577
   27CHL1    C9 1961   0.907   6.072  10.024  0.7632  0.0864 -0.5893
   27CHL1    H9 1962   0.963   6.166  10.038 -0.2482  0.6071  0.0566
   27CHL1   C10 1963   0.897   5.998  10.157 -0.3942  0.0793  0.1483
   27CHL1   C19 1964   0.820   5.865  10.159 -0.0677 -0.3407  0.5156
   27CHL1  H19A 1965   0.714   5.876  10.128 -0.0011 -0.3996  0.2650
   27CHL1  H19B 1966   0.873   5.796  10.090 -0.0211  0.3048 -0.0991
   27CHL1  H19C 1967   0.814   5.820  10.261  0.9219 -0.4742  0.5248
   27CHL1    C1 1968   1.042   5.997  10.217  0.0936  1.0198 -0.0093
   27CHL1   H1A 1969   1.094   5.912  10.168 -0.1275  1.5966 -1.3044
   27CHL1   H1B 1970   1.084   6.098  10.198 -2.1073  1.7821 -1.2321
   27CHL1    C2 1971   1.051   5.975  10.365 -0.6004 -0.0771  0.1678
   27CHL1   H2A 1972   1.157   5.989  10.394 -0.8334 -0.2355  1.1401
   27CHL1   H2B 1973   1.011   5.879  10.405  1.0052  0.1478  2.5724
   27CHL1   C20 1974   0.836   6.133   9.471  0.2117 -0.5062 -0.4930
   27CHL1   H20 1975   0.777   6.040   9.455 -1.3059  0.6706 -2.1751
   27CHL1   C21 1976   0.988   6.099   9.457  0.5549  0.6024 -0.4730
   27CHL1  H21A 1977   1.011   5.994   9.486  2.0067  0.6432 -1.3687
   27CHL1  H21B 1978   1.038   6.160   9.535 -0.0579  0.6909 -0.1485
   27CHL1  H21C 1979   1.041   6.127   9.363  2.5804 -0.7440  0.1812
   27CHL1   C22 1980   0.786   6.225   9.363  0.1262 -0.8073 -0.0260
   27CHL1  H22A 1981   0.688   6.275   9.378  0.7793  0.8516 -0.9917
   27CHL1  H22B 1982   0.844   6.317   9.387 -2.9248  0.8471  1.6823
   27CHL1   C23 1983   0.805   6.191   9.215 -0.5094 -0.0585  0.1658
   27CHL1  H23A 1984   0.911   6.203   9.182 -1.0144  1.2639 -1.1051
   27CHL1  H23B 1985   0.772   6.089   9.189 -0.1052  0.3370 -2.1391
   27CHL1   C24 1986   0.721   6.294   9.131  0.0477 -0.4675 -0.3575
   27CHL1  H24A 1987   0.615   6.294   9.167 -0.0876  1.5751 -0.6557
   27CHL1  H24B 1988   0.742   6.403   9.138 -0.4282 -0.4350  0.9210
   27CHL1   C25 1989   0.721   6.260   8.977  0.0506 -0.2471 -0.2018
   27CHL1   H25 1990   0.683   6.156   8.974  0.0701 -0.2346 -1.6089
   27CHL1   C26 1991   0.629   6.364   8.910  0.1476  0.4254 -0.0375
   27CHL1  H26A 1992   0.636   6.347   8.800 -0.1162 -0.6125  0.1010
   27CHL1  H26B 1993   0.527   6.342   8.947 -0.1843  1.0180 -0.5764
   27CHL1  H26C 1994   0.667   6.462   8.947  0.7535 -0.4036  1.6461
   27CHL1   C27 1995   0.856   6.266   8.917  0.0649 -0.0794 -0.1356
   27CHL1  H27A 1996   0.859   6.231   8.811 -0.8222 -0.3931 -0.0666
   27CHL1  H27B 1997   0.905   6.365   8.918  2.1038 -1.0253 -1.1948
   27CHL1  H27C 1998   0.928   6.195   8.963 -0.9086 -1.3962 -0.5532
   28CHL1    C3 1999   0.193   5.549  10.013 -0.0010  0.0922  1.1116
   28CHL1    H3 2000   0.182   5.656   9.982 -0.4816 -0.8865 -2.5370
   28CHL1    O3 2001   0.207   5.558  10.155 -0.2361  0.1315  0.1028
   28CHL1   H3' 2002   0.195   5.648  10.186 -0.1059 -0.6031  2.4851
   28CHL1    C4 2003   0.063   5.469   9.983  0.0637 -0.3022  0.6527
   28CHL1   H4A 2004   0.054   5.377  10.043  0.4890 -2.6623 -2.6087
   28CHL1   H4B 2005  -0.011   5.540  10.026 -0.0823  0.6541 -1.0448
   28CHL1    C5 2006   0.047   5.461   9.839 -0.2505 -0.8540  0.4879
   28CHL1    C6 2007  -0.065   5.507   9.777 -0.7463  0.4347 -0.6924
   28CHL1    H6 2008  -0.145   5.548   9.840  0.4482  0.8745  0.5834
   28CHL1    C7 2009  -0.098   5.477   9.630  0.4906  0.0155  0.2091
   28CHL1   H7A 2010  -0.207   5.463   9.615  0.6939 -0.5035 -0.9732
   28CHL1   H7B 2011  -0.081   5.558   9.556 -0.4527 -0.8906 -1.0581
   28CHL1    C8 2012  -0.015   5.355   9.575  0.5384 -0.5137 -0.7930
   28CHL1    H8 2013  -0.068   5.270   9.624 -0.4956  0.2813 -0.5024
   28CHL1   C14 2014  -0.035   5.348   9.427 -0.2689  0.3083  0.0054
   28CHL1   H14 2015  -0.007   5.445   9.380 -1.2892 -0.0387 -1.3691
   28CHL1   C15 2016  -0.177   5.333   9.371  0.3257  0.0059  0.3502
   28CHL1  H15A 2017  -0.226   5.246   9.419  0.2267  0.2477  0.6884
   28CHL1  H15B 2018  -0.237   5.419   9.407  0.9131  1.0129 -0.9898
   28CHL1   C16 2019  -0.155   5.292   9.222 -0.1206 -0.2286 -0.0069
   28CHL1  H16A 2020  -0.214   5.200   9.204 -0.0671 -0.3461  0.4111
   28CHL1  H16B 2021  -0.180   5.376   9.153  0.8150 -0.2257 -0.3555
   28CHL1   C17 2022  -0.002   5.262   9.207  0.3602 -0.8103  0.1427
   28CHL1   H17 2023   0.051   5.356   9.182  0.4776 -0.9214 -0.0216
   28CHL1   C13 2024   0.052   5.248   9.353  0.1932 -0.4334  0.1983
   28CHL1   C18 2025   0.017   5.107   9.391  0.0401 -0.1480 -0.4544
   28CHL1  H18A 2026  -0.086   5.079   9.361 -0.8877  2.5378 -0.0763
   28CHL1  H18B 2027   0.084   5.026   9.355  1.9182 -0.3560  3.1355
   28CHL1  H18C 2028   0.035   5.097   9.500  0.4647 -0.4781 -0.5531
   28CHL1   C12 2029   0.201   5.281   9.375 -1.0425  0.4643  0.1985
   28CHL1  H12A 2030   0.264   5.201   9.331 -0.2399 -0.3192  2.6033
   28CHL1  H12B 2031   0.228   5.377   9.326  0.6678  0.6601  1.4070
   28CHL1   C11 2032   0.236   5.286   9.524 -0.4566 -0.0682 -0.0690
   28CHL1  H11A 2033   0.222   5.183   9.564 -1.6070  0.2019  0.2722
   28CHL1  H11B 2034   0.340   5.321   9.539 -0.7121  1.0335 -0.8006
   28CHL1    C9 2035   0.133   5.377   9.614 -0.7695 -0.0604  0.9199
   28CHL1    H9 2036   0.167   5.475   9.576  2.2618 -1.3705 -0.0696
   28CHL1   C10 2037   0.158   5.390   9.768 -0.0786  0.3752  0.0826
   28CHL1   C19 2038   0.170   5.241   9.812  0.3058  0.0386  0.4110
   28CHL1  H19A 2039   0.272   5.205   9.784 -0.0667 -0.2018 -0.6690
   28CHL1  H19B 2040   0.165   5.234   9.923  1.7823  4.1393  0.9234
   28CHL1  H19C 2041   0.094   5.187   9.752 -0.0678  0.5735  0.3911
   28CHL1    C1 2042   0.293   5.462   9.796 -0.4005  0.0923 -0.1076
   28CHL1   H1A 2043   0.374   5.402   9.750 -2.1555 -0.7342 -2.3342
   28CHL1   H1B 2044   0.302   5.564   9.752 -1.0310  0.3616  0.3811
   28CHL1    C2 2045   0.315   5.488   9.943  0.4485 -0.3758 -0.4845
   28CHL1   H2A 2046   0.415   5.530   9.965  0.1800  0.3748 -0.6569
   28CHL1   H2B 2047   0.324   5.388   9.990 -0.7639  0.2508  1.2240
   28CHL1   C20 2048   0.030   5.159   9.098  0.0391 -0.2515 -0.1067
   28CHL1   H20 2049  -0.023   5.064   9.116  0.0703 -0.7262 -2.2392
   28CHL1   C21 2050   0.181   5.124   9.086 -0.0886 -0.6440 -0.0065
   28CHL1  H21A 2051   0.246   5.214   9.080 -1.4046  0.3692  0.5017
   28CHL1  H21B 2052   0.199   5.057   8.999  4.4096 -0.9773  0.9185
   28CHL1  H21C 2053   0.207   5.067   9.178 -1.0776  1.0880  1.4100
   28CHL1   C22 2054  -0.021   5.202   8.957  0.6274  0.1009  0.5200
   28CHL1  H22A 2055   0.009   5.129   8.879 -0.1902  1.2462 -0.9257
   28CHL1  H22B 2056  -0.131   5.196   8.971  0.9107 -1.2094  2.5355
   28CHL1   C23 2057   0.020   5.338   8.912 -0.6956  0.4083 -0.3645
   28CHL1  H23A 2058   0.008   5.415   8.991 -2.1649 -1.4708  1.3426
   28CHL1  H23B 2059   0.129   5.343   8.892 -0.1105  2.3278  2.6597
   28CHL1   C24 2060  -0.071   5.406   8.806 -0.2040 -0.0802 -0.4649
   28CHL1  H24A 2061  -0.070   5.340   8.717 -0.4485 -0.2869 -0.3137
   28CHL1  H24B 2062  -0.175   5.405   8.844  0.1086 -0.5344  0.4132
   28CHL1   C25 2063  -0.021   5.542   8.758 -0.7170  0.5507  0.4712
   28CHL1   H25 2064  -0.103   5.576   8.691  0.2686  0.2283 -0.9309
   28CHL1   C26 2065  -0.013   5.649   8.871 -0.1096 -0.0280  0.0761
   28CHL1  H26A 2066   0.082   5.653   8.928 -1.2610  0.4597  2.0396
   28CHL1  H26B 2067  -0.028   5.749   8.824 -1.6172  0.9336  2.4437
   28CHL1  H26C 2068  -0.098   5.644   8.943 -0.3939 -2.5215 -0.3138
   28CHL1   C27 2069   0.102   5.547   8.673  0.0521  0.0795 -0.2168
   28CHL1  H27A 2070   0.187   5.503   8.730 -2.3188 -3.9047  0.6524
   28CHL1  H27B 2071   0.081   5.491   8.580 -2.1229  0.4533 -0.0057
   28CHL1  H27C 2072   0.127   5.649   8.637 -0.9471 -0.2512 -1.9453
   29CHL1    C3 2073   1.030   5.007   6.722  0.1918  0.0720 -0.3193
   29CHL1    H3 2074   1.121   4.944   6.712 -1.2943 -2.3088  0.3190
   29CHL1    O3 2075   0.994   5.035   6.588  0.2289 -0.7752  0.4010
   29CHL1   H3' 2076   1.014   4.960   6.532  1.1666  0.1707 -0.5809
   29CHL1    C4 2077   0.926   4.918   6.786  0.1616  0.1447 -0.3109
   29CHL1   H4A 2078   0.824   4.961   6.786 -0.3728 -1.0995 -0.5565
   29CHL1   H4B 2079   0.928   4.817   6.740  2.0636  0.0097 -0.0212
   29CHL1    C5 2080   0.960   4.906   6.932 -0.1620  1.0014 -0.5490
   29CHL1    C6 2081   0.972   4.783   6.986  0.3918 -0.2208 -0.4995
   29CHL1    H6 2082   0.966   4.692   6.924 -1.0313 -0.1395 -0.5147
   29CHL1    C7 2083   0.986   4.767   7.133 -0.6969 -0.1147  0.3879
   29CHL1   H7A 2084   0.913   4.691   7.168 -1.4085  0.2727 -0.2425
   29CHL1   H7B 2085   1.088   4.730   7.158 -0.9204  0.2304  1.9414
   29CHL1    C8 2086   0.955   4.885   7.220 -0.7665  0.7248  0.2917
   29CHL1    H8 2087   0.844   4.890   7.216 -0.7450  0.7510 -3.2679
   29CHL1   C14 2088   1.015   4.866   7.357 -0.8072  0.2599 -0.5701
   29CHL1   H14 2089   1.126   4.873   7.352 -0.7773 -0.1343 -0.5192
   29CHL1   C15 2090   0.980   4.734   7.430 -0.2074 -0.5682 -0.0894
   29CHL1  H15A 2091   0.874   4.708   7.407  0.1980 -2.0473 -0.4492
   29CHL1  H15B 2092   1.032   4.643   7.394 -2.3159 -1.1597 -1.8875
   29CHL1   C16 2093   0.987   4.766   7.583  1.7314 -0.1887 -0.5771
   29CHL1  H16A 2094   0.890   4.753   7.635  1.2931 -0.9500 -1.5622
   29CHL1  H16B 2095   1.066   4.703   7.628  0.5960 -1.2810 -0.0489
   29CHL1   C17 2096   1.022   4.919   7.586  0.4154  0.2714 -0.2674
   29CHL1   H17 2097   1.133   4.919   7.594  0.2857  0.7833  3.2653
   29CHL1   C13 2098   0.982   4.983   7.452  0.0363  0.0249  0.6822
   29CHL1   C18 2099   0.828   5.000   7.450 -0.1512 -0.1267  0.6581
   29CHL1  H18A 2100   0.776   5.040   7.361  0.7631  1.0891  0.6440
   29CHL1  H18B 2101   0.784   4.906   7.490 -0.4619 -0.8783 -1.3760
   29CHL1  H18C 2102   0.808   5.077   7.528  0.9460  0.8569  0.0002
   29CHL1   C12 2103   1.055   5.106   7.402  0.3181  0.1575  0.0279
   29CHL1  H12A 2104   1.036   5.197   7.461  1.9960  0.3296  0.3630
   29CHL1  H12B 2105   1.165   5.090   7.408 -0.0730 -2.8449  1.2182
   29CHL1   C11 2106   1.015   5.137   7.256  0.1056  0.4721 -0.4503
   29CHL1  H11A 2107   0.909   5.171   7.258  0.0517  0.3075 -0.5584
   29CHL1  H11B 2108   1.076   5.225   7.229  0.1626  0.4404 -0.4241
   29CHL1    C9 2109   1.014   5.016   7.166 -0.1002  0.0953  0.6669
   29CHL1    H9 2110   1.119   4.982   7.158 -0.7271 -2.1301  1.2659
   29CHL1   C10 2111   0.965   5.034   7.016  0.2478  0.7334 -1.4774
   29CHL1   C19 2112   0.826   5.101   7.027  0.0209  0.2440  0.8543
   29CHL1  H19A 2113   0.829   5.198   7.082 -0.4921  0.9830 -0.3607
   29CHL1  H19B 2114   0.778   5.128   6.931  0.2389  0.5064  0.8157
   29CHL1  H19C 2115   0.754   5.029   7.070 -0.5919  0.8896  0.9284
   29CHL1    C1 2116   1.073   5.122   6.940  0.2031 -0.5792 -0.0347
   29CHL1   H1A 2117   1.069   5.221   6.991 -0.6378 -0.6716  0.1012
   29CHL1   H1B 2118   1.168   5.065   6.948 -0.4085 -1.5192  0.8210
   29CHL1    C2 2119   1.052   5.136   6.791  1.2481 -0.1424  0.0407
   29CHL1   H2A 2120   1.143   5.184   6.749 -0.1850  1.3793 -1.4792
   29CHL1   H2B 2121   0.962   5.199   6.778 -0.0698 -1.4518  2.2407
   29CHL1   C20 2122   0.972   4.982   7.714  0.4020 -0.3519  0.1549
   29CHL1   H20 2123   0.862   4.968   7.708  0.3120 -0.9309  2.2122
   29CHL1   C21 2124   0.997   5.133   7.729  0.2471 -0.5506 -0.3366
   29CHL1  H21A 2125   0.931   5.198   7.668 -1.5430  0.7069  2.7286
   29CHL1  H21B 2126   1.101   5.156   7.696  0.1659  0.0895 -0.1651
   29CHL1  H21C 2127   0.976   5.149   7.837  0.0947  1.5848 -0.6498
   29CHL1   C22 2128   1.008   4.893   7.840  0.4073 -0.1722 -0.6276
   29CHL1  H22A 2129   0.963   4.792   7.833 -1.4499  0.5795 -0.0987
   29CHL1  H22B 2130   1.119   4.889   7.851  0.5512 -0.0094 -1.8212
   29CHL1   C23 2131   0.962   4.944   7.975 -0.2435 -0.4446 -0.5964
   29CHL1  H23A 2132   1.025   5.031   8.000 -1.1112  0.9140 -2.8137
   29CHL1  H23B 2133   0.856   4.975   7.984 -0.4329 -1.3648  0.4818
   29CHL1   C24 2134   0.979   4.835   8.082 -0.6280  0.2552 -0.3833
   29CHL1  H24A 2135   0.925   4.741   8.061 -2.0801  0.2916  2.7652
   29CHL1  H24B 2136   1.088   4.812   8.084 -0.3604  1.4875  0.4104
   29CHL1   C25 2137   0.939   4.865   8.229  0.0985 -0.4180 -0.2269
   29CHL1   H25 2138   0.991   4.961   8.251 -0.4385  0.0619 -1.0074
   29CHL1   C26 2139   0.791   4.880   8.254 -0.5035  0.4147 -0.4470
   29CHL1  H26A 2140   0.762   4.906   8.358  1.9971 -0.8077  0.6395
   29CHL1  H26B 2141   0.762   4.965   8.189  2.4621  1.6616 -0.2741
   29CHL1  H26C 2142   0.727   4.793   8.228 -1.6456  1.0010  0.3089
   29CHL1   C27 2143   0.990   4.758   8.323 -0.5372  0.3122  0.3601
   29CHL1  H27A 2144   0.971   4.778   8.431 -1.5963 -0.7429  0.3920
   29CHL1  H27B 2145   0.940   4.664   8.290 -1.5426  0.8447  0.3443
   29CHL1  H27C 2146   1.099   4.750   8.301 -0.1973  1.6117  1.4643
   30CHL1    C3 2147   5.602   0.920   7.336  0.2923  0.3334 -0.1692
   30CHL1    H3 2148   5.501   0.936   7.293  1.0352  0.9299 -1.7652
   30CHL1    O3 2149   5.683   0.920   7.218  0.2813 -0.1856 -0.1922
   30CHL1   H3' 2150   5.644   0.854   7.161  0.7151 -0.9259  0.3549
   30CHL1    C4 2151   5.644   1.035   7.426  0.2159  0.2577 -0.2033
   30CHL1   H4A 2152   5.748   1.011   7.457  0.0823  0.3040  0.2846
   30CHL1   H4B 2153   5.640   1.129   7.366 -1.9880 -0.7353 -1.7723
   30CHL1    C5 2154   5.565   1.035   7.558 -0.2551 -0.6821  0.4582
   30CHL1    C6 2155   5.496   1.147   7.588  0.2375 -0.2164 -0.4215
   30CHL1    H6 2156   5.524   1.235   7.528  0.9188 -0.9854 -1.2481
   30CHL1    C7 2157   5.410   1.158   7.708 -0.3656  0.1986 -0.4802
   30CHL1   H7A 2158   5.422   1.263   7.744  0.4980  0.8769 -2.5844
   30CHL1   H7B 2159   5.306   1.138   7.675 -0.5347  1.3314 -0.6907
   30CHL1    C8 2160   5.451   1.044   7.813  0.4595  0.3535 -0.1680
   30CHL1    H8 2161   5.554   1.070   7.847 -0.2829  2.4513  0.6194
   30CHL1   C14 2162   5.345   1.048   7.916 -0.3916 -0.3528 -0.2130
   30CHL1   H14 2163   5.250   1.020   7.865 -0.6329 -1.3299  0.7431
   30CHL1   C15 2164   5.304   1.176   7.987 -0.4729  0.1071 -0.3197
   30CHL1  H15A 2165   5.399   1.227   8.017 -3.0958  5.5306 -0.0308
   30CHL1  H15B 2166   5.259   1.258   7.927  2.4747  0.7764 -1.8181
   30CHL1   C16 2167   5.222   1.125   8.112  0.4082 -0.5623  0.7971
   30CHL1  H16A 2168   5.249   1.183   8.203  0.7752  1.1387 -0.3308
   30CHL1  H16B 2169   5.119   1.164   8.096  0.6982 -0.4328 -0.9409
   30CHL1   C17 2170   5.238   0.973   8.121  0.5754  0.3264  0.6115
   30CHL1   H17 2171   5.153   0.931   8.063  1.9508 -1.7401  0.0108
   30CHL1   C13 2172   5.353   0.946   8.030 -0.0086  0.1290  0.4294
   30CHL1   C18 2173   5.491   0.975   8.102  0.0879 -0.5390 -0.3156
   30CHL1  H18A 2174   5.494   1.071   8.157  1.8434 -0.5650 -0.2977
   30CHL1  H18B 2175   5.515   0.898   8.178  1.9153 -0.2482 -0.5587
   30CHL1  H18C 2176   5.567   0.970   8.021  0.7303  2.0437  0.0550
   30CHL1   C12 2177   5.346   0.810   7.967  0.3203 -0.1108 -0.7909
   30CHL1  H12A 2178   5.360   0.732   8.045  1.1712 -0.5551 -1.3761
   30CHL1  H12B 2179   5.245   0.796   7.921 -0.5377 -0.1269  0.9995
   30CHL1   C11 2180   5.439   0.789   7.850 -0.2585  0.1703  0.4284
   30CHL1  H11A 2181   5.533   0.783   7.908  0.5997  1.8522 -0.7091
   30CHL1  H11B 2182   5.414   0.697   7.793 -0.1019  0.6905 -0.5092
   30CHL1    C9 2183   5.438   0.908   7.746 -0.3104  0.5595 -0.1550
   30CHL1    H9 2184   5.340   0.901   7.694 -1.0919  5.2176  0.3088
   30CHL1   C10 2185   5.545   0.900   7.638  0.0053 -0.2751  0.2973
   30CHL1   C19 2186   5.679   0.844   7.704  0.0937  0.6020  0.1910
   30CHL1  H19A 2187   5.674   0.739   7.740  0.6071  0.5948  0.2457
   30CHL1  H19B 2188   5.757   0.837   7.625 -1.1012  0.8327 -1.0425
   30CHL1  H19C 2189   5.711   0.906   7.791 -1.1343  1.2795  0.1836
   30CHL1    C1 2190   5.510   0.792   7.530 -0.5813 -0.8455  0.4291
   30CHL1   H1A 2191   5.490   0.696   7.581 -0.9837  0.2574  2.4573
   30CHL1   H1B 2192   5.412   0.817   7.484 -1.0235 -2.3325  0.5400
   30CHL1    C2 2193   5.604   0.786   7.408  0.1261 -0.5198 -0.2628
   30CHL1   H2A 2194   5.568   0.706   7.340 -3.4210 -0.1250  0.9384
   30CHL1   H2B 2195   5.704   0.759   7.448  0.4591  0.0070 -0.7222
   30CHL1   C20 2196   5.228   0.898   8.249  0.0751 -0.7517  0.6868
   30CHL1   H20 2197   5.287   0.804   8.237  0.0074 -0.8537  1.1169
   30CHL1   C21 2198   5.080   0.850   8.280  0.4148 -0.9477  0.0113
   30CHL1  H21A 2199   5.041   0.788   8.196 -1.3069  0.2946 -0.1570
   30CHL1  H21B 2200   5.023   0.945   8.285  0.4219 -0.7008 -2.7374
   30CHL1  H21C 2201   5.076   0.791   8.374  1.1669 -1.7788 -0.4673
   30CHL1   C22 2202   5.284   0.971   8.378 -0.2729  0.0867 -0.1244
   30CHL1  H22A 2203   5.388   1.003   8.354 -0.3310  0.6238  0.3098
   30CHL1  H22B 2204   5.221   1.059   8.400 -1.1237 -0.0135 -2.0298
   30CHL1   C23 2205   5.280   0.884   8.506 -0.1018 -0.0973 -0.9349
   30CHL1  H23A 2206   5.176   0.885   8.544  0.6608  2.5868  1.4711
   30CHL1  H23B 2207   5.323   0.784   8.487  0.5456  0.4965 -2.8779
   30CHL1   C24 2208   5.386   0.935   8.609  0.5001  0.0615  0.8351
   30CHL1  H24A 2209   5.480   0.946   8.552  0.2025 -0.8208  0.1504
   30CHL1  H24B 2210   5.367   1.039   8.642 -0.8338 -0.5365  2.0917
   30CHL1   C25 2211   5.390   0.849   8.738  0.4580 -0.2467  0.1712
   30CHL1   H25 2212   5.406   0.741   8.719 -0.9245 -0.3618 -0.4306
   30CHL1   C26 2213   5.503   0.902   8.828 -0.7134 -0.3139  0.4161
   30CHL1  H26A 2214   5.485   1.009   8.851  0.5743  0.0736 -0.2618
   30CHL1  H26B 2215   5.503   0.854   8.928 -0.0935  2.3330  1.7918
   30CHL1  H26C 2216   5.605   0.893   8.783 -0.8363 -3.5575  0.5252
   30CHL1   C27 2217   5.261   0.848   8.818  0.0090  0.1291  0.2893
   30CHL1  H27A 2218   5.279   0.809   8.921 -0.1798 -1.2857 -0.1908
   30CHL1  H27B 2219   5.214   0.949   8.821 -0.7227 -0.1798  3.7864
   30CHL1  H27C 2220   5.188   0.779   8.771  2.6462 -1.3944 -1.8266
   31CHL1    C3 2221   5.486   4.449   6.596 -0.8044 -0.2609 -0.3555
   31CHL1    H3 2222   5.382   4.426   6.625  0.1642 -2.8666  1.5334
   31CHL1    O3 2223   5.489   4.468   6.453 -0.4171  0.4688  0.5474
   31CHL1   H3' 2224   5.581   4.481   6.429  0.2936 -2.9272  0.8780
   31CHL1    C4 2225   5.548   4.571   6.669  0.2649 -0.3791  0.3780
   31CHL1   H4A 2226   5.654   4.583   6.637  0.1575  1.7324  0.6998
   31CHL1   H4B 2227   5.496   4.660   6.627  0.6227 -0.2557  0.1922
   31CHL1    C5 2228   5.550   4.565   6.819  1.0520 -0.2683 -0.1401
   31CHL1    C6 2229   5.487   4.654   6.901  0.4558 -0.2922  0.3341
   31CHL1    H6 2230   5.436   4.741   6.859 -2.5702 -3.2837 -2.9310
   31CHL1    C7 2231   5.490   4.640   7.050  0.0006  0.2066 -0.8911
   31CHL1   H7A 2232   5.525   4.731   7.102  1.1312 -0.2151 -0.8826
   31CHL1   H7B 2233   5.388   4.611   7.085 -0.2245  2.6672  0.7474
   31CHL1    C8 2234   5.590   4.532   7.105 -0.0041  0.1444  0.1756
   31CHL1    H8 2235   5.686   4.587   7.113  0.4009 -0.6564  0.9978
   31CHL1   C14 2236   5.554   4.491   7.249 -0.0157  0.7625 -1.0090
   31CHL1   H14 2237   5.458   4.438   7.233  0.3750 -0.3669  0.2676
   31CHL1   C15 2238   5.523   4.599   7.355 -0.5926 -0.0069 -0.3516
   31CHL1  H15A 2239   5.593   4.686   7.346 -0.2637  0.0273  2.0104
   31CHL1  H15B 2240   5.422   4.642   7.341 -0.4593  1.3163  2.1828
   31CHL1   C16 2241   5.537   4.530   7.491 -0.0713  0.4623  0.2375
   31CHL1  H16A 2242   5.611   4.573   7.561  0.2997 -0.7242  0.5982
   31CHL1  H16B 2243   5.442   4.545   7.545 -0.7265  0.4269 -0.8641
   31CHL1   C17 2244   5.576   4.381   7.461 -0.5734 -0.3750 -0.2225
   31CHL1   H17 2245   5.483   4.325   7.437 -0.6615 -1.0193  1.5174
   31CHL1   C13 2246   5.641   4.397   7.326  0.2155 -0.0517 -0.0270
   31CHL1   C18 2247   5.780   4.459   7.339 -0.4530  0.0039 -0.4187
   31CHL1  H18A 2248   5.852   4.394   7.392 -0.4832 -1.7994 -2.4630
   31CHL1  H18B 2249   5.832   4.472   7.241  2.0715  0.9947  0.9461
   31CHL1  H18C 2250   5.767   4.557   7.389 -1.2708 -0.9076  1.2181
   31CHL1   C12 2251   5.647   4.272   7.240  0.6694  0.2998  0.2145
   31CHL1  H12A 2252   5.721   4.204   7.287 -1.0198  0.3694  3.2013
   31CHL1  H12B 2253   5.549   4.220   7.233  0.0907  0.9744  2.5331
   31CHL1   C11 2254   5.693   4.301   7.091  0.6711 -0.4753 -0.0237
   31CHL1  H11A 2255   5.789   4.357   7.097  0.2964  0.6330 -2.7231
   31CHL1  H11B 2256   5.705   4.216   7.020  3.1421 -1.2077  1.1687
   31CHL1    C9 2257   5.596   4.409   7.023 -0.4671  0.5686  0.2480
   31CHL1    H9 2258   5.498   4.356   7.030  0.2798 -1.5009 -2.8786
   31CHL1   C10 2259   5.618   4.438   6.875 -0.5343 -0.1160  0.4740
   31CHL1   C19 2260   5.770   4.452   6.853 -0.3490  0.2175  0.1457
   31CHL1  H19A 2261   5.833   4.530   6.901 -1.0133  0.6522  0.3262
   31CHL1  H19B 2262   5.831   4.365   6.886 -0.1584  0.2354 -0.1616
   31CHL1  H19C 2263   5.796   4.451   6.745 -0.0546  1.9809  0.1642
   31CHL1    C1 2264   5.565   4.311   6.795 -0.0084 -0.5162  0.1014
   31CHL1   H1A 2265   5.619   4.218   6.824 -1.4274 -1.1124  0.9286
   31CHL1   H1B 2266   5.460   4.288   6.824 -0.4335  1.8429  0.6214
   31CHL1    C2 2267   5.573   4.325   6.642  0.8048  0.2343 -0.7251
   31CHL1   H2A 2268   5.522   4.238   6.596 -2.2880  1.4756  0.1518
   31CHL1   H2B 2269   5.676   4.331   6.600 -0.1620 -0.6485 -3.4364
   31CHL1   C20 2270   5.638   4.299   7.576  0.8683 -0.8706  0.4031
   31CHL1   H20 2271   5.748   4.302   7.564  1.1123  1.7115  2.2522
   31CHL1   C21 2272   5.598   4.151   7.557  0.0191  0.1238  0.3229
   31CHL1  H21A 2273   5.491   4.134   7.537  0.6499 -1.0423 -2.4131
   31CHL1  H21B 2274   5.638   4.092   7.643  1.1436 -1.8798 -1.4836
   31CHL1  H21C 2275   5.634   4.110   7.461  2.2184  0.6074  0.8702
   31CHL1   C22 2276   5.593   4.333   7.721  0.3068 -0.1929  0.3320
   31CHL1  H22A 2277   5.486   4.358   7.707  0.6366  1.9585  1.3016
   31CHL1  H22B 2278   5.601   4.238   7.778 -1.2687 -2.1192 -2.4334
   31CHL1   C23 2279   5.680   4.433   7.805 -0.6229  0.6083 -0.4702
   31CHL1  H23A 2280   5.785   4.396   7.812 -1.0345 -0.6453 -0.7120
   31CHL1  H23B 2281   5.688   4.535   7.761 -0.2868  0.4727 -0.7315
   31CHL1   C24 2282   5.634   4.452   7.954  0.1860  0.0533  0.0019
   31CHL1  H24A 2283   5.542   4.515   7.958 -0.0331 -0.2579 -0.1540
   31CHL1  H24B 2284   5.621   4.349   7.991 -2.0591 -0.6611 -2.4214
   31CHL1   C25 2285   5.736   4.522   8.048 -0.3055 -0.5069 -0.8473
   31CHL1   H25 2286   5.831   4.467   8.027  0.8852  1.1399 -0.0340
   31CHL1   C26 2287   5.769   4.665   8.013  0.2233  0.5150 -0.2748
   31CHL1  H26A 2288   5.800   4.684   7.908  3.8772 -0.8444  0.4007
   31CHL1  H26B 2289   5.687   4.735   8.038 -0.1720 -0.9417  3.0069
   31CHL1  H26C 2290   5.854   4.702   8.075  0.3135  0.9712 -0.6641
   31CHL1   C27 2291   5.702   4.523   8.199 -0.8714 -0.7178  0.4326
   31CHL1  H27A 2292   5.796   4.548   8.251 -1.6267 -1.6154  2.3073
   31CHL1  H27B 2293   5.676   4.419   8.228 -0.2326 -0.9181  0.3026
   31CHL1  H27C 2294   5.626   4.602   8.219  1.2642  2.3273 -2.2492
   32CHL1    C3 2295   5.679   1.563   7.000 -0.0532  0.5649  0.2032
   32CHL1    H3 2296   5.602   1.490   7.033 -0.1276  0.3484 -0.4436
   32CHL1    O3 2297   5.666   1.566   6.857  0.1879 -0.2590 -0.4551
   32CHL1   H3' 2298   5.736   1.622   6.824 -0.3537 -0.3826 -1.8932
   32CHL1    C4 2299   5.649   1.697   7.075 -0.0704 -0.6432  0.0129
   32CHL1   H4A 2300   5.730   1.769   7.054 -1.0163  0.9327  1.5276
   32CHL1   H4B 2301   5.560   1.744   7.029 -0.3600 -0.3591  0.8671
   32CHL1    C5 2302   5.645   1.662   7.226 -0.4023 -0.3988 -0.5647
   32CHL1    C6 2303   5.541   1.688   7.305 -0.1733 -0.2261 -0.5204
   32CHL1    H6 2304   5.447   1.715   7.255 -0.2206 -0.2112 -0.4241
   32CHL1    C7 2305   5.526   1.666   7.451  0.1236  1.3218  0.2671
   32CHL1   H7A 2306   5.503   1.758   7.509  0.8707  1.0956  0.9351
   32CHL1   H7B 2307   5.445   1.593   7.473  0.7902  0.2431 -0.7528
   32CHL1    C8 2308   5.655   1.608   7.520 -0.3159 -0.0320 -0.0463
   32CHL1    H8 2309   5.707   1.701   7.551 -0.1586  0.3298 -1.3331
   32CHL1   C14 2310   5.620   1.525   7.637 -0.2050  0.1259 -0.6204
   32CHL1   H14 2311   5.580   1.430   7.597  1.3325 -0.0059 -1.9071
   32CHL1   C15 2312   5.524   1.587   7.739  0.0994  0.2147 -0.2868
   32CHL1  H15A 2313   5.560   1.688   7.770  0.0932  0.2713 -0.4639
   32CHL1  H15B 2314   5.417   1.579   7.713 -0.1115 -0.3487  0.6801
   32CHL1   C16 2315   5.549   1.499   7.866  0.8368 -0.2598  0.1311
   32CHL1  H16A 2316   5.560   1.577   7.944  0.5827  2.7454 -2.6609
   32CHL1  H16B 2317   5.474   1.428   7.909  0.5263 -0.1846 -0.2861
   32CHL1   C17 2318   5.674   1.408   7.843  0.0483 -0.6557  0.4562
   32CHL1   H17 2319   5.643   1.307   7.808 -1.8885 -0.4173  1.3793
   32CHL1   C13 2320   5.737   1.473   7.717  0.0103 -0.2432 -0.1477
   32CHL1   C18 2321   5.828   1.590   7.770 -0.2202  0.0133 -0.2265
   32CHL1  H18A 2322   5.851   1.669   7.696  0.1324 -0.3603 -0.5227
   32CHL1  H18B 2323   5.776   1.626   7.861  0.4016 -2.4657  1.2177
   32CHL1  H18C 2324   5.930   1.549   7.784  0.4706  1.6546 -0.2853
   32CHL1   C12 2325   5.820   1.380   7.618  0.2670  0.3849 -0.5887
   32CHL1  H12A 2326   5.910   1.349   7.675 -0.4537 -0.4482  0.1207
   32CHL1  H12B 2327   5.759   1.290   7.593  1.4305 -0.8684  0.8474
   32CHL1   C11 2328   5.864   1.453   7.489 -0.0438  0.0881  0.9731
   32CHL1  H11A 2329   5.936   1.535   7.512  2.0509 -1.8900  1.8850
   32CHL1  H11B 2330   5.917   1.385   7.419  1.1517  0.9518  1.0145
   32CHL1    C9 2331   5.741   1.528   7.421  0.3647 -0.4740 -0.3440
   32CHL1    H9 2332   5.683   1.438   7.392  1.1441 -0.8496 -0.7804
   32CHL1   C10 2333   5.775   1.599   7.282  0.0944  0.8541  0.2330
   32CHL1   C19 2334   5.880   1.710   7.313  0.5023 -0.0968  0.6528
   32CHL1  H19A 2335   5.831   1.780   7.384  1.4132 -0.1527  1.3472
   32CHL1  H19B 2336   5.971   1.677   7.366  2.6445 -0.1936 -2.7793
   32CHL1  H19C 2337   5.916   1.771   7.227 -0.2405  0.2493  0.5780
   32CHL1    C1 2338   5.836   1.484   7.187 -0.0843 -0.1524  0.0528
   32CHL1   H1A 2339   5.936   1.443   7.213 -0.0686 -2.1641 -2.6804
   32CHL1   H1B 2340   5.774   1.392   7.195 -2.4026  1.2497 -0.7403
   32CHL1    C2 2341   5.819   1.512   7.039 -0.0644  0.5208  0.5510
   32CHL1   H2A 2342   5.846   1.425   6.976  0.0666  0.8296  0.1734
   32CHL1   H2B 2343   5.889   1.595   7.015 -0.5578  0.6973 -0.3149
   32CHL1   C20 2344   5.758   1.380   7.968  0.3325 -0.4628 -0.1841
   32CHL1   H20 2345   5.804   1.474   8.005  0.0725 -0.5363  0.3324
   32CHL1   C21 2346   5.873   1.288   7.933 -0.3222  0.2614  0.2487
   32CHL1  H21A 2347   5.954   1.338   7.876  1.5047 -0.6166  1.9450
   32CHL1  H21B 2348   5.835   1.202   7.872  1.4787  0.3743 -1.1170
   32CHL1  H21C 2349   5.925   1.246   8.022  0.0598  0.3431  0.0688
   32CHL1   C22 2350   5.655   1.320   8.073  0.0850 -0.4430  0.2079
   32CHL1  H22A 2351   5.578   1.396   8.098 -1.2501 -1.0313 -1.8830
   32CHL1  H22B 2352   5.602   1.231   8.034 -3.6178  3.2278 -4.4685
   32CHL1   C23 2353   5.729   1.278   8.200  0.1188 -0.1641  0.4042
   32CHL1  H23A 2354   5.787   1.188   8.169  0.3784  0.5419 -1.2948
   32CHL1  H23B 2355   5.801   1.359   8.222 -0.6886  0.8486 -0.5281
   32CHL1   C24 2356   5.646   1.269   8.324 -0.0577  0.3557  0.0112
   32CHL1  H24A 2357   5.605   1.368   8.352 -0.6396  0.5151 -1.3314
   32CHL1  H24B 2358   5.552   1.211   8.309 -0.0753  0.9905 -2.9535
   32CHL1   C25 2359   5.715   1.207   8.446  0.7149 -0.5987 -0.0228
   32CHL1   H25 2360   5.812   1.261   8.453  1.7724 -2.3231 -0.7752
   32CHL1   C26 2361   5.624   1.241   8.570 -0.5035  0.3783  0.4408
   32CHL1  H26A 2362   5.616   1.351   8.579 -0.6902  0.4189 -0.2413
   32CHL1  H26B 2363   5.525   1.197   8.548  0.0649  0.0544 -1.6226
   32CHL1  H26C 2364   5.679   1.197   8.657 -0.5105 -0.0084  0.2511
   32CHL1   C27 2365   5.729   1.052   8.423  0.0538  0.1161  0.2646
   32CHL1  H27A 2366   5.629   1.009   8.401  0.2354  0.3992 -1.1628
   32CHL1  H27B 2367   5.781   1.036   8.327  0.0249 -1.1886  0.4485
   32CHL1  H27C 2368   5.792   1.007   8.503  1.4477  2.1040  0.3697
   33CHL1    C3 2369   2.898   2.306   6.661  0.4283  0.1714  0.0737
   33CHL1    H3 2370   2.848   2.208   6.646 -3.1096  1.6763  0.7496
   33CHL1    O3 2371   2.921   2.362   6.535  0.2234 -0.5641  0.6318
   33CHL1   H3' 2372   2.986   2.431   6.549 -0.3610  0.3631 -0.9125
   33CHL1    C4 2373   2.806   2.403   6.735 -0.0828  0.3049 -0.7071
   33CHL1   H4A 2374   2.841   2.508   6.727 -1.2309  0.8421  0.8219
   33CHL1   H4B 2375   2.711   2.415   6.679  1.2213  4.4584 -2.4543
   33CHL1    C5 2376   2.783   2.381   6.885 -0.7185 -0.0816  0.2049
   33CHL1    C6 2377   2.664   2.364   6.939  0.1986 -0.3827  0.3868
   33CHL1    H6 2378   2.574   2.373   6.876  1.7032  0.1822 -1.7728
   33CHL1    C7 2379   2.648   2.338   7.085 -0.1082  0.3027  0.1669
   33CHL1   H7A 2380   2.573   2.407   7.129  2.3626  2.8683  0.6214
   33CHL1   H7B 2381   2.643   2.229   7.105  0.3209  0.1689 -0.4598
   33CHL1    C8 2382   2.775   2.362   7.167  0.1945 -0.0042 -0.0977
   33CHL1    H8 2383   2.786   2.472   7.174  0.8395 -0.0158 -0.8578
   33CHL1   C14 2384   2.757   2.297   7.303 -0.1965 -0.8580 -0.4890
   33CHL1   H14 2385   2.770   2.187   7.293 -1.3299 -1.4134  2.7514
   33CHL1   C15 2386   2.621   2.306   7.376  0.1764  0.5332 -0.3846
   33CHL1  H15A 2387   2.587   2.411   7.372  1.4978  1.0768  1.3872
   33CHL1  H15B 2388   2.538   2.251   7.326  0.3458 -1.0644  1.0125
   33CHL1   C16 2389   2.653   2.277   7.522 -0.5825 -0.2374 -0.4689
   33CHL1  H16A 2390   2.622   2.362   7.587 -1.7228 -1.2252  0.3256
   33CHL1  H16B 2391   2.596   2.189   7.560 -0.0733 -0.8371 -1.0764
   33CHL1   C17 2392   2.807   2.255   7.531  0.3299 -0.2367 -0.2295
   33CHL1   H17 2393   2.830   2.148   7.512  1.6520 -0.1615  0.7652
   33CHL1   C13 2394   2.867   2.333   7.409  0.0203  0.5387  1.0262
   33CHL1   C18 2395   2.872   2.484   7.428  0.2997  0.5013  0.1380
   33CHL1  H18A 2396   2.790   2.527   7.489 -0.5761 -0.8791 -0.0304
   33CHL1  H18B 2397   2.970   2.510   7.474  1.1420 -1.1933 -0.6263
   33CHL1  H18C 2398   2.866   2.551   7.339 -2.1588 -1.4250 -1.2723
   33CHL1   C12 2399   3.001   2.280   7.347 -0.9319 -0.0184  0.2535
   33CHL1  H12A 2400   3.090   2.297   7.410 -0.8028 -2.4340  0.8319
   33CHL1  H12B 2401   2.995   2.169   7.336  1.6865 -0.0952 -1.2743
   33CHL1   C11 2402   3.027   2.333   7.199  0.1654  0.0295 -0.2683
   33CHL1  H11A 2403   3.043   2.442   7.208 -2.1685  0.4478 -0.6040
   33CHL1  H11B 2404   3.117   2.275   7.168  1.2092  1.5363 -0.1837
   33CHL1    C9 2405   2.903   2.312   7.101  0.4124  0.5173  0.7266
   33CHL1    H9 2406   2.880   2.204   7.087  1.0198  0.7195 -2.5720
   33CHL1   C10 2407   2.920   2.370   6.955 -0.3008  0.4967 -0.1708
   33CHL1   C19 2408   2.999   2.507   6.963 -0.1200  0.6408  0.0524
   33CHL1  H19A 2409   3.010   2.548   6.861 -1.8043  0.0805 -0.3805
   33CHL1  H19B 2410   2.949   2.577   7.034  1.1653  3.6707 -1.8104
   33CHL1  H19C 2411   3.098   2.488   7.010 -0.3343 -0.9821 -0.1035
   33CHL1    C1 2412   3.005   2.257   6.883 -0.3200  0.4220 -0.4327
   33CHL1   H1A 2413   3.100   2.234   6.935 -1.2148  0.6436  1.3735
   33CHL1   H1B 2414   2.933   2.173   6.889 -1.4795  1.3390 -0.8844
   33CHL1    C2 2415   3.035   2.289   6.735  0.3144  1.3110  0.9748
   33CHL1   H2A 2416   3.093   2.215   6.677 -0.8114  1.3872 -0.2881
   33CHL1   H2B 2417   3.086   2.388   6.732  2.3046  0.3262  0.8485
   33CHL1   C20 2418   2.859   2.282   7.678 -0.6577  0.6988 -0.1766
   33CHL1   H20 2419   2.852   2.384   7.721 -0.5764 -0.1516  1.9743
   33CHL1   C21 2420   3.005   2.239   7.667  0.2030  0.2716  0.0078
   33CHL1  H21A 2421   3.061   2.320   7.615 -0.2031  0.5447 -0.0149
   33CHL1  H21B 2422   3.025   2.137   7.629  1.0050  0.6117 -0.5104
   33CHL1  H21C 2423   3.043   2.237   7.771 -0.2503 -0.3453  0.1690
   33CHL1   C22 2424   2.795   2.171   7.772  0.0348  0.1911 -1.1663
   33CHL1  H22A 2425   2.686   2.161   7.753 -0.6437  0.0742  2.1218
   33CHL1  H22B 2426   2.848   2.075   7.751  0.5910 -0.0536  1.1090
   33CHL1   C23 2427   2.814   2.202   7.919 -0.9802 -0.2042  0.7554
   33CHL1  H23A 2428   2.919   2.179   7.947  0.1096 -0.9825 -3.3442
   33CHL1  H23B 2429   2.790   2.307   7.946 -1.4699 -0.0418 -0.2884
   33CHL1   C24 2430   2.720   2.102   7.998  0.4243 -0.1967 -0.1214
   33CHL1  H24A 2431   2.614   2.126   7.978  0.6280  2.6633  1.6476
   33CHL1  H24B 2432   2.738   2.001   7.958  0.8347  0.5397 -1.8846
   33CHL1   C25 2433   2.729   2.102   8.149  0.5924  0.0624  0.4953
   33CHL1   H25 2434   2.713   2.204   8.190  0.0653  0.5128 -0.7683
   33CHL1   C26 2435   2.607   2.030   8.209  0.6302  0.5900 -0.1327
   33CHL1  H26A 2436   2.607   2.048   8.319 -2.4290  1.2353 -0.1626
   33CHL1  H26B 2437   2.511   2.060   8.163 -0.7643 -1.6364  1.1001
   33CHL1  H26C 2438   2.618   1.921   8.189 -0.5995  0.3793  0.2452
   33CHL1   C27 2439   2.856   2.033   8.193  0.1260  0.0970 -0.3705
   33CHL1  H27A 2440   2.864   2.023   8.304 -2.6115  0.0582 -0.1124
   33CHL1  H27B 2441   2.867   1.935   8.141  0.3196  0.0225 -0.1908
   33CHL1  H27C 2442   2.938   2.101   8.161  1.1905 -0.6157  0.7425
   34CHL1    C3 2443   1.266   1.903   6.987 -0.2896  0.1300 -0.1497
   34CHL1    H3 2444   1.164   1.867   7.012 -0.3834  0.6582  0.2391
   34CHL1    O3 2445   1.276   1.920   6.844 -0.1511 -0.7092  0.3271
   34CHL1   H3' 2446   1.369   1.929   6.822 -0.5565 -1.8114 -2.1784
   34CHL1    C4 2447   1.311   2.037   7.066  0.2451  0.0946 -0.0637
   34CHL1   H4A 2448   1.407   2.072   7.022 -0.1877  0.0494 -1.0616
   34CHL1   H4B 2449   1.228   2.107   7.042  0.4216  1.4373  2.8190
   34CHL1    C5 2450   1.314   2.023   7.218  0.5939  0.9553  0.2886
   34CHL1    C6 2451   1.255   2.103   7.306  0.0690  0.4346 -0.0758
   34CHL1    H6 2452   1.205   2.196   7.275  0.2902  0.9323  0.9905
   34CHL1    C7 2453   1.253   2.087   7.457  0.3895 -0.3284  0.2722
   34CHL1   H7A 2454   1.270   2.191   7.491 -1.8460  0.4622 -0.8085
   34CHL1   H7B 2455   1.153   2.058   7.497 -0.1937  1.9517  0.6377
   34CHL1    C8 2456   1.356   1.987   7.508 -0.4097 -0.5553  0.9747
   34CHL1    H8 2457   1.454   2.040   7.506 -0.5282 -0.3535 -0.4368
   34CHL1   C14 2458   1.322   1.945   7.648 -0.6983 -0.3486 -0.7145
   34CHL1   H14 2459   1.233   1.879   7.637 -0.2260 -0.8443 -1.6849
   34CHL1   C15 2460   1.298   2.057   7.749 -0.1455  0.0756  0.0915
   34CHL1  H15A 2461   1.380   2.131   7.740 -1.9065  1.9202 -2.7349
   34CHL1  H15B 2462   1.214   2.124   7.721  1.1524  0.8869 -2.1341
   34CHL1   C16 2463   1.298   1.983   7.875 -0.4868  0.1918  0.1340
   34CHL1  H16A 2464   1.370   2.037   7.940  0.0352  0.8819 -0.9937
   34CHL1  H16B 2465   1.203   1.973   7.931 -1.0826 -1.0075 -1.0628
   34CHL1   C17 2466   1.343   1.836   7.861 -0.4824  0.3248 -0.3572
   34CHL1   H17 2467   1.257   1.768   7.847  0.0151 -0.0452 -1.6957
   34CHL1   C13 2468   1.413   1.837   7.722 -0.0454 -0.4673 -0.0679
   34CHL1   C18 2469   1.556   1.892   7.749 -0.1031 -0.4609 -0.7895
   34CHL1  H18A 2470   1.594   1.949   7.662  2.0813  1.7269  1.4119
   34CHL1  H18B 2471   1.562   1.976   7.822 -1.4000  1.4998 -2.8218
   34CHL1  H18C 2472   1.629   1.817   7.788  0.0422  0.2280  0.3149
   34CHL1   C12 2473   1.428   1.716   7.624 -0.0845 -0.2442  0.7844
   34CHL1  H12A 2474   1.496   1.638   7.665 -2.5426 -1.5355  2.6726
   34CHL1  H12B 2475   1.341   1.649   7.616  0.1249 -0.7910  2.5935
   34CHL1   C11 2476   1.473   1.764   7.491 -1.1447 -0.0048  0.1182
   34CHL1  H11A 2477   1.576   1.805   7.498 -0.2796 -2.1129  0.6059
   34CHL1  H11B 2478   1.493   1.672   7.431  1.4065 -0.3016  1.2603
   34CHL1    C9 2479   1.368   1.858   7.417 -0.6884 -0.3956 -0.0592
   34CHL1    H9 2480   1.271   1.804   7.421 -0.1257 -1.4001  0.7864
   34CHL1   C10 2481   1.387   1.893   7.269 -0.4206  0.3637 -0.5403
   34CHL1   C19 2482   1.545   1.927   7.254 -0.9892 -0.5855  0.2996
   34CHL1  H19A 2483   1.566   1.965   7.152 -0.9267 -1.3298  0.0339
   34CHL1  H19B 2484   1.587   1.994   7.332  2.8237  0.9293 -2.7368
   34CHL1  H19C 2485   1.604   1.833   7.255 -0.0435 -0.0382  2.5526
   34CHL1    C1 2486   1.356   1.767   7.181 -0.0192 -0.5828 -0.3911
   34CHL1   H1A 2487   1.433   1.693   7.209  2.6800  1.9641 -0.5512
   34CHL1   H1B 2488   1.254   1.727   7.201  1.1184 -2.9647  1.0847
   34CHL1    C2 2489   1.368   1.801   7.030  0.6074 -0.0680 -0.0722
   34CHL1   H2A 2490   1.344   1.707   6.976 -0.2011 -0.9499  1.7000
   34CHL1   H2B 2491   1.472   1.836   7.014  0.1968  1.3448  0.2726
   34CHL1   C20 2492   1.423   1.774   7.987 -0.4277  0.1491 -0.2321
   34CHL1   H20 2493   1.528   1.811   7.998 -0.0061 -1.3044  0.9826
   34CHL1   C21 2494   1.453   1.625   7.953  1.0149 -0.1973  0.3395
   34CHL1  H21A 2495   1.365   1.591   7.894 -0.5068  2.3039  1.0167
   34CHL1  H21B 2496   1.474   1.559   8.040 -0.2163  0.2639  1.0146
   34CHL1  H21C 2497   1.534   1.602   7.880  0.6119  0.2878 -0.2748
   34CHL1   C22 2498   1.357   1.791   8.120  0.2599 -0.0610 -0.5168
   34CHL1  H22A 2499   1.413   1.730   8.193 -0.1256  0.0346 -0.1342
   34CHL1  H22B 2500   1.358   1.896   8.156  1.4324 -1.2075  3.2377
   34CHL1   C23 2501   1.211   1.747   8.114 -0.1150  0.4673  0.0641
   34CHL1  H23A 2502   1.153   1.835   8.079  1.1029  0.5332 -1.9412
   34CHL1  H23B 2503   1.215   1.663   8.042  2.9916 -1.2481  2.0023
   34CHL1   C24 2504   1.131   1.712   8.249 -0.5108  0.1822  0.4400
   34CHL1  H24A 2505   1.189   1.621   8.279 -0.9324 -0.6364 -1.0927
   34CHL1  H24B 2506   1.137   1.777   8.338  1.5228 -2.3264  2.2912
   34CHL1   C25 2507   0.990   1.678   8.217  0.6826 -0.3508  0.3785
   34CHL1   H25 2508   0.988   1.614   8.126  0.2822  2.5319 -1.7785
   34CHL1   C26 2509   0.917   1.598   8.326  0.3328 -0.0935  0.0025
   34CHL1  H26A 2510   0.984   1.527   8.377  3.3645  2.5822  0.0683
   34CHL1  H26B 2511   0.898   1.668   8.410  1.1155 -0.7128  0.7174
   34CHL1  H26C 2512   0.823   1.546   8.296  0.5604  0.3203 -1.5504
   34CHL1   C27 2513   0.905   1.804   8.188  0.0498 -0.4633 -0.5246
   34CHL1  H27A 2514   0.801   1.773   8.165 -0.6530 -0.1968  2.0155
   34CHL1  H27B 2515   0.899   1.856   8.286  3.7160 -3.5033  1.5610
   34CHL1  H27C 2516   0.941   1.874   8.109 -1.7713 -0.8547 -1.7531
   35CHL1    C3 2517   5.291   0.285   6.926 -0.9047 -0.1654  0.2372
   35CHL1    H3 2518   5.284   0.177   6.947 -0.6549  0.1642  2.2607
   35CHL1    O3 2519   5.314   0.305   6.784 -0.5550  0.0073  0.0392
   35CHL1   H3' 2520   5.382   0.373   6.777 -0.4799 -0.0358  0.3201
   35CHL1    C4 2521   5.146   0.336   6.958  0.3149 -0.1653 -0.1393
   35CHL1   H4A 2522   5.135   0.438   6.916 -0.0723  0.0847  0.5519
   35CHL1   H4B 2523   5.080   0.275   6.894 -0.2839  0.7957 -0.4643
   35CHL1    C5 2524   5.126   0.333   7.109  1.0538 -0.0565  0.3736
   35CHL1    C6 2525   5.015   0.274   7.157 -0.4190  0.5368  0.4983
   35CHL1    H6 2526   4.931   0.238   7.096  0.6296  1.1640 -1.3934
   35CHL1    C7 2527   4.983   0.271   7.303  0.1718  0.6212 -0.0339
   35CHL1   H7A 2528   4.874   0.293   7.310 -0.2106 -1.2641  0.6106
   35CHL1   H7B 2529   4.998   0.166   7.337  0.2324  0.5499 -0.2762
   35CHL1    C8 2530   5.059   0.378   7.383  0.4567  0.1589  0.0029
   35CHL1    H8 2531   5.021   0.480   7.359 -2.7135 -0.6926  0.9025
   35CHL1   C14 2532   5.037   0.345   7.529  0.2895  0.1187 -0.5023
   35CHL1   H14 2533   5.095   0.255   7.558  3.3143  1.7946 -0.9365
   35CHL1   C15 2534   4.893   0.314   7.574  0.2584 -0.1574 -0.7480
   35CHL1  H15A 2535   4.820   0.389   7.536  0.5704  0.6794  0.2426
   35CHL1  H15B 2536   4.852   0.212   7.561 -0.3944 -0.2000  1.2145
   35CHL1   C16 2537   4.918   0.337   7.723  0.4393 -0.2465  0.0315
   35CHL1  H16A 2538   4.844   0.411   7.760  2.3845  2.1707 -0.7176
   35CHL1  H16B 2539   4.898   0.240   7.775 -2.3273  0.0594 -0.3261
   35CHL1   C17 2540   5.056   0.390   7.762  0.0302 -0.4710 -0.2843
   35CHL1   H17 2541   5.115   0.298   7.782 -2.2105 -1.7625  0.7748
   35CHL1   C13 2542   5.097   0.448   7.622  0.1095 -0.3523 -0.9902
   35CHL1   C18 2543   5.045   0.592   7.609  0.6510  0.4187  0.3193
   35CHL1  H18A 2544   4.943   0.609   7.649  0.8705  1.5288  0.4364
   35CHL1  H18B 2545   5.100   0.657   7.681 -1.9177  2.6266  0.4506
   35CHL1  H18C 2546   5.059   0.631   7.505 -1.3267 -0.1068 -0.1778
   35CHL1   C12 2547   5.251   0.457   7.599  0.7953 -0.2295 -1.0007
   35CHL1  H12A 2548   5.309   0.530   7.658 -2.0813  0.1758  1.5834
   35CHL1  H12B 2549   5.287   0.358   7.633 -0.4930 -0.2991  0.2256
   35CHL1   C11 2550   5.295   0.467   7.450  0.3238  0.3577 -0.1561
   35CHL1  H11A 2551   5.279   0.576   7.438 -0.7078  0.0620 -1.7422
   35CHL1  H11B 2552   5.401   0.439   7.436  0.4353  0.7036 -0.0202
   35CHL1    C9 2553   5.212   0.380   7.355  0.1022  0.0742  0.2039
   35CHL1    H9 2554   5.244   0.276   7.381 -1.9367 -0.5694  0.3236
   35CHL1   C10 2555   5.238   0.392   7.197 -0.0093  0.0437  0.3874
   35CHL1   C19 2556   5.240   0.543   7.168 -0.5871  0.1611  0.6824
   35CHL1  H19A 2557   5.245   0.568   7.059 -1.0140 -0.7076  0.4504
   35CHL1  H19B 2558   5.149   0.603   7.188 -0.2307  1.4455 -1.2312
   35CHL1  H19C 2559   5.330   0.587   7.215  0.1988 -1.0608  0.3672
   35CHL1    C1 2560   5.373   0.323   7.161 -0.2316  0.2055  0.8803
   35CHL1   H1A 2561   5.456   0.371   7.216  2.2181 -1.8055 -0.8560
   35CHL1   H1B 2562   5.360   0.217   7.192  2.7269 -0.3600  0.5012
   35CHL1    C2 2563   5.409   0.334   7.012  0.0625  0.1089 -0.5079
   35CHL1   H2A 2564   5.501   0.282   6.979 -0.1060 -0.9786  0.6419
   35CHL1   H2B 2565   5.423   0.440   6.985  2.5543  0.9452  3.3133
   35CHL1   C20 2566   5.055   0.478   7.882 -0.2660  0.4145  0.1720
   35CHL1   H20 2567   4.998   0.572   7.873  0.2008  0.5931 -1.0959
   35CHL1   C21 2568   5.198   0.517   7.918 -0.3860  0.3262 -0.3943
   35CHL1  H21A 2569   5.260   0.432   7.881  0.6881  1.8107 -2.2036
   35CHL1  H21B 2570   5.215   0.537   8.026  0.2039  1.1485 -0.6337
   35CHL1  H21C 2571   5.230   0.609   7.865 -1.0397  0.7613 -0.0443
   35CHL1   C22 2572   4.996   0.393   7.997 -0.1968  0.5035  0.5072
   35CHL1  H22A 2573   4.988   0.452   8.090 -2.4825  0.4873  0.3761
   35CHL1  H22B 2574   4.892   0.365   7.970 -0.0519 -0.4236  0.8455
   35CHL1   C23 2575   5.058   0.259   8.034  0.0131  0.8222 -0.1234
   35CHL1  H23A 2576   5.052   0.182   7.954  0.8017  0.8759 -0.2393
   35CHL1  H23B 2577   5.166   0.267   8.056  0.2556  1.2525 -1.3521
   35CHL1   C24 2578   4.996   0.202   8.161  0.2897  0.3998 -0.9514
   35CHL1  H24A 2579   5.017   0.274   8.243 -0.1701 -0.7869  0.2474
   35CHL1  H24B 2580   4.885   0.198   8.159  0.2270  1.7939 -0.7117
   35CHL1   C25 2581   5.046   0.064   8.217  0.9448 -0.0740 -0.4578
   35CHL1   H25 2582   5.153   0.065   8.185  0.4303 -0.5825 -2.3544
   35CHL1   C26 2583   5.030   0.053   8.372 -0.4325 -0.0766 -0.6673
   35CHL1  H26A 2584   5.060  -0.046   8.411 -0.3644  1.1346  2.6970
   35CHL1  H26B 2585   5.100   0.120   8.426  3.9088 -4.5282 -0.1221
   35CHL1  H26C 2586   4.926   0.071   8.407 -1.7457  0.7784 -4.4872
   35CHL1   C27 2587   4.981  -0.056   8.150 -0.1241  0.4268  0.5282
   35CHL1  H27A 2588   5.027  -0.153   8.178 -1.3532 -0.1414  0.6514
   35CHL1  H27B 2589   4.992  -0.054   8.039  1.6766 -0.4985  0.6563
   35CHL1  H27C 2590   4.872  -0.064   8.170  0.0311  0.1826  1.3153
   36CHL1    C3 2591   3.690   1.079   6.759 -0.1321  0.1016 -0.1713
   36CHL1    H3 2592   3.697   1.189   6.764 -1.6287  0.1719  1.7354
   36CHL1    O3 2593   3.686   1.028   6.628  0.2002  0.4948 -0.8712
   36CHL1   H3' 2594   3.618   0.960   6.630  0.0088  0.6783  1.1564
   36CHL1    C4 2595   3.821   1.017   6.817 -0.1749 -0.5717 -0.2680
   36CHL1   H4A 2596   3.808   0.907   6.804  0.2348 -0.7027  0.4091
   36CHL1   H4B 2597   3.905   1.054   6.756  0.7385 -2.7033 -0.3970
   36CHL1    C5 2598   3.835   1.063   6.960 -0.4662 -0.3345 -0.2816
   36CHL1    C6 2599   3.941   1.141   6.998  0.3882 -0.3431  0.6284
   36CHL1    H6 2600   4.015   1.165   6.920  0.1760  0.3424  0.6361
   36CHL1    C7 2601   3.961   1.192   7.137 -0.0783 -0.4667  0.1083
   36CHL1   H7A 2602   4.066   1.180   7.173 -1.2408 -2.4799  3.3437
   36CHL1   H7B 2603   3.932   1.298   7.145  0.5025 -0.3969  1.5556
   36CHL1    C8 2604   3.882   1.108   7.242  0.2304  0.6366  0.3414
   36CHL1    H8 2605   3.938   1.012   7.250 -0.2482  0.4655  1.9497
   36CHL1   C14 2606   3.886   1.193   7.370 -0.1333  0.3423  0.1389
   36CHL1   H14 2607   3.843   1.295   7.361 -2.3332 -0.4696  0.8127
   36CHL1   C15 2608   4.029   1.201   7.432 -0.0513 -0.6006 -0.3594
   36CHL1  H15A 2609   4.073   1.099   7.438 -0.3029 -0.7454 -0.9827
   36CHL1  H15B 2610   4.089   1.276   7.376 -0.9838  0.9464  0.6302
   36CHL1   C16 2611   4.002   1.254   7.579  0.2068 -0.2900 -0.2095
   36CHL1  H16A 2612   4.060   1.197   7.654  1.2370  1.4802  0.4034
   36CHL1  H16B 2613   4.018   1.364   7.592 -1.6714  0.1635 -1.3220
   36CHL1   C17 2614   3.844   1.235   7.597 -0.2743  0.6009  0.0702
   36CHL1   H17 2615   3.797   1.333   7.574 -1.2300  0.7881  2.5413
   36CHL1   C13 2616   3.801   1.140   7.484 -0.0775  0.3795 -0.5367
   36CHL1   C18 2617   3.848   0.997   7.527 -0.5350 -0.1958 -0.5156
   36CHL1  H18A 2618   3.773   0.964   7.602  0.0683  1.0489  0.6762
   36CHL1  H18B 2619   3.865   0.921   7.447  0.7228 -0.5401  0.0604
   36CHL1  H18C 2620   3.938   0.998   7.591  0.8616  0.5127 -2.3735
   36CHL1   C12 2621   3.653   1.132   7.430  0.7588 -0.1789 -0.5882
   36CHL1  H12A 2622   3.585   1.081   7.502  0.6713  0.9862  0.1904
   36CHL1  H12B 2623   3.611   1.232   7.412 -0.2747 -0.6320 -0.7318
   36CHL1   C11 2624   3.638   1.053   7.299 -0.6002  0.2630  0.6800
   36CHL1  H11A 2625   3.662   0.945   7.315  4.6347  0.5836 -2.8425
   36CHL1  H11B 2626   3.532   1.063   7.267 -0.2271 -0.7799 -1.0012
   36CHL1    C9 2627   3.740   1.091   7.191 -0.1163 -0.4058 -0.3598
   36CHL1    H9 2628   3.713   1.197   7.172 -1.2737 -0.7943 -0.9770
   36CHL1   C10 2629   3.724   1.023   7.056  0.2522  0.6555 -0.5989
   36CHL1   C19 2630   3.731   0.870   7.071  0.7660  0.1701 -0.4522
   36CHL1  H19A 2631   3.640   0.829   7.120  0.7219 -0.2254 -0.8627
   36CHL1  H19B 2632   3.737   0.816   6.975 -1.2132  1.6570 -1.4911
   36CHL1  H19C 2633   3.820   0.842   7.131 -0.3235  1.0452  1.7098
   36CHL1    C1 2634   3.585   1.058   7.000 -0.2556  0.9562 -0.0499
   36CHL1   H1A 2635   3.507   0.996   7.049  1.2490 -1.1288 -0.1034
   36CHL1   H1B 2636   3.571   1.163   7.033  1.1841  1.0126  0.4586
   36CHL1    C2 2637   3.571   1.037   6.849 -0.1249 -0.3925 -0.1278
   36CHL1   H2A 2638   3.493   1.098   6.798  1.2722  1.9053  0.3531
   36CHL1   H2B 2639   3.557   0.928   6.835  2.4341 -0.8115  0.1333
   36CHL1   C20 2640   3.793   1.203   7.732  0.1479 -0.6234  0.5530
   36CHL1   H20 2641   3.805   1.094   7.755  0.0768 -0.2615  2.4400
   36CHL1   C21 2642   3.645   1.237   7.744 -0.0296 -0.2459 -0.3400
   36CHL1  H21A 2643   3.633   1.347   7.738  0.6270 -0.2457 -2.4853
   36CHL1  H21B 2644   3.596   1.191   7.832  1.2105 -0.7962  0.0931
   36CHL1  H21C 2645   3.594   1.198   7.654  1.1734  0.4311 -1.3544
   36CHL1   C22 2646   3.862   1.280   7.853  0.4625  0.1781  0.7622
   36CHL1  H22A 2647   3.971   1.264   7.845  0.1247 -1.1382 -3.1683
   36CHL1  H22B 2648   3.849   1.389   7.835 -4.4956 -0.5481 -1.9701
   36CHL1   C23 2649   3.794   1.246   7.987  0.3575 -0.4743 -0.2185
   36CHL1  H23A 2650   3.844   1.315   8.059 -1.8104  0.7731  0.2170
   36CHL1  H23B 2651   3.687   1.278   7.991  0.6341  1.1389 -3.1128
   36CHL1   C24 2652   3.807   1.101   8.049 -0.4663 -0.4379 -0.3644
   36CHL1  H24A 2653   3.754   1.025   7.988 -0.6011 -0.9203  0.3421
   36CHL1  H24B 2654   3.913   1.069   8.054 -1.0150 -2.3678 -0.5192
   36CHL1   C25 2655   3.735   1.086   8.182 -0.8308 -0.6390 -0.1112
   36CHL1   H25 2656   3.628   1.110   8.163 -0.9030 -1.3965 -0.6790
   36CHL1   C26 2657   3.740   0.942   8.230  0.1972  0.0317 -0.3578
   36CHL1  H26A 2658   3.670   0.939   8.316  1.3202 -1.1470  0.5317
   36CHL1  H26B 2659   3.697   0.873   8.154 -2.3988 -2.0237  2.6958
   36CHL1  H26C 2660   3.842   0.916   8.264 -0.0734  1.3188  1.6403
   36CHL1   C27 2661   3.802   1.180   8.291 -0.3006  0.1962 -0.2957
   36CHL1  H27A 2662   3.788   1.285   8.257  1.0628  0.7302  0.7226
   36CHL1  H27B 2663   3.769   1.152   8.393  1.4352  1.8326  0.7824
   36CHL1  H27C 2664   3.912   1.171   8.299 -0.3335  0.2843  0.3204
   37CHL1    C3 2665   4.832   2.264   6.866  0.4942 -0.4002  0.1988
   37CHL1    H3 2666   4.861   2.370   6.853 -2.8898  0.6388  0.0015
   37CHL1    O3 2667   4.800   2.224   6.742 -0.5392 -0.2126  0.3746
   37CHL1   H3' 2668   4.736   2.153   6.748  1.1430 -1.9991 -1.1274
   37CHL1    C4 2669   4.934   2.172   6.925  0.3937  0.0657 -0.1647
   37CHL1   H4A 2670   4.884   2.073   6.921  0.7446 -0.1301  0.1821
   37CHL1   H4B 2671   5.026   2.179   6.864  0.2284  2.0027 -0.2424
   37CHL1    C5 2672   4.972   2.217   7.066  0.8029 -0.2176  0.6547
   37CHL1    C6 2673   5.101   2.239   7.104  0.7042  0.3261  0.1302
   37CHL1    H6 2674   5.172   2.228   7.021 -0.1808  1.4508 -0.8058
   37CHL1    C7 2675   5.143   2.281   7.243 -0.0844  0.3571  0.5320
   37CHL1   H7A 2676   5.237   2.229   7.274  0.9974  2.0002  0.1462
   37CHL1   H7B 2677   5.161   2.390   7.246  2.6492  0.0305 -0.2907
   37CHL1    C8 2678   5.025   2.249   7.347 -0.6920  0.0370  0.1693
   37CHL1    H8 2679   5.031   2.138   7.355  0.5972 -0.0976 -1.9037
   37CHL1   C14 2680   5.047   2.329   7.477 -0.4682  0.0954  0.1104
   37CHL1   H14 2681   5.041   2.437   7.450  0.8416  0.6094  1.7029
   37CHL1   C15 2682   5.188   2.317   7.537 -0.0432 -0.3635  0.3262
   37CHL1  H15A 2683   5.223   2.213   7.548  2.2446  0.3167  0.1617
   37CHL1  H15B 2684   5.262   2.368   7.471 -0.5731 -0.0815 -0.0630
   37CHL1   C16 2685   5.163   2.381   7.672  0.1199  0.2456 -0.1206
   37CHL1  H16A 2686   5.212   2.306   7.738 -1.6759 -1.1248 -0.2540
   37CHL1  H16B 2687   5.210   2.478   7.695 -0.0204  0.2896 -0.0179
   37CHL1   C17 2688   5.008   2.394   7.703 -0.3724 -0.2252  0.2625
   37CHL1   H17 2689   4.985   2.494   7.662  0.4449 -0.4387 -0.7471
   37CHL1   C13 2690   4.953   2.305   7.590  0.5417 -0.3565 -0.2703
   37CHL1   C18 2691   4.971   2.159   7.634 -0.5699  0.3763  0.5043
   37CHL1  H18A 2692   4.898   2.128   7.710  0.7970 -1.0351  1.3048
   37CHL1  H18B 2693   4.950   2.091   7.548  2.2904  0.0373 -0.0408
   37CHL1  H18C 2694   5.072   2.144   7.678 -1.3204  1.0973  2.5944
   37CHL1   C12 2695   4.812   2.341   7.538  0.0138 -0.3899 -0.6456
   37CHL1  H12A 2696   4.740   2.306   7.615  1.0841  0.1934  0.6484
   37CHL1  H12B 2697   4.808   2.452   7.529 -3.0556 -0.3704 -0.1838
   37CHL1   C11 2698   4.774   2.278   7.402  0.4316  0.1720 -0.2636
   37CHL1  H11A 2699   4.763   2.168   7.411 -2.4062  0.4923  1.4886
   37CHL1  H11B 2700   4.671   2.309   7.376  1.2377  4.2398  0.6879
   37CHL1    C9 2701   4.883   2.290   7.296  0.0713  0.1045  0.4917
   37CHL1    H9 2702   4.894   2.399   7.276  0.4087 -0.1977 -1.1578
   37CHL1   C10 2703   4.843   2.222   7.163  0.0781  0.2227 -0.2699
   37CHL1   C19 2704   4.789   2.077   7.183  0.1228 -0.3784  0.1274
   37CHL1  H19A 2705   4.748   2.038   7.087 -0.0073 -2.5150  0.9958
   37CHL1  H19B 2706   4.863   2.005   7.222 -0.7763 -0.8540  0.9981
   37CHL1  H19C 2707   4.708   2.071   7.259  1.9390  1.0210  2.2675
   37CHL1    C1 2708   4.726   2.304   7.100 -0.0144  0.0517 -0.1067
   37CHL1   H1A 2709   4.630   2.296   7.154 -1.4448  0.1525 -2.4813
   37CHL1   H1B 2710   4.756   2.411   7.102  1.7370 -0.2847 -2.8356
   37CHL1    C2 2711   4.708   2.269   6.952 -0.4755  0.5104 -0.0193
   37CHL1   H2A 2712   4.648   2.356   6.917 -1.5676 -0.4704 -0.6613
   37CHL1   H2B 2713   4.646   2.178   6.933  1.1847 -0.5223 -0.6485
   37CHL1   C20 2714   4.963   2.378   7.854 -0.5358 -0.5502  0.2467
   37CHL1   H20 2715   5.006   2.279   7.880  1.7803  0.7008  1.4705
   37CHL1   C21 2716   4.805   2.384   7.874  0.2577  0.2017 -0.3993
   37CHL1  H21A 2717   4.764   2.300   7.814 -2.0841  0.7975  0.2662
   37CHL1  H21B 2718   4.762   2.477   7.830  0.1696  1.5379  2.3175
   37CHL1  H21C 2719   4.766   2.371   7.977 -0.4999 -0.1833 -0.7313
   37CHL1   C22 2720   5.039   2.482   7.945 -0.2839  0.4339 -0.7695
   37CHL1  H22A 2721   5.145   2.485   7.914  0.2159  0.2909  0.8234
   37CHL1  H22B 2722   4.991   2.582   7.930 -0.9863  0.1363 -0.5618
   37CHL1   C23 2723   5.027   2.443   8.093 -0.7548  1.0913 -0.1656
   37CHL1  H23A 2724   4.921   2.424   8.118 -0.1913 -1.2390  0.7691
   37CHL1  H23B 2725   5.086   2.351   8.114 -2.2567  0.2308  0.4653
   37CHL1   C24 2726   5.091   2.549   8.185 -0.6920 -0.3511 -0.2322
   37CHL1  H24A 2727   5.201   2.546   8.164 -0.5539 -3.3200  0.4522
   37CHL1  H24B 2728   5.053   2.649   8.157  0.9883  0.6853  0.9790
   37CHL1   C25 2729   5.070   2.524   8.329 -0.0409 -0.3330 -0.1062
   37CHL1   H25 2730   4.962   2.530   8.355 -0.3838 -0.7629 -1.3529
   37CHL1   C26 2731   5.123   2.389   8.377  0.1040  0.6227 -0.1625
   37CHL1  H26A 2732   5.047   2.309   8.377 -1.6460  2.1504  2.5887
   37CHL1  H26B 2733   5.210   2.353   8.318 -1.1791 -2.3131 -0.4323
   37CHL1  H26C 2734   5.139   2.407   8.485  1.0746  1.4450 -0.4212
   37CHL1   C27 2735   5.137   2.629   8.413 -0.4250  0.1064  0.1110
   37CHL1  H27A 2736   5.113   2.729   8.371  0.2578 -0.1917 -1.0222
   37CHL1  H27B 2737   5.095   2.625   8.516  0.4535 -0.1106  0.4607
   37CHL1  H27C 2738   5.246   2.615   8.424 -0.5765 -0.7529  0.6076
   38CHL1    C3 2739   5.125   4.520   6.544  0.5388 -0.3326  0.1408
   38CHL1    H3 2740   5.230   4.545   6.569  0.4547  0.8257 -0.5990
   38CHL1    O3 2741   5.107   4.551   6.405  0.4438  0.1395  0.1525
   38CHL1   H3' 2742   5.026   4.504   6.383  0.7151 -0.6239  0.7294
   38CHL1    C4 2743   5.084   4.375   6.574  0.2069 -0.3052 -0.6608
   38CHL1   H4A 2744   4.988   4.355   6.523  0.9517 -0.9154 -1.8785
   38CHL1   H4B 2745   5.156   4.309   6.520 -0.3936 -1.9348  0.4592
   38CHL1    C5 2746   5.086   4.351   6.720 -0.2217  0.2337  0.0686
   38CHL1    C6 2747   5.160   4.244   6.764  0.4061 -0.0087  0.0626
   38CHL1    H6 2748   5.214   4.185   6.689  0.6191 -1.6110  1.3995
   38CHL1    C7 2749   5.161   4.200   6.910 -0.5757 -0.2069  0.2772
   38CHL1   H7A 2750   5.127   4.094   6.916  1.5158 -0.9232  0.0332
   38CHL1   H7B 2751   5.266   4.210   6.944 -0.7351  3.1616  0.1654
   38CHL1    C8 2752   5.077   4.292   7.002  0.8805 -0.8121 -0.3243
   38CHL1    H8 2753   4.972   4.258   6.997  1.3596 -3.1029  2.3088
   38CHL1   C14 2754   5.135   4.273   7.140  0.0547 -0.4591  0.1398
   38CHL1   H14 2755   5.234   4.324   7.134 -0.5738  0.8519  0.5996
   38CHL1   C15 2756   5.165   4.124   7.186  0.9078  0.5285 -0.0914
   38CHL1  H15A 2757   5.083   4.063   7.143 -0.0027  2.4126 -1.1369
   38CHL1  H15B 2758   5.254   4.089   7.130 -1.6534 -2.6668 -2.5540
   38CHL1   C16 2759   5.186   4.140   7.339  0.3304  0.1423  0.5211
   38CHL1  H16A 2760   5.101   4.089   7.390  0.1974  0.5207  0.6854
   38CHL1  H16B 2761   5.287   4.112   7.377  0.4630  1.0419  0.8454
   38CHL1   C17 2762   5.154   4.293   7.367  0.0389  0.1088 -0.3857
   38CHL1   H17 2763   5.251   4.345   7.358  0.6440 -0.6207  1.4856
   38CHL1   C13 2764   5.063   4.342   7.254  0.5878  0.4842 -0.8186
   38CHL1   C18 2765   4.921   4.297   7.283  1.0142  0.4884  0.5881
   38CHL1  H18A 2766   4.859   4.354   7.355  0.0018 -1.5675  1.4147
   38CHL1  H18B 2767   4.873   4.297   7.182  1.2408  0.2694  0.4794
   38CHL1  H18C 2768   4.921   4.191   7.314  1.4669  0.2482 -0.2064
   38CHL1   C12 2769   5.069   4.494   7.214  0.0125 -0.1469 -0.8606
   38CHL1  H12A 2770   5.018   4.563   7.285 -1.3542 -0.5139 -1.4482
   38CHL1  H12B 2771   5.178   4.515   7.212  0.1631 -0.8549 -0.1125
   38CHL1   C11 2772   5.005   4.521   7.071 -0.6264 -0.3423 -0.2031
   38CHL1  H11A 2773   4.896   4.502   7.076 -0.8344  0.0398 -2.3841
   38CHL1  H11B 2774   5.010   4.630   7.053  1.2051 -0.1600  1.1080
   38CHL1    C9 2775   5.079   4.435   6.965 -0.1352 -0.1296  0.9362
   38CHL1    H9 2776   5.186   4.467   6.961 -0.5791  1.3166  0.0552
   38CHL1   C10 2777   5.032   4.452   6.814  0.2528 -0.6398 -0.1780
   38CHL1   C19 2778   4.881   4.432   6.806  0.3883 -0.4700  0.5351
   38CHL1  H19A 2779   4.840   4.447   6.704 -3.9418  2.9315  2.4233
   38CHL1  H19B 2780   4.858   4.327   6.831 -0.4213 -0.9099 -1.8465
   38CHL1  H19C 2781   4.820   4.499   6.870 -0.9891  0.3936 -1.5801
   38CHL1    C1 2782   5.055   4.599   6.766 -0.4360 -0.3444 -0.0684
   38CHL1   H1A 2783   4.989   4.666   6.825 -2.5087 -1.6227 -0.8250
   38CHL1   H1B 2784   5.161   4.628   6.784 -0.3655 -0.5019 -0.2282
   38CHL1    C2 2785   5.043   4.623   6.616  0.4918  0.1561 -0.1848
   38CHL1   H2A 2786   5.084   4.724   6.596 -2.2869  2.2030  3.1721
   38CHL1   H2B 2787   4.936   4.608   6.590  0.1941 -1.7977  1.8690
   38CHL1   C20 2788   5.102   4.311   7.513 -0.5206 -0.3387 -0.6706
   38CHL1   H20 2789   5.011   4.248   7.510  0.6088 -2.2687  1.6232
   38CHL1   C21 2790   5.091   4.461   7.539  0.4001 -0.4369  0.1731
   38CHL1  H21A 2791   5.040   4.467   7.638  0.7179  0.5485  0.2842
   38CHL1  H21B 2792   5.015   4.495   7.464  0.7674  0.6990  0.3009
   38CHL1  H21C 2793   5.175   4.532   7.530 -0.7512  0.8836 -0.4854
   38CHL1   C22 2794   5.192   4.244   7.622 -0.8027  0.2205  0.1749
   38CHL1  H22A 2795   5.227   4.143   7.590  0.5209  0.3666  1.0504
   38CHL1  H22B 2796   5.286   4.301   7.638 -1.3225  0.7001  1.6941
   38CHL1   C23 2797   5.118   4.218   7.760 -0.7481  0.1575  0.2800
   38CHL1  H23A 2798   5.103   4.320   7.800 -1.9536 -0.4488  1.4386
   38CHL1  H23B 2799   5.018   4.171   7.756 -0.2408 -1.0058  0.6908
   38CHL1   C24 2800   5.218   4.143   7.847  0.1887 -0.3732  1.2048
   38CHL1  H24A 2801   5.225   4.034   7.827 -1.3010  0.0044 -2.0408
   38CHL1  H24B 2802   5.315   4.184   7.811 -0.6682 -0.5025 -1.4488
   38CHL1   C25 2803   5.198   4.178   7.999  0.1324  0.2885 -0.1342
   38CHL1   H25 2804   5.188   4.289   7.999  0.2615  0.3423  2.2700
   38CHL1   C26 2805   5.071   4.122   8.062 -0.4990 -0.3381 -0.0619
   38CHL1  H26A 2806   5.073   4.011   8.055  2.8059 -0.3435 -0.5856
   38CHL1  H26B 2807   5.064   4.163   8.165 -0.3340 -1.6491  0.4992
   38CHL1  H26C 2808   4.987   4.158   8.000 -0.5213 -0.2511  0.0172
   38CHL1   C27 2809   5.325   4.122   8.073 -0.5184 -0.6710  0.0842
   38CHL1  H27A 2810   5.329   4.011   8.061 -0.9022 -0.9637  2.2430
   38CHL1  H27B 2811   5.416   4.164   8.024 -0.3356 -3.3889 -2.1457
   38CHL1  H27C 2812   5.329   4.141   8.182  0.9737  0.0771 -0.0704
   39CHL1    C3 2813   5.413   3.733   6.612  0.5123  0.4999 -0.3736
   39CHL1    H3 2814   5.497   3.661   6.596  0.4128  0.3565 -0.2533
   39CHL1    O3 2815   5.332   3.750   6.496 -0.0982  0.0339 -0.4478
   39CHL1   H3' 2816   5.265   3.810   6.528  1.3283  2.4297 -1.6626
   39CHL1    C4 2817   5.324   3.665   6.711 -0.2610 -0.1467 -0.6676
   39CHL1   H4A 2818   5.229   3.720   6.724 -0.5698 -0.7900 -0.1761
   39CHL1   H4B 2819   5.290   3.567   6.672  0.1442 -0.5125 -0.1047
   39CHL1    C5 2820   5.381   3.658   6.848 -0.1578 -0.3690  0.3935
   39CHL1    C6 2821   5.387   3.539   6.908  0.0907 -0.1944  0.1997
   39CHL1    H6 2822   5.350   3.448   6.860  0.2663 -0.1091 -0.1032
   39CHL1    C7 2823   5.435   3.519   7.046  0.1833  0.3036 -0.4912
   39CHL1   H7A 2824   5.361   3.459   7.103  0.9299  0.5951  0.8561
   39CHL1   H7B 2825   5.529   3.461   7.035  0.2316  0.3894 -0.5329
   39CHL1    C8 2826   5.457   3.655   7.121 -0.3469  0.5553 -0.0423
   39CHL1    H8 2827   5.359   3.680   7.167  0.0343 -0.3955  1.3469
   39CHL1   C14 2828   5.564   3.631   7.227 -0.0164  0.6130 -0.8068
   39CHL1   H14 2829   5.655   3.607   7.168 -0.6026 -1.8141 -0.8191
   39CHL1   C15 2830   5.561   3.515   7.330 -0.2058 -0.0012  0.7341
   39CHL1  H15A 2831   5.461   3.499   7.374  0.4116 -0.4416  2.0402
   39CHL1  H15B 2832   5.600   3.423   7.280  1.8647 -0.2245  2.6016
   39CHL1   C16 2833   5.663   3.551   7.437  0.0604 -0.0774 -0.2634
   39CHL1  H16A 2834   5.618   3.534   7.537  0.2629 -0.1477 -0.1825
   39CHL1  H16B 2835   5.742   3.474   7.423  0.2541  0.5801 -3.9177
   39CHL1   C17 2836   5.719   3.688   7.404  0.5016 -0.4399 -0.1372
   39CHL1   H17 2837   5.802   3.674   7.332 -0.3054  2.2849 -1.7587
   39CHL1   C13 2838   5.599   3.746   7.320 -0.0750 -0.6570  0.2989
   39CHL1   C18 2839   5.473   3.775   7.417 -0.3300  0.4610  0.3463
   39CHL1  H18A 2840   5.500   3.866   7.475  1.2752  0.4970 -0.3964
   39CHL1  H18B 2841   5.383   3.792   7.355  1.7270 -2.2409 -3.9364
   39CHL1  H18C 2842   5.447   3.687   7.480 -0.6053 -1.2914 -2.0419
   39CHL1   C12 2843   5.640   3.859   7.231 -0.2756 -0.3710  0.1669
   39CHL1  H12A 2844   5.655   3.959   7.277  0.2984  0.4489 -1.7230
   39CHL1  H12B 2845   5.729   3.829   7.172 -0.7179 -0.4173 -0.4837
   39CHL1   C11 2846   5.532   3.891   7.130  1.1352 -0.5966 -1.0189
   39CHL1  H11A 2847   5.442   3.935   7.178  1.9384 -1.9734  1.9814
   39CHL1  H11B 2848   5.580   3.971   7.068 -1.7685  0.6176 -1.8843
   39CHL1    C9 2849   5.508   3.772   7.035  0.4157  0.5669  0.3845
   39CHL1    H9 2850   5.608   3.731   7.010 -1.1470 -2.4680 -1.3756
   39CHL1   C10 2851   5.438   3.785   6.901 -1.1006  0.0484 -0.5425
   39CHL1   C19 2852   5.318   3.871   6.925 -0.8974  0.0608 -0.1537
   39CHL1  H19A 2853   5.267   3.897   6.830  2.6402  0.1485 -2.1641
   39CHL1  H19B 2854   5.243   3.835   6.999  1.9665 -1.5393  2.2003
   39CHL1  H19C 2855   5.351   3.967   6.969  0.6247 -0.6736  0.3588
   39CHL1    C1 2856   5.532   3.861   6.799  0.2784  0.7534 -0.4192
   39CHL1   H1A 2857   5.531   3.964   6.841 -0.3259  0.0291  1.4488
   39CHL1   H1B 2858   5.630   3.811   6.787 -1.1852 -2.3503 -0.2654
   39CHL1    C2 2859   5.467   3.865   6.657  0.6508 -0.6797 -0.1549
   39CHL1   H2A 2860   5.542   3.925   6.600 -0.7603  0.2875 -1.0787
   39CHL1   H2B 2861   5.377   3.931   6.655  0.4007 -1.0209 -2.0929
   39CHL1   C20 2862   5.786   3.755   7.524 -0.5095 -0.0014 -0.1717
   39CHL1   H20 2863   5.697   3.783   7.584 -0.0506 -0.2666  0.6360
   39CHL1   C21 2864   5.857   3.891   7.485 -0.0339  1.1144 -0.1133
   39CHL1  H21A 2865   5.783   3.957   7.436 -0.6225  0.4251 -0.1731
   39CHL1  H21B 2866   5.941   3.859   7.419 -0.5934 -1.0768  0.1645
   39CHL1  H21C 2867   5.898   3.950   7.570 -1.3319  1.0555  0.5802
   39CHL1   C22 2868   5.882   3.658   7.600 -0.3810 -0.1238  0.0719
   39CHL1  H22A 2869   5.828   3.565   7.625  0.0733 -1.4564 -3.3288
   39CHL1  H22B 2870   5.966   3.622   7.538  1.4036  2.4778  0.7780
   39CHL1   C23 2871   5.935   3.726   7.726 -0.1958 -0.5316  0.1380
   39CHL1  H23A 2872   6.029   3.782   7.710  0.9778 -2.1850  0.9340
   39CHL1  H23B 2873   5.852   3.793   7.758 -1.7850 -1.3447 -2.0723
   39CHL1   C24 2874   5.966   3.609   7.826 -0.1774  0.9661  0.2040
   39CHL1  H24A 2875   5.863   3.571   7.847  0.1019  0.1049  0.0487
   39CHL1  H24B 2876   6.026   3.531   7.774 -0.9675 -0.0041  0.6990
   39CHL1   C25 2877   6.031   3.654   7.965  0.2026 -0.4906 -0.0701
   39CHL1   H25 2878   6.108   3.728   7.933  0.9394 -0.0286  2.4599
   39CHL1   C26 2879   5.935   3.715   8.064 -0.1428 -0.3421  0.3884
   39CHL1  H26A 2880   5.978   3.718   8.166  2.3924 -0.3247 -0.5977
   39CHL1  H26B 2881   5.911   3.821   8.042 -0.6607 -0.4793  0.2738
   39CHL1  H26C 2882   5.839   3.660   8.056  0.0006 -0.4000 -1.4037
   39CHL1   C27 2883   6.112   3.548   8.037 -0.8487 -0.3216 -0.4828
   39CHL1  H27A 2884   6.054   3.471   8.093  1.7355 -2.3481 -0.4397
   39CHL1  H27B 2885   6.173   3.507   7.954 -1.4974  2.5739 -2.5275
   39CHL1  H27C 2886   6.186   3.592   8.108  0.3667 -2.0421 -0.6245
   40CHL1    C3 2887   3.145   1.685   6.841 -0.2487  0.3699 -0.9110
   40CHL1    H3 2888   3.203   1.593   6.861 -0.7569  0.1743 -0.3107
   40CHL1    O3 2889   3.165   1.723   6.706 -0.3081 -0.0646  0.4694
   40CHL1   H3' 2890   3.087   1.758   6.663  0.6938 -0.5581 -1.8897
   40CHL1    C4 2891   2.997   1.677   6.874 -0.4965 -0.5162  0.5866
   40CHL1   H4A 2892   2.941   1.767   6.842 -1.2127 -1.0323  0.3650
   40CHL1   H4B 2893   2.945   1.602   6.810  0.1630  2.5324 -3.9612
   40CHL1    C5 2894   2.968   1.645   7.020  0.5133  0.4585 -0.4640
   40CHL1    C6 2895   2.888   1.542   7.054  0.9355 -0.0178 -0.1008
   40CHL1    H6 2896   2.850   1.474   6.976  1.3772  2.4985 -2.6638
   40CHL1    C7 2897   2.857   1.508   7.193 -0.1089 -0.5918  0.3815
   40CHL1   H7A 2898   2.751   1.477   7.203 -0.4207  0.3222  0.0516
   40CHL1   H7B 2899   2.919   1.423   7.228  2.2960  0.6575 -0.6415
   40CHL1    C8 2900   2.893   1.615   7.297  0.1677 -0.0790 -0.3621
   40CHL1    H8 2901   2.809   1.688   7.293 -0.2039 -0.1013  3.1680
   40CHL1   C14 2902   2.900   1.566   7.447  0.1823  0.1634 -0.1177
   40CHL1   H14 2903   2.990   1.501   7.454  0.4212  0.5753  0.7032
   40CHL1   C15 2904   2.784   1.482   7.504 -0.5135 -0.4321 -0.4510
   40CHL1  H15A 2905   2.693   1.541   7.478  1.1321  2.5801  0.0833
   40CHL1  H15B 2906   2.784   1.376   7.473  2.8814 -0.1903 -1.6658
   40CHL1   C16 2907   2.804   1.496   7.656 -0.3544 -0.6762 -0.6971
   40CHL1  H16A 2908   2.711   1.517   7.712  0.4080 -2.3446  1.3120
   40CHL1  H16B 2909   2.834   1.402   7.706  0.8558 -0.8795 -1.7643
   40CHL1   C17 2910   2.918   1.602   7.679  0.4972  0.0141  0.5042
   40CHL1   H17 2911   3.015   1.548   7.679  0.7068  0.2784 -2.1541
   40CHL1   C13 2912   2.921   1.678   7.546  0.0826  0.1558  0.2479
   40CHL1   C18 2913   2.818   1.791   7.532 -0.9343  0.3917 -0.5419
   40CHL1  H18A 2914   2.848   1.880   7.591 -1.0282  1.7326 -2.4296
   40CHL1  H18B 2915   2.824   1.823   7.426  2.4866  2.7673  0.2338
   40CHL1  H18C 2916   2.711   1.769   7.551 -0.6620 -0.4430  0.1159
   40CHL1   C12 2917   3.060   1.743   7.514  0.3492  0.7805  0.3380
   40CHL1  H12A 2918   3.087   1.824   7.585  2.6344 -1.3373  2.0858
   40CHL1  H12B 2919   3.141   1.668   7.526 -0.0318  0.4589  0.9515
   40CHL1   C11 2920   3.068   1.790   7.364 -0.0620  0.4555  1.1467
   40CHL1  H11A 2921   3.004   1.880   7.354  0.7681  1.0104  0.6650
   40CHL1  H11B 2922   3.177   1.811   7.356 -0.0260  0.3276  1.2916
   40CHL1    C9 2923   3.028   1.681   7.264 -0.1239 -0.5424  0.0017
   40CHL1    H9 2924   3.107   1.603   7.267  2.7774  2.1706 -0.4996
   40CHL1   C10 2925   3.038   1.740   7.122 -0.3929  0.7294 -0.2021
   40CHL1   C19 2926   2.974   1.877   7.103 -0.4286 -0.4950 -0.2696
   40CHL1  H19A 2927   3.038   1.946   7.161  1.3725 -0.7964 -1.8414
   40CHL1  H19B 2928   2.965   1.912   6.998 -0.2523 -2.1070 -0.8536
   40CHL1  H19C 2929   2.876   1.875   7.157  0.6013 -1.2078  1.6482
   40CHL1    C1 2930   3.190   1.746   7.073  0.0957 -0.0991 -0.3468
   40CHL1   H1A 2931   3.237   1.818   7.144 -0.3194  0.5250 -0.6966
   40CHL1   H1B 2932   3.228   1.643   7.088 -0.0073 -0.3672 -1.8531
   40CHL1    C2 2933   3.206   1.791   6.926  0.4082 -0.5985 -0.5976
   40CHL1   H2A 2934   3.314   1.810   6.906  0.1206 -0.7479 -2.4858
   40CHL1   H2B 2935   3.150   1.887   6.918  1.1145 -0.1884 -0.7471
   40CHL1   C20 2936   2.896   1.683   7.808  0.6044 -0.0736  0.5637
   40CHL1   H20 2937   2.798   1.735   7.805  2.2166  3.2100  0.5569
   40CHL1   C21 2938   3.001   1.799   7.829  0.0886 -0.1828  0.1435
   40CHL1  H21A 2939   2.998   1.839   7.933 -0.5746  2.2173 -0.7410
   40CHL1  H21B 2940   2.972   1.891   7.774  0.5740  0.0396  0.2497
   40CHL1  H21C 2941   3.106   1.771   7.806 -0.5695 -0.3987 -2.9867
   40CHL1   C22 2942   2.886   1.589   7.932  0.4993  0.2728  0.2575
   40CHL1  H22A 2943   2.797   1.526   7.910 -2.1538  4.3339 -1.8934
   40CHL1  H22B 2944   2.974   1.523   7.942 -0.3712 -0.9358  0.2509
   40CHL1   C23 2945   2.867   1.653   8.066  0.3206  0.2163  0.3113
   40CHL1  H23A 2946   2.952   1.721   8.089 -0.0082  1.9405 -2.9605
   40CHL1  H23B 2947   2.774   1.713   8.070 -0.7314 -1.3554  0.2001
   40CHL1   C24 2948   2.860   1.550   8.176  0.5010 -0.1804  0.1756
   40CHL1  H24A 2949   2.783   1.478   8.141  0.3765  0.2236 -0.3987
   40CHL1  H24B 2950   2.952   1.490   8.188  0.8800 -0.1075 -2.0048
   40CHL1   C25 2951   2.823   1.623   8.310  0.5582 -0.5915  0.0390
   40CHL1   H25 2952   2.732   1.684   8.291  1.7243  1.4512  0.6464
   40CHL1   C26 2953   2.780   1.524   8.420  0.6167  0.1512 -0.4493
   40CHL1  H26A 2954   2.721   1.580   8.496 -0.3150 -0.4601 -0.7047
   40CHL1  H26B 2955   2.726   1.439   8.374  1.2707  1.0299 -3.0151
   40CHL1  H26C 2956   2.873   1.481   8.462  0.6093  0.0480 -0.5390
   40CHL1   C27 2957   2.934   1.711   8.371 -0.1729  0.2602 -0.2489
   40CHL1  H27A 2958   3.021   1.649   8.402  0.8839  1.3525 -0.9393
   40CHL1  H27B 2959   2.975   1.776   8.291  1.8802 -1.4136 -0.6736
   40CHL1  H27C 2960   2.892   1.764   8.459 -3.8761 -1.8056 -0.5663
   41CHL1    C3 2961   1.703   2.925   7.034 -0.9136 -0.0769 -0.4815
   41CHL1    H3 2962   1.757   3.012   7.076 -3.0426  0.7975  0.5952
   41CHL1    O3 2963   1.740   2.909   6.897 -0.3565 -0.1758 -0.0236
   41CHL1   H3' 2964   1.699   2.826   6.871  3.3696 -2.4819  0.6283
   41CHL1    C4 2965   1.751   2.803   7.108 -0.2257  0.5488 -0.4007
   41CHL1   H4A 2966   1.709   2.711   7.062 -2.3669  1.4553 -0.3707
   41CHL1   H4B 2967   1.862   2.798   7.099 -0.2049 -1.1039  0.4040
   41CHL1    C5 2968   1.718   2.797   7.258 -0.1324 -0.1347 -0.1246
   41CHL1    C6 2969   1.818   2.778   7.349 -0.0936  0.1011 -0.2578
   41CHL1    H6 2970   1.921   2.761   7.315  0.8959  2.9531  0.9931
   41CHL1    C7 2971   1.795   2.778   7.497  0.5239 -0.0343  0.1244
   41CHL1   H7A 2972   1.834   2.685   7.543 -0.6617  0.0423  1.3195
   41CHL1   H7B 2973   1.837   2.874   7.535  0.7112  0.0754 -0.3465
   41CHL1    C8 2974   1.634   2.781   7.522  0.1698 -0.0099  0.3305
   41CHL1    H8 2975   1.596   2.678   7.503 -0.5669  0.4336 -0.6667
   41CHL1   C14 2976   1.609   2.814   7.670  0.7113  0.0154 -0.2058
   41CHL1   H14 2977   1.639   2.919   7.687 -2.2620  0.8646  0.4242
   41CHL1   C15 2978   1.688   2.732   7.773  0.3426  0.3538  0.0876
   41CHL1  H15A 2979   1.676   2.624   7.753  3.8749 -0.0166 -0.5774
   41CHL1  H15B 2980   1.794   2.766   7.778  0.0227  1.2779  2.9105
   41CHL1   C16 2981   1.618   2.774   7.902  0.3284 -0.3860 -0.4623
   41CHL1  H16A 2982   1.614   2.680   7.961  2.0788 -0.5652 -0.5853
   41CHL1  H16B 2983   1.682   2.839   7.965 -1.0743 -1.0270  1.7280
   41CHL1   C17 2984   1.485   2.847   7.863  1.1177 -0.0348  0.6079
   41CHL1   H17 2985   1.508   2.955   7.875 -1.5893  0.4019  2.9542
   41CHL1   C13 2986   1.460   2.824   7.715 -0.5039 -0.3260 -0.4719
   41CHL1   C18 2987   1.392   2.693   7.684  0.0599  0.7609 -0.4399
   41CHL1  H18A 2988   1.285   2.700   7.714 -0.6001 -2.2731 -1.7095
   41CHL1  H18B 2989   1.403   2.669   7.576  1.3200  1.4861 -0.4938
   41CHL1  H18C 2990   1.432   2.608   7.744 -1.2421  2.0618  2.4894
   41CHL1   C12 2991   1.397   2.948   7.635 -0.5985  0.2411 -0.0239
   41CHL1  H12A 2992   1.289   2.962   7.659 -0.0592  0.7296  2.2901
   41CHL1  H12B 2993   1.454   3.034   7.675 -0.4517 -0.1708  0.6705
   41CHL1   C11 2994   1.423   2.935   7.484  0.6750  0.1286  0.6770
   41CHL1  H11A 2995   1.350   2.860   7.447 -0.1978  1.9533 -1.5498
   41CHL1  H11B 2996   1.411   3.036   7.439 -1.2312 -0.4963 -0.3305
   41CHL1    C9 2997   1.567   2.878   7.435 -0.9885 -0.1423  0.7517
   41CHL1    H9 2998   1.631   2.967   7.451  2.2754 -2.0659 -0.6593
   41CHL1   C10 2999   1.575   2.847   7.286  0.3796  0.0151 -0.1975
   41CHL1   C19 3000   1.478   2.728   7.257  0.1484 -0.4319 -0.7569
   41CHL1  H19A 3001   1.374   2.766   7.256  0.1700 -0.0001  2.6173
   41CHL1  H19B 3002   1.491   2.688   7.154  1.3210 -0.5840 -0.5596
   41CHL1  H19C 3003   1.498   2.646   7.329  1.4018 -0.8065 -1.4936
   41CHL1    C1 3004   1.532   2.965   7.205 -0.1291  0.4899  0.4533
   41CHL1   H1A 3005   1.422   2.975   7.220 -0.2608  0.8183 -0.6804
   41CHL1   H1B 3006   1.578   3.062   7.236 -3.2604  2.3181 -0.2062
   41CHL1    C2 3007   1.556   2.945   7.055 -0.3056  0.6104 -0.1346
   41CHL1   H2A 3008   1.527   3.039   7.003  0.7139  1.0501  0.0639
   41CHL1   H2B 3009   1.477   2.872   7.028  1.4990 -1.1808 -0.8283
   41CHL1   C20 3010   1.369   2.819   7.963  0.1773  0.5485  0.9851
   41CHL1   H20 3011   1.329   2.715   7.962  0.4786  0.4108 -0.7861
   41CHL1   C21 3012   1.253   2.916   7.924 -0.0829  0.5295 -0.1987
   41CHL1  H21A 3013   1.292   3.015   7.892  0.9558  0.2639  0.1834
   41CHL1  H21B 3014   1.172   2.921   7.999  0.2582 -1.0854  0.3157
   41CHL1  H21C 3015   1.209   2.862   7.837  1.8582 -0.6335 -0.5428
   41CHL1   C22 3016   1.408   2.847   8.111  0.8777 -0.0421  0.0414
   41CHL1  H22A 3017   1.490   2.779   8.141 -0.8160 -2.3077 -0.2269
   41CHL1  H22B 3018   1.435   2.955   8.110  1.1386 -0.1037 -1.1187
   41CHL1   C23 3019   1.295   2.831   8.220 -0.4042  0.5316  0.6603
   41CHL1  H23A 3020   1.345   2.849   8.317 -0.2777 -0.6168  0.8255
   41CHL1  H23B 3021   1.215   2.903   8.191 -0.7355 -0.1823 -0.2616
   41CHL1   C24 3022   1.252   2.680   8.225  0.6072 -0.0370  0.0869
   41CHL1  H24A 3023   1.201   2.656   8.129  1.6065 -1.8613 -0.0242
   41CHL1  H24B 3024   1.345   2.620   8.238  0.5852 -0.2436 -0.6280
   41CHL1   C25 3025   1.151   2.661   8.342  0.0011  0.2416  1.0676
   41CHL1   H25 3026   1.200   2.693   8.436 -2.8742  2.2193  2.0337
   41CHL1   C26 3027   1.028   2.751   8.330 -0.5463  0.4732  0.0569
   41CHL1  H26A 3028   1.054   2.859   8.332 -1.0132  0.5780  1.5571
   41CHL1  H26B 3029   0.989   2.726   8.230  1.2045 -3.0319  0.0891
   41CHL1  H26C 3030   0.955   2.715   8.406 -0.0500 -0.9970 -0.1177
   41CHL1   C27 3031   1.117   2.516   8.354 -0.1171 -0.3554  0.1270
   41CHL1  H27A 3032   1.210   2.460   8.373  0.6100  0.0556 -1.9609
   41CHL1  H27B 3033   1.053   2.509   8.445 -0.2851 -0.7210 -0.0149
   41CHL1  H27C 3034   1.068   2.481   8.260  1.7503 -1.3983 -0.4995
   42CHL1    C3 3035   0.796   0.250   6.936  0.1226  0.5238 -0.5454
   42CHL1    H3 3036   0.767   0.145   6.960  1.1819  0.6483  1.5433
   42CHL1    O3 3037   0.747   0.276   6.804  0.3668 -0.1786 -0.7625
   42CHL1   H3' 3038   0.780   0.365   6.789 -0.2320  0.2204  0.2375
   42CHL1    C4 3039   0.745   0.352   7.030  0.1468 -0.6696  0.3084
   42CHL1   H4A 3040   0.777   0.456   7.007  0.6865 -0.8716  0.1420
   42CHL1   H4B 3041   0.636   0.344   7.011  0.5823 -2.1585 -2.0023
   42CHL1    C5 3042   0.805   0.336   7.171  0.2698  0.2621 -0.3483
   42CHL1    C6 3043   0.720   0.322   7.278 -0.5901  0.0973 -0.4754
   42CHL1    H6 3044   0.612   0.310   7.263 -0.4006 -3.0306  0.0183
   42CHL1    C7 3045   0.778   0.323   7.415 -0.0401 -0.2475  0.2973
   42CHL1   H7A 3046   0.710   0.378   7.483 -0.7915 -2.7373  1.6916
   42CHL1   H7B 3047   0.766   0.221   7.457 -1.3840  0.2307  1.1691
   42CHL1    C8 3048   0.924   0.362   7.430  0.3721 -0.4723  0.6161
   42CHL1    H8 3049   0.923   0.471   7.410 -1.8771 -0.5828 -0.0707
   42CHL1   C14 3050   0.968   0.324   7.569  0.0475 -0.2970  0.5653
   42CHL1   H14 3051   0.956   0.213   7.573  0.7329 -0.3457  2.3906
   42CHL1   C15 3052   0.889   0.373   7.688  0.1198  0.0133 -0.0833
   42CHL1  H15A 3053   0.857   0.479   7.679 -0.0998 -0.1629 -1.6142
   42CHL1  H15B 3054   0.802   0.307   7.709  1.3122 -0.5540  3.9861
   42CHL1   C16 3055   0.983   0.372   7.809 -0.2159 -0.0738  0.5334
   42CHL1  H16A 3056   0.995   0.476   7.846 -0.9288  0.8956 -1.7877
   42CHL1  H16B 3057   0.938   0.306   7.887 -0.1084  0.3552  0.9685
   42CHL1   C17 3058   1.106   0.304   7.750 -0.3390  0.1301 -0.3092
   42CHL1   H17 3059   1.090   0.194   7.743  1.0517 -0.1524  0.4636
   42CHL1   C13 3060   1.112   0.347   7.604  0.4448 -0.4224 -0.3086
   42CHL1   C18 3061   1.141   0.493   7.581  0.5015 -0.4780 -0.2866
   42CHL1  H18A 3062   1.244   0.520   7.609 -0.4653  1.1905  1.9769
   42CHL1  H18B 3063   1.130   0.514   7.473 -0.8352 -0.0018 -0.0872
   42CHL1  H18C 3064   1.069   0.557   7.637  0.8826 -0.2614 -0.0424
   42CHL1   C12 3065   1.191   0.256   7.511 -1.2535  0.5700 -0.2854
   42CHL1  H12A 3066   1.301   0.268   7.525 -0.9151 -1.1481 -1.1867
   42CHL1  H12B 3067   1.169   0.149   7.530 -2.1267  0.4289 -1.9106
   42CHL1   C11 3068   1.150   0.276   7.359 -0.2300  0.2137  0.1131
   42CHL1  H11A 3069   1.196   0.372   7.326  0.8316 -0.6646 -1.0140
   42CHL1  H11B 3070   1.193   0.194   7.298 -0.1039 -1.1456  1.9342
   42CHL1    C9 3071   1.002   0.280   7.328 -0.0571 -0.4868 -0.2270
   42CHL1    H9 3072   0.971   0.174   7.328  0.3409 -0.6646 -2.3700
   42CHL1   C10 3073   0.959   0.331   7.184  0.2281  0.0517  0.5735
   42CHL1   C19 3074   1.018   0.470   7.153 -0.2975 -0.3682  0.2942
   42CHL1  H19A 3075   1.002   0.486   7.044  0.9889 -0.4673  0.0773
   42CHL1  H19B 3076   0.973   0.550   7.215 -0.5732 -0.9132  0.8165
   42CHL1  H19C 3077   1.129   0.476   7.151 -0.3972  3.6143  0.0001
   42CHL1    C1 3078   1.011   0.231   7.084  0.1816  0.1644 -0.1984
   42CHL1   H1A 3079   1.119   0.252   7.079  1.0259 -3.4169  0.2321
   42CHL1   H1B 3080   0.983   0.128   7.116  0.3513 -0.7534 -2.7614
   42CHL1    C2 3081   0.953   0.246   6.942 -0.0342  0.2207 -0.7573
   42CHL1   H2A 3082   0.992   0.164   6.879  1.3257  1.6271 -1.8209
   42CHL1   H2B 3083   1.000   0.339   6.904 -0.3713 -0.0223 -1.7929
   42CHL1   C20 3084   1.230   0.322   7.850  0.8072 -0.3365 -0.5127
   42CHL1   H20 3085   1.279   0.419   7.828 -1.3402  1.0523  0.4042
   42CHL1   C21 3086   1.336   0.209   7.821 -0.1846  0.1202 -0.1307
   42CHL1  H21A 3087   1.358   0.194   7.713  0.2936 -1.0584  0.1156
   42CHL1  H21B 3088   1.296   0.110   7.852  4.5758 -1.4161  1.9448
   42CHL1  H21C 3089   1.428   0.206   7.883  0.8319 -1.9618 -1.6339
   42CHL1   C22 3090   1.188   0.313   8.004 -0.2517 -0.6917 -0.2254
   42CHL1  H22A 3091   1.109   0.390   8.017  0.6512  0.2262  0.0803
   42CHL1  H22B 3092   1.142   0.213   8.011  0.3462 -0.9540  0.0015
   42CHL1   C23 3093   1.305   0.353   8.102  0.3314  0.8331  0.0292
   42CHL1  H23A 3094   1.399   0.297   8.080 -0.7415 -0.8656 -0.3826
   42CHL1  H23B 3095   1.312   0.463   8.109 -1.3513  0.8682  2.4203
   42CHL1   C24 3096   1.272   0.324   8.254  0.0564  0.2048  0.2650
   42CHL1  H24A 3097   1.173   0.372   8.268 -0.9273 -0.9338 -2.2054
   42CHL1  H24B 3098   1.258   0.214   8.259 -1.4903  0.3940  0.3528
   42CHL1   C25 3099   1.366   0.366   8.355  0.6408  0.7710  0.3693
   42CHL1   H25 3100   1.365   0.477   8.359 -0.7244  0.7509  1.4585
   42CHL1   C26 3101   1.315   0.327   8.500  0.3454  0.0075  0.4470
   42CHL1  H26A 3102   1.334   0.218   8.511 -0.1229 -0.4401 -2.4281
   42CHL1  H26B 3103   1.380   0.375   8.577  1.7244 -2.2955  0.8141
   42CHL1  H26C 3104   1.206   0.345   8.512  0.7466  1.8808  1.6422
   42CHL1   C27 3105   1.502   0.309   8.343 -0.2034  0.0983  0.0491
   42CHL1  H27A 3106   1.501   0.198   8.330 -0.1625  0.1637 -0.5266
   42CHL1  H27B 3107   1.553   0.339   8.437  0.0952 -0.6001  0.1198
   42CHL1  H27C 3108   1.562   0.354   8.261 -1.4063 -0.8483 -1.4110
   43CHL1    C3 3109   3.143   2.953   6.878  0.0102  0.2262 -0.0773
   43CHL1    H3 3110   3.211   2.872   6.911 -1.0103 -0.2857  0.8222
   43CHL1    O3 3111   3.130   2.946   6.741  0.7935  0.7081  0.2484
   43CHL1   H3' 3112   3.048   2.988   6.715  0.2111 -0.6614 -0.2017
   43CHL1    C4 3113   3.007   2.946   6.935  0.1317 -0.3648 -0.8475
   43CHL1   H4A 3114   2.925   3.011   6.898 -0.9696 -0.8228  0.6858
   43CHL1   H4B 3115   2.975   2.843   6.909  3.3035 -1.6725 -0.0290
   43CHL1    C5 3116   3.026   2.955   7.080  0.4241 -0.1769  0.1619
   43CHL1    C6 3117   2.983   2.856   7.166  0.5097 -0.5539  0.2210
   43CHL1    H6 3118   2.937   2.770   7.113  0.7924 -0.6187  0.0789
   43CHL1    C7 3119   2.978   2.857   7.317  0.1147  0.7132 -0.2217
   43CHL1   H7A 3120   2.890   2.804   7.359  1.5508 -0.4341  1.4989
   43CHL1   H7B 3121   3.055   2.790   7.362  1.0641  1.7808 -0.2098
   43CHL1    C8 3122   2.991   3.000   7.368  0.1374  0.1779  0.5173
   43CHL1    H8 3123   2.896   3.055   7.348  0.7474  1.1904  0.2961
   43CHL1   C14 3124   3.029   2.997   7.515  0.5338  0.0983 -0.3057
   43CHL1   H14 3125   3.126   2.943   7.527 -0.6836 -2.0830  0.3164
   43CHL1   C15 3126   2.942   2.913   7.605  0.3482 -0.6547 -0.3933
   43CHL1  H15A 3127   2.834   2.921   7.582  0.1954 -1.3000  0.0677
   43CHL1  H15B 3128   2.971   2.806   7.594 -1.3350 -1.0151 -1.5981
   43CHL1   C16 3129   2.968   2.963   7.756  1.1863  0.2628  0.2165
   43CHL1  H16A 3130   2.872   2.988   7.806  0.6561  2.0574 -1.5422
   43CHL1  H16B 3131   3.021   2.885   7.814  0.7357  1.0440  1.7311
   43CHL1   C17 3132   3.059   3.080   7.733  0.0134 -0.0527 -0.4738
   43CHL1   H17 3133   3.155   3.025   7.723 -0.9448 -1.5427 -1.9093
   43CHL1   C13 3134   3.036   3.130   7.589  0.8840 -0.2812  1.0228
   43CHL1   C18 3135   2.897   3.203   7.578  0.6450  0.0337 -0.1108
   43CHL1  H18A 3136   2.889   3.245   7.476  2.5474 -0.6030 -0.5540
   43CHL1  H18B 3137   2.807   3.141   7.598 -1.4650  1.4262 -4.1115
   43CHL1  H18C 3138   2.886   3.288   7.648 -0.3659 -0.2463  0.0997
   43CHL1   C12 3139   3.151   3.206   7.517  0.5831  0.1152  0.3526
   43CHL1  H12A 3140   3.159   3.313   7.543 -2.6466  0.7737 -0.9075
   43CHL1  H12B 3141   3.241   3.152   7.551  0.6430 -0.9945 -1.4313
   43CHL1   C11 3142   3.138   3.215   7.357 -0.2354  0.0065 -0.1508
   43CHL1  H11A 3143   3.059   3.290   7.332  0.5890  1.0418  0.2869
   43CHL1  H11B 3144   3.228   3.257   7.308  0.6864 -0.6253  0.9650
   43CHL1    C9 3145   3.101   3.075   7.292 -0.1704  0.2674  0.3767
   43CHL1    H9 3146   3.196   3.021   7.314 -1.2680 -1.3679  1.3163
   43CHL1   C10 3147   3.091   3.078   7.134 -0.6032 -0.3923  0.1593
   43CHL1   C19 3148   3.006   3.209   7.095  0.0661 -0.1032  0.1880
   43CHL1  H19A 3149   2.915   3.231   7.154 -0.2419 -1.8044  0.3959
   43CHL1  H19B 3150   3.072   3.298   7.092 -0.1613  0.0336 -1.3096
   43CHL1  H19C 3151   2.964   3.199   6.993  2.0810 -0.6656 -0.6375
   43CHL1    C1 3152   3.233   3.083   7.069  0.4084  0.5573  0.2000
   43CHL1   H1A 3153   3.285   3.177   7.100 -0.6812  0.6332  1.9391
   43CHL1   H1B 3154   3.293   2.999   7.112  1.3088  1.4197  0.6992
   43CHL1    C2 3155   3.216   3.083   6.917  0.7702  0.5046 -0.2337
   43CHL1   H2A 3156   3.315   3.087   6.869  1.3701 -1.0598  0.7738
   43CHL1   H2B 3157   3.153   3.164   6.875  0.5512 -0.3000 -1.5043
   43CHL1   C20 3158   3.074   3.186   7.841  1.2669 -0.4233 -0.3061
   43CHL1   H20 3159   3.087   3.285   7.791 -2.4616  0.6346  0.4760
   43CHL1   C21 3160   3.193   3.158   7.933 -0.4843  0.0031  0.7934
   43CHL1  H21A 3161   3.218   3.242   8.001 -1.2322  0.3579  0.6290
   43CHL1  H21B 3162   3.279   3.157   7.862 -1.8375  2.9607 -1.0784
   43CHL1  H21C 3163   3.182   3.053   7.970 -2.8442 -0.4190 -0.9131
   43CHL1   C22 3164   2.955   3.206   7.931 -0.8881  0.3196 -0.8200
   43CHL1  H22A 3165   2.862   3.211   7.871 -0.5595  4.0546 -1.2209
   43CHL1  H22B 3166   2.939   3.120   7.999 -1.2056  1.3866  0.4851
   43CHL1   C23 3167   2.959   3.341   8.005 -0.8155  0.4717 -0.3899
   43CHL1  H23A 3168   3.044   3.340   8.077 -1.5252  0.6481  0.4693
   43CHL1  H23B 3169   2.972   3.417   7.925  1.5538 -1.0644 -1.5999
   43CHL1   C24 3170   2.827   3.371   8.078  0.2780 -0.8410 -0.6096
   43CHL1  H24A 3171   2.762   3.384   7.989  0.2379 -4.2164 -1.1944
   43CHL1  H24B 3172   2.799   3.275   8.126  1.7083 -0.3585  1.3372
   43CHL1   C25 3173   2.822   3.492   8.171  0.3375  0.0549  0.8207
   43CHL1   H25 3174   2.883   3.575   8.130 -0.0592 -0.4324 -0.8273
   43CHL1   C26 3175   2.672   3.545   8.172  0.3307  0.7040 -0.5212
   43CHL1  H26A 3176   2.623   3.541   8.073  1.4514 -1.0301 -1.0495
   43CHL1  H26B 3177   2.602   3.499   8.245  1.2916  1.2759  0.8198
   43CHL1  H26C 3178   2.678   3.652   8.200 -0.1427  0.5910  0.0301
   43CHL1   C27 3179   2.880   3.469   8.315  0.0775  0.0954  0.6645
   43CHL1  H27A 3180   2.990   3.454   8.303 -0.2169 -1.2270 -0.7376
   43CHL1  H27B 3181   2.851   3.542   8.393  0.8150  0.5290  0.5464
   43CHL1  H27C 3182   2.837   3.370   8.342 -1.7210  0.7357  0.2488
   44CHL1    C3 3183   3.758   2.025   6.812  0.1483 -0.2321 -0.2183
   44CHL1    H3 3184   3.668   2.089   6.814  1.7527  2.1608  1.8161
   44CHL1    O3 3185   3.772   1.964   6.680  0.3018  0.5432 -0.4548
   44CHL1   H3' 3186   3.720   1.884   6.682 -0.4818  0.9306 -2.7550
   44CHL1    C4 3187   3.880   2.131   6.839  0.5266  0.1532  0.2219
   44CHL1   H4A 3188   3.977   2.079   6.822  0.8951  1.0594 -0.5278
   44CHL1   H4B 3189   3.878   2.201   6.752 -2.8518 -0.9533 -0.7534
   44CHL1    C5 3190   3.859   2.206   6.967  0.1554  0.7683  0.1556
   44CHL1    C6 3191   3.838   2.338   6.972 -0.5997  0.1973 -0.5206
   44CHL1    H6 3192   3.824   2.402   6.883 -2.8198  4.2727  2.4003
   44CHL1    C7 3193   3.827   2.419   7.098 -0.1643  0.6224 -0.4486
   44CHL1   H7A 3194   3.914   2.487   7.098  1.3915 -1.1689  2.4065
   44CHL1   H7B 3195   3.727   2.466   7.114  0.2445  0.7424  2.0666
   44CHL1    C8 3196   3.860   2.332   7.224  1.1852  0.1624  0.2574
   44CHL1    H8 3197   3.971   2.326   7.218  1.2657  2.1560 -1.2728
   44CHL1   C14 3198   3.818   2.398   7.349 -1.0738  0.1704 -0.3899
   44CHL1   H14 3199   3.708   2.384   7.346 -0.7146 -3.6001 -0.5189
   44CHL1   C15 3200   3.853   2.542   7.363  0.0823 -0.1362 -0.3082
   44CHL1  H15A 3201   3.958   2.569   7.342 -0.2743  0.6578 -1.1337
   44CHL1  H15B 3202   3.802   2.616   7.298 -1.0283  0.0478  0.7399
   44CHL1   C16 3203   3.831   2.572   7.507 -0.1953 -0.0018  0.7468
   44CHL1  H16A 3204   3.915   2.623   7.559  0.1193 -1.5360  1.8223
   44CHL1  H16B 3205   3.748   2.644   7.519  0.0030  0.5241 -0.7319
   44CHL1   C17 3206   3.794   2.439   7.575 -0.4050  0.3725 -1.1027
   44CHL1   H17 3207   3.684   2.422   7.577 -0.1347 -1.8388 -2.2155
   44CHL1   C13 3208   3.856   2.334   7.480 -0.3660  0.2339 -0.5671
   44CHL1   C18 3209   4.013   2.334   7.501 -0.3078 -1.0849  0.3975
   44CHL1  H18A 3210   4.063   2.287   7.415 -0.9040  1.6832 -1.6169
   44CHL1  H18B 3211   4.056   2.437   7.504 -0.0558 -0.8040 -4.8030
   44CHL1  H18C 3212   4.044   2.283   7.595  0.7363  0.3004  0.8542
   44CHL1   C12 3213   3.793   2.195   7.483 -0.1334 -0.0479  0.0742
   44CHL1  H12A 3214   3.825   2.134   7.571 -0.0639 -0.1576 -0.0266
   44CHL1  H12B 3215   3.683   2.200   7.496 -0.2697 -1.6357 -0.1852
   44CHL1   C11 3216   3.828   2.116   7.358 -0.2036  0.0820  0.1937
   44CHL1  H11A 3217   3.936   2.091   7.371 -0.3084 -0.2578  0.4011
   44CHL1  H11B 3218   3.776   2.019   7.351 -0.0192  0.0221 -0.4181
   44CHL1    C9 3219   3.805   2.186   7.224  0.6216  0.0808 -0.1840
   44CHL1    H9 3220   3.696   2.199   7.202  0.0034  0.4982  2.6607
   44CHL1   C10 3221   3.848   2.109   7.089  0.4310  0.1924 -0.5953
   44CHL1   C19 3222   3.978   2.035   7.102  0.0949 -0.2441 -0.8776
   44CHL1  H19A 3223   4.067   2.098   7.123  0.2446  0.1641 -2.5677
   44CHL1  H19B 3224   3.973   1.964   7.187  2.0391  1.3168  0.6510
   44CHL1  H19C 3225   4.004   1.958   7.026  0.8129 -0.7461 -0.1337
   44CHL1    C1 3226   3.741   1.998   7.063  0.1797  0.1379 -0.1361
   44CHL1   H1A 3227   3.746   1.922   7.144 -1.3793  0.7519  0.5853
   44CHL1   H1B 3228   3.640   2.043   7.063 -0.9279 -2.2186 -0.1677
   44CHL1    C2 3229   3.748   1.930   6.924 -0.4667  0.2807 -0.2894
   44CHL1   H2A 3230   3.666   1.857   6.906 -1.4713  1.1317  0.7389
   44CHL1   H2B 3231   3.838   1.864   6.921 -0.9123 -0.5006  1.7572
   44CHL1   C20 3232   3.836   2.442   7.725  0.0946  0.0441  0.6203
   44CHL1   H20 3233   3.944   2.467   7.731  0.8541 -1.9684 -2.3402
   44CHL1   C21 3234   3.817   2.305   7.792  0.0355  0.1267 -0.6351
   44CHL1  H21A 3235   3.716   2.261   7.789 -0.8721  2.0294  0.0940
   44CHL1  H21B 3236   3.868   2.300   7.891 -0.7509 -1.6569 -0.2923
   44CHL1  H21C 3237   3.887   2.232   7.746  2.7465  2.1967 -0.0754
   44CHL1   C22 3238   3.770   2.553   7.804 -0.3769 -0.5155 -0.6047
   44CHL1  H22A 3239   3.780   2.653   7.757 -1.0901  0.5297  1.3382
   44CHL1  H22B 3240   3.661   2.535   7.818 -0.2733  0.5192  2.3671
   44CHL1   C23 3241   3.828   2.571   7.948  0.1592 -0.3710  0.2313
   44CHL1  H23A 3242   3.813   2.480   8.009 -2.0722 -0.4402 -0.3314
   44CHL1  H23B 3243   3.938   2.580   7.933  0.1214  1.9066  1.0598
   44CHL1   C24 3244   3.764   2.697   8.015 -0.1964  0.3903  0.2407
   44CHL1  H24A 3245   3.777   2.788   7.952 -1.9043 -0.9294 -2.1481
   44CHL1  H24B 3246   3.657   2.669   8.028  0.3630 -2.0826 -0.0394
   44CHL1   C25 3247   3.815   2.716   8.163  0.5869 -0.3670 -0.1480
   44CHL1   H25 3248   3.806   2.624   8.225 -1.3819 -0.3332 -0.3245
   44CHL1   C26 3249   3.961   2.751   8.166  0.3317 -0.3521 -0.4634
   44CHL1  H26A 3250   4.022   2.659   8.154 -0.7838 -1.7217  2.8945
   44CHL1  H26B 3251   3.987   2.826   8.089  0.2882 -1.4516 -1.5756
   44CHL1  H26C 3252   3.992   2.801   8.261  1.7201  0.3266 -1.2520
   44CHL1   C27 3253   3.734   2.829   8.216 -1.0257 -0.0463  0.5894
   44CHL1  H27A 3254   3.626   2.807   8.225 -1.0218 -0.0769  0.5575
   44CHL1  H27B 3255   3.767   2.867   8.315 -1.2731  1.0400  0.2709
   44CHL1  H27C 3256   3.764   2.913   8.149  2.3224 -0.9880  0.7422
   45CHL1    C3 3257   3.762   0.188   6.664  0.1209  0.0789 -0.0057
   45CHL1    H3 3258   3.818   0.283   6.659 -3.8268  2.6017 -0.4014
   45CHL1    O3 3259   3.740   0.153   6.528 -0.3196 -0.1865  0.1602
   45CHL1   H3' 3260   3.658   0.188   6.493 -0.4110  0.0024  0.5627
   45CHL1    C4 3261   3.834   0.075   6.740 -1.0796 -0.3643 -0.1321
   45CHL1   H4A 3262   3.777  -0.020   6.740  1.2880 -1.8815 -1.1272
   45CHL1   H4B 3263   3.934   0.059   6.694 -1.2723 -1.5018 -0.1745
   45CHL1    C5 3264   3.848   0.131   6.877 -0.2448  0.0184  0.6082
   45CHL1    C6 3265   3.969   0.140   6.940 -0.2768 -0.0147  0.7289
   45CHL1    H6 3266   4.061   0.111   6.888  0.3725  0.4642  1.5834
   45CHL1    C7 3267   3.992   0.192   7.082  0.3619 -0.1213 -0.5480
   45CHL1   H7A 3268   4.070   0.133   7.136 -1.2115 -1.4539  0.3394
   45CHL1   H7B 3269   4.032   0.296   7.079  1.0026 -0.1651  2.5426
   45CHL1    C8 3270   3.861   0.186   7.167 -0.1524 -0.3429  0.2976
   45CHL1    H8 3271   3.840   0.078   7.176 -1.1351 -0.2546 -0.8147
   45CHL1   C14 3272   3.874   0.264   7.307  0.8355  0.2581 -0.7966
   45CHL1   H14 3273   3.896   0.363   7.264  0.5748  0.3157 -0.7989
   45CHL1   C15 3274   3.993   0.220   7.396  0.6786  0.6874  0.7466
   45CHL1  H15A 3275   4.001   0.111   7.380  0.0600  0.7709 -0.2349
   45CHL1  H15B 3276   4.086   0.275   7.370 -0.1162  1.8470  0.2244
   45CHL1   C16 3277   3.948   0.274   7.534 -0.3561 -0.1783  0.0946
   45CHL1  H16A 3278   3.947   0.191   7.608  1.4930 -0.6193 -0.3246
   45CHL1  H16B 3279   4.011   0.356   7.574  0.3999 -0.2210 -0.9759
   45CHL1   C17 3280   3.803   0.335   7.509 -0.9654 -0.1460 -0.2689
   45CHL1   H17 3281   3.820   0.437   7.467 -0.4901 -1.3067 -3.1548
   45CHL1   C13 3282   3.755   0.263   7.391  0.4739  0.8836 -0.6350
   45CHL1   C18 3283   3.721   0.115   7.425  0.0725 -0.5404  0.5810
   45CHL1  H18A 3284   3.619   0.102   7.468 -0.4364  1.6975  0.1652
   45CHL1  H18B 3285   3.709   0.044   7.341  1.1927 -0.4980  0.3629
   45CHL1  H18C 3286   3.780   0.065   7.505 -1.7083 -0.8631  1.7611
   45CHL1   C12 3287   3.638   0.332   7.314 -0.1022 -0.2925  0.0324
   45CHL1  H12A 3288   3.550   0.334   7.381 -0.8143 -2.4035 -0.7526
   45CHL1  H12B 3289   3.664   0.436   7.286 -1.8691 -0.0335 -0.7234
   45CHL1   C11 3290   3.613   0.259   7.183  0.7172 -0.4388 -0.6934
   45CHL1  H11A 3291   3.572   0.163   7.222  0.8195  0.9635  3.2490
   45CHL1  H11B 3292   3.543   0.322   7.124 -0.1560 -0.5246  0.2232
   45CHL1    C9 3293   3.742   0.240   7.093 -0.7109 -0.4444  0.4083
   45CHL1    H9 3294   3.778   0.342   7.068 -0.9169 -0.3692  0.4188
   45CHL1   C10 3295   3.718   0.170   6.956  0.7562 -0.0066  0.1201
   45CHL1   C19 3296   3.643   0.039   6.991  0.0297  0.6326  0.0407
   45CHL1  H19A 3297   3.539   0.070   7.017 -0.4156  2.0194 -2.9216
   45CHL1  H19B 3298   3.628  -0.018   6.897  1.9826  1.2685 -0.6997
   45CHL1  H19C 3299   3.688  -0.039   7.056  0.9367 -1.5663 -2.9899
   45CHL1    C1 3300   3.626   0.262   6.864 -0.4541 -0.3117 -0.0350
   45CHL1   H1A 3301   3.524   0.270   6.908 -0.0724 -0.0179  0.8343
   45CHL1   H1B 3302   3.670   0.364   6.872 -2.7226  0.7670 -0.5610
   45CHL1    C2 3303   3.625   0.217   6.723  0.0287 -0.3495 -0.2500
   45CHL1   H2A 3304   3.580   0.300   6.665 -0.7656 -1.3686 -1.1281
   45CHL1   H2B 3305   3.569   0.123   6.701  1.2166 -1.0867 -0.2468
   45CHL1   C20 3306   3.713   0.353   7.634  0.2350  0.7843 -0.5726
   45CHL1   H20 3307   3.605   0.355   7.611  0.1682 -1.7572 -0.7762
   45CHL1   C21 3308   3.742   0.493   7.707 -0.2153  0.2298 -0.0845
   45CHL1  H21A 3309   3.846   0.496   7.747 -0.5054  1.3676  0.6450
   45CHL1  H21B 3310   3.673   0.507   7.793 -0.2916  1.0783 -0.2684
   45CHL1  H21C 3311   3.720   0.579   7.639  0.9967  2.2108  1.8765
   45CHL1   C22 3312   3.720   0.242   7.747 -0.4466 -0.0063  0.3116
   45CHL1  H22A 3313   3.733   0.141   7.704 -3.9107 -0.1172 -0.7691
   45CHL1  H22B 3314   3.810   0.265   7.809 -1.2351 -1.2849  2.0170
   45CHL1   C23 3315   3.602   0.240   7.849 -0.4302 -0.6428  0.0808
   45CHL1  H23A 3316   3.570   0.340   7.886  3.3497  1.4650 -1.7451
   45CHL1  H23B 3317   3.510   0.187   7.814  0.1297 -1.1970 -0.5640
   45CHL1   C24 3318   3.642   0.156   7.969 -0.6719  0.3178 -0.1908
   45CHL1  H24A 3319   3.665   0.048   7.952 -0.7832  0.4407 -1.1311
   45CHL1  H24B 3320   3.728   0.202   8.022  0.4840 -2.8192  0.9436
   45CHL1   C25 3321   3.536   0.147   8.082  0.4495  1.0780  0.2318
   45CHL1   H25 3322   3.485   0.245   8.097 -0.4972  0.8027 -0.9808
   45CHL1   C26 3323   3.423   0.053   8.035 -0.5059  0.7346  0.3078
   45CHL1  H26A 3324   3.452  -0.040   7.981 -1.5935  0.4309  0.2361
   45CHL1  H26B 3325   3.347   0.033   8.113  0.8586 -0.2102  1.4554
   45CHL1  H26C 3326   3.367   0.105   7.954 -1.4608  0.6500  0.8973
   45CHL1   C27 3327   3.604   0.088   8.207  0.5938 -0.6410 -0.6304
   45CHL1  H27A 3328   3.659   0.177   8.244  0.0676  0.0993 -1.5906
   45CHL1  H27B 3329   3.532   0.049   8.282  0.5095 -1.9729 -1.3622
   45CHL1  H27C 3330   3.671   0.002   8.184 -1.0647 -2.9354  2.4244
   46CHL1    C3 3331   4.332   2.979   7.017  0.1665  0.2767 -0.1382
   46CHL1    H3 3332   4.409   2.903   7.044 -1.2739 -0.7560  1.2447
   46CHL1    O3 3333   4.318   2.977   6.878  0.2722  0.0664 -0.5874
   46CHL1   H3' 3334   4.404   3.010   6.852  0.2097 -0.4242 -1.4960
   46CHL1    C4 3335   4.205   2.926   7.088  0.1287 -0.2864  0.7072
   46CHL1   H4A 3336   4.118   2.981   7.046  1.3387  0.4298 -0.9749
   46CHL1   H4B 3337   4.186   2.822   7.053 -0.8173  0.7479 -2.2207
   46CHL1    C5 3338   4.223   2.944   7.238 -0.0870  0.2278  0.4495
   46CHL1    C6 3339   4.212   2.842   7.325  0.3445  0.4655  0.8755
   46CHL1    H6 3340   4.176   2.744   7.289  0.6262  0.4075  0.7540
   46CHL1    C7 3341   4.207   2.858   7.475 -0.8665  0.3493  0.9771
   46CHL1   H7A 3342   4.119   2.808   7.521 -0.2221 -0.1131  1.7412
   46CHL1   H7B 3343   4.301   2.816   7.517 -1.3812 -0.8323  0.9759
   46CHL1    C8 3344   4.199   3.008   7.510  0.3416 -0.0053 -0.7781
   46CHL1    H8 3345   4.096   3.046   7.498  0.2709  1.1491  2.5277
   46CHL1   C14 3346   4.232   3.019   7.663 -0.4442  0.6519  0.1851
   46CHL1   H14 3347   4.335   2.980   7.679 -0.6822 -0.3778 -0.6489
   46CHL1   C15 3348   4.142   2.939   7.758  0.6435  0.0156 -0.4901
   46CHL1  H15A 3349   4.038   2.945   7.721  0.6146  2.3774 -0.2106
   46CHL1  H15B 3350   4.169   2.833   7.777  1.5541  0.3077 -0.0645
   46CHL1   C16 3351   4.150   3.021   7.896 -0.1712 -0.1812  0.7453
   46CHL1  H16A 3352   4.050   3.063   7.922  1.1289  3.2328  0.6948
   46CHL1  H16B 3353   4.176   2.950   7.977  3.0311  0.1518  0.1168
   46CHL1   C17 3354   4.249   3.136   7.869  0.3868 -0.1083  0.4574
   46CHL1   H17 3355   4.349   3.095   7.890  0.9166  0.2399 -1.2120
   46CHL1   C13 3356   4.241   3.166   7.715  0.3933  0.3413  0.1002
   46CHL1   C18 3357   4.101   3.233   7.693  0.2726 -0.1542 -0.7881
   46CHL1  H18A 3358   4.095   3.332   7.743  0.0919 -0.9177  0.7680
   46CHL1  H18B 3359   4.079   3.245   7.585 -0.2148  0.0037 -0.6782
   46CHL1  H18C 3360   4.020   3.168   7.734  1.2992 -1.8814 -1.3992
   46CHL1   C12 3361   4.356   3.233   7.640  0.0212  0.4821  0.7328
   46CHL1  H12A 3362   4.374   3.341   7.657 -0.6450  0.6487  0.4317
   46CHL1  H12B 3363   4.452   3.180   7.657  1.4149  2.6178 -0.1190
   46CHL1   C11 3364   4.332   3.222   7.489 -0.0736  0.1267  0.1953
   46CHL1  H11A 3365   4.254   3.295   7.459 -0.1204  0.5778  1.3287
   46CHL1  H11B 3366   4.434   3.244   7.449  0.0388 -0.8801 -0.0890
   46CHL1    C9 3367   4.302   3.084   7.434  0.3421  0.2557  0.7947
   46CHL1    H9 3368   4.400   3.035   7.450  0.9678  1.8407  2.1617
   46CHL1   C10 3369   4.268   3.087   7.276  0.5739  0.0685 -0.9081
   46CHL1   C19 3370   4.147   3.172   7.257  0.2412 -0.4251  0.2609
   46CHL1  H19A 3371   4.118   3.167   7.150  0.4545  1.2004  0.1029
   46CHL1  H19B 3372   4.057   3.134   7.309 -0.4037  0.3319 -0.2831
   46CHL1  H19C 3373   4.172   3.278   7.276 -0.0109 -0.2763 -0.2298
   46CHL1    C1 3374   4.394   3.143   7.205 -0.3067  0.4060  0.5331
   46CHL1   H1A 3375   4.409   3.251   7.226  3.2424  0.0861  0.2647
   46CHL1   H1B 3376   4.489   3.092   7.234 -0.6365 -1.2134 -1.0787
   46CHL1    C2 3377   4.366   3.125   7.058  0.4770  0.1389  0.7003
   46CHL1   H2A 3378   4.454   3.172   7.009 -0.2177 -2.1306 -3.1695
   46CHL1   H2B 3379   4.279   3.184   7.022  0.2355 -1.4363 -1.4392
   46CHL1   C20 3380   4.229   3.248   7.965  0.0221  0.7203  0.2122
   46CHL1   H20 3381   4.134   3.298   7.937 -2.2655 -2.4990  1.7001
   46CHL1   C21 3382   4.341   3.352   7.947 -0.4983 -0.3394 -0.4540
   46CHL1  H21A 3383   4.322   3.432   8.022 -0.9792 -1.0653  0.2181
   46CHL1  H21B 3384   4.347   3.411   7.853  1.4027  1.6893  0.8418
   46CHL1  H21C 3385   4.443   3.315   7.969  0.2535  1.0420 -1.4492
   46CHL1   C22 3386   4.226   3.194   8.117 -0.2950 -0.2394  0.8350
   46CHL1  H22A 3387   4.190   3.289   8.161 -0.5021  0.0248  0.1088
   46CHL1  H22B 3388   4.151   3.113   8.124 -2.8417  2.0440  1.8213
   46CHL1   C23 3389   4.364   3.152   8.176  0.8160 -0.0168 -0.1135
   46CHL1  H23A 3390   4.423   3.095   8.101  0.8836 -0.3945  0.2213
   46CHL1  H23B 3391   4.428   3.240   8.196 -0.6142  0.5657  2.3276
   46CHL1   C24 3392   4.345   3.061   8.307  0.1946  0.0388  0.3698
   46CHL1  H24A 3393   4.447   3.043   8.348 -0.6802 -0.8249  2.2762
   46CHL1  H24B 3394   4.309   3.125   8.391 -2.9832  1.4929 -1.8661
   46CHL1   C25 3395   4.265   2.930   8.288  0.2913  0.6107  0.7251
   46CHL1   H25 3396   4.164   2.962   8.254 -0.3119 -1.8208  0.0541
   46CHL1   C26 3397   4.322   2.837   8.181 -0.3645  0.5151 -0.3500
   46CHL1  H26A 3398   4.421   2.802   8.217 -1.3226  0.0187  2.0225
   46CHL1  H26B 3399   4.260   2.745   8.176  2.2173 -1.2664 -2.0621
   46CHL1  H26C 3400   4.326   2.880   8.079 -0.3633  0.2626 -0.4554
   46CHL1   C27 3401   4.254   2.855   8.419  0.4031  0.0006  0.0132
   46CHL1  H27A 3402   4.346   2.875   8.477  0.0130  0.3788  0.5067
   46CHL1  H27B 3403   4.177   2.900   8.485 -0.8562 -0.2172 -1.2539
   46CHL1  H27C 3404   4.241   2.745   8.410 -3.6286  0.3038  0.2805
   47CHL1    C3 3405   4.410   0.980   6.845 -0.1075 -0.2327  0.8007
   47CHL1    H3 3406   4.304   1.010   6.852  0.6256  3.4814 -1.6706
   47CHL1    O3 3407   4.441   0.936   6.710  0.3453  0.2536 -0.6312
   47CHL1   H3' 3408   4.528   0.896   6.717 -0.6566 -2.8567 -3.4947
   47CHL1    C4 3409   4.489   1.108   6.854 -0.1007  0.3933  0.0123
   47CHL1   H4A 3410   4.597   1.089   6.833  0.3965  1.2594  1.6101
   47CHL1   H4B 3411   4.460   1.181   6.776  3.0661  1.3104 -0.4432
   47CHL1    C5 3412   4.465   1.164   6.993  0.1415  0.4249  0.3681
   47CHL1    C6 3413   4.418   1.285   7.016 -0.8047 -1.2572  0.1363
   47CHL1    H6 3414   4.408   1.345   6.924 -0.0591 -0.2943  0.6632
   47CHL1    C7 3415   4.398   1.353   7.144 -0.3132  0.2278 -0.0587
   47CHL1   H7A 3416   4.450   1.451   7.140 -0.9094  0.4892 -2.8668
   47CHL1   H7B 3417   4.290   1.367   7.165 -0.4250  0.1705 -0.6038
   47CHL1    C8 3418   4.468   1.274   7.267  0.7900  0.1685 -0.7647
   47CHL1    H8 3419   4.579   1.281   7.261  0.9392 -1.2182 -0.0021
   47CHL1   C14 3420   4.424   1.318   7.409  0.1245  0.3793  0.5719
   47CHL1   H14 3421   4.316   1.291   7.415 -0.3704  2.1947  0.1973
   47CHL1   C15 3422   4.416   1.469   7.446 -0.3008 -0.8493  0.0373
   47CHL1  H15A 3423   4.509   1.522   7.417 -0.0986 -0.8543  0.6655
   47CHL1  H15B 3424   4.328   1.515   7.396  1.0482  0.3909 -1.3325
   47CHL1   C16 3425   4.403   1.468   7.603  0.8144  0.4458  0.5228
   47CHL1  H16A 3426   4.495   1.516   7.642  1.7950 -1.2337  0.3568
   47CHL1  H16B 3427   4.324   1.530   7.653 -1.1503 -2.3555  1.1377
   47CHL1   C17 3428   4.396   1.318   7.642 -0.5580 -0.6112  1.0214
   47CHL1   H17 3429   4.289   1.291   7.628 -1.0591  1.7428 -0.1299
   47CHL1   C13 3430   4.473   1.243   7.524 -0.7034  0.1875 -0.4751
   47CHL1   C18 3431   4.626   1.268   7.536 -0.0270 -0.1468  0.0296
   47CHL1  H18A 3432   4.660   1.214   7.627  0.5939 -0.7155 -0.5249
   47CHL1  H18B 3433   4.693   1.236   7.453 -0.9673 -1.9921 -0.0691
   47CHL1  H18C 3434   4.649   1.375   7.554  1.2991 -0.3450 -0.3354
   47CHL1   C12 3435   4.432   1.095   7.504  0.0502  0.0056  0.0345
   47CHL1  H12A 3436   4.485   1.037   7.583 -1.7324 -0.8005  0.7109
   47CHL1  H12B 3437   4.321   1.089   7.516  0.0167  1.4272  0.6591
   47CHL1   C11 3438   4.483   1.033   7.374 -0.7070 -0.0008  0.0414
   47CHL1  H11A 3439   4.594   1.030   7.381 -0.8199 -0.5537  2.6781
   47CHL1  H11B 3440   4.450   0.927   7.365  0.2049 -0.2785 -0.0838
   47CHL1    C9 3441   4.439   1.119   7.250  0.1483 -0.6837 -0.6158
   47CHL1    H9 3442   4.328   1.106   7.246  0.2374 -1.9170  0.3717
   47CHL1   C10 3443   4.487   1.066   7.113 -0.2918 -0.5436 -0.6384
   47CHL1   C19 3444   4.644   1.055   7.124 -0.0333  0.2231  0.2021
   47CHL1  H19A 3445   4.691   1.032   7.027  0.4638 -0.9756  0.7095
   47CHL1  H19B 3446   4.692   1.152   7.150  1.0880  0.3664 -2.2054
   47CHL1  H19C 3447   4.669   0.981   7.204  1.6419  1.1519  0.5782
   47CHL1    C1 3448   4.420   0.929   7.087  0.1455 -0.6631  0.2545
   47CHL1   H1A 3449   4.456   0.845   7.150  0.2345 -1.3573 -0.7005
   47CHL1   H1B 3450   4.309   0.936   7.099  0.0739 -0.1966 -0.5708
   47CHL1    C2 3451   4.462   0.881   6.944  0.1947  0.1401 -0.2811
   47CHL1   H2A 3452   4.415   0.781   6.930  0.4537 -0.0085 -0.1142
   47CHL1   H2B 3453   4.572   0.862   6.941  0.5536  2.1085 -1.6004
   47CHL1   C20 3454   4.433   1.285   7.788 -0.3982 -0.3631  0.3678
   47CHL1   H20 3455   4.544   1.287   7.802 -0.1488 -0.9636 -1.3624
   47CHL1   C21 3456   4.377   1.147   7.821 -0.5607 -0.4018 -0.1273
   47CHL1  H21A 3457   4.424   1.062   7.767 -0.3585 -1.1634  1.1869
   47CHL1  H21B 3458   4.267   1.144   7.809 -0.7398  0.7922  1.0062
   47CHL1  H21C 3459   4.403   1.121   7.926  0.0331 -2.2534 -0.7075
   47CHL1   C22 3460   4.384   1.388   7.892 -0.2863 -0.2867 -0.1289
   47CHL1  H22A 3461   4.413   1.342   7.989 -0.2356  0.0203  0.0051
   47CHL1  H22B 3462   4.436   1.486   7.877 -2.6574  1.0642  0.0542
   47CHL1   C23 3463   4.230   1.410   7.901 -0.2881  0.8418  0.3417
   47CHL1  H23A 3464   4.197   1.445   7.801  1.0738  2.7113  0.4855
   47CHL1  H23B 3465   4.178   1.313   7.914  0.0965 -0.0516 -3.5361
   47CHL1   C24 3466   4.198   1.520   8.000  0.0794 -0.3225  0.1107
   47CHL1  H24A 3467   4.260   1.610   7.982 -0.8014  0.6151  1.5352
   47CHL1  H24B 3468   4.090   1.546   7.995 -0.5477 -2.5119  0.9965
   47CHL1   C25 3469   4.213   1.478   8.148 -0.3175  0.3055  0.3881
   47CHL1   H25 3470   4.318   1.457   8.175 -0.5076  0.2573  1.1183
   47CHL1   C26 3471   4.159   1.584   8.236  0.8038 -0.4624  0.0231
   47CHL1  H26A 3472   4.133   1.552   8.339 -2.3834  0.4436 -0.3866
   47CHL1  H26B 3473   4.246   1.653   8.238  2.2266 -2.1629 -0.5788
   47CHL1  H26C 3474   4.064   1.626   8.197 -0.4156 -1.9887  1.2239
   47CHL1   C27 3475   4.141   1.351   8.184  0.0054 -0.5040  0.2301
   47CHL1  H27A 3476   4.033   1.360   8.161  0.2732 -0.3705 -1.0017
   47CHL1  H27B 3477   4.182   1.267   8.123 -1.8245 -0.4644 -1.1339
   47CHL1  H27C 3478   4.141   1.318   8.290 -1.5478  0.6597  0.6273
   48CHL1    C3 3479   6.453   5.012   6.364  0.1350  0.3094 -0.2787
   48CHL1    H3 3480   6.527   5.094   6.355  0.6371 -0.1730 -0.6222
   48CHL1    O3 3481   6.373   5.013   6.245 -0.0497  0.4806 -0.5667
   48CHL1   H3' 3482   6.327   4.930   6.250 -0.0196  0.4832 -0.2611
   48CHL1    C4 3483   6.520   4.875   6.376 -0.1832 -0.9286  0.1563
   48CHL1   H4A 3484   6.447   4.796   6.348 -0.6750 -0.5591  0.3725
   48CHL1   H4B 3485   6.600   4.858   6.300 -0.7764 -4.4684  0.1648
   48CHL1    C5 3486   6.585   4.859   6.512 -0.6008  0.1221  0.0102
   48CHL1    C6 3487   6.719   4.822   6.527  0.6142  0.2312 -0.1860
   48CHL1    H6 3488   6.773   4.796   6.435 -0.1476 -2.4354  0.0431
   48CHL1    C7 3489   6.788   4.788   6.656 -0.2742 -0.1569  0.4159
   48CHL1   H7A 3490   6.842   4.691   6.650 -1.3399 -0.8891  1.8756
   48CHL1   H7B 3491   6.858   4.871   6.680 -0.2441 -0.2476  0.6524
   48CHL1    C8 3492   6.687   4.772   6.777  0.1654 -0.4097 -0.1006
   48CHL1    H8 3493   6.632   4.676   6.766  2.9624 -2.0111 -1.0403
   48CHL1   C14 3494   6.759   4.786   6.911 -0.3012  0.2765 -0.3454
   48CHL1   H14 3495   6.796   4.891   6.913  1.5497 -0.3470  0.6819
   48CHL1   C15 3496   6.886   4.704   6.938 -0.2291 -0.6490  0.0660
   48CHL1  H15A 3497   6.861   4.596   6.935 -0.8211 -0.4981 -0.8608
   48CHL1  H15B 3498   6.973   4.718   6.871 -2.1535  0.9933 -2.2515
   48CHL1   C16 3499   6.914   4.728   7.083 -0.0761  0.2453  0.0571
   48CHL1  H16A 3500   6.947   4.635   7.135  1.7529  0.0390 -1.3567
   48CHL1  H16B 3501   6.992   4.806   7.098  1.0672 -1.0623  1.2765
   48CHL1   C17 3502   6.782   4.789   7.148  0.5462 -0.9245 -0.1497
   48CHL1   H17 3503   6.797   4.899   7.141 -1.5617 -0.6036 -0.1321
   48CHL1   C13 3504   6.671   4.765   7.038 -0.0567 -0.0349  0.5572
   48CHL1   C18 3505   6.620   4.620   7.056  0.3990 -0.4837 -0.1815
   48CHL1  H18A 3506   6.570   4.602   6.959  1.1125 -1.0728 -0.4500
   48CHL1  H18B 3507   6.699   4.543   7.068  1.6896  0.8336  0.0757
   48CHL1  H18C 3508   6.547   4.615   7.139 -0.3511 -2.1935 -0.8987
   48CHL1   C12 3509   6.552   4.866   7.031 -0.1387  0.1937  0.4338
   48CHL1  H12A 3510   6.476   4.858   7.111 -1.8759 -0.7209 -1.2409
   48CHL1  H12B 3511   6.605   4.963   7.041  0.0524  0.1909 -0.4733
   48CHL1   C11 3512   6.473   4.865   6.897  0.3749 -0.4354  0.0361
   48CHL1  H11A 3513   6.410   4.773   6.898  1.2808 -1.0653 -0.2665
   48CHL1  H11B 3514   6.396   4.944   6.907 -1.5044 -2.2102  0.4702
   48CHL1    C9 3515   6.567   4.878   6.767  0.0096 -0.5880 -0.2091
   48CHL1    H9 3516   6.617   4.977   6.774 -1.1446  0.0925 -1.3302
   48CHL1   C10 3517   6.492   4.874   6.632 -0.0907  0.0218 -0.9840
   48CHL1   C19 3518   6.382   4.766   6.634  0.3886  0.2086 -0.0509
   48CHL1  H19A 3519   6.422   4.681   6.692 -0.0080  2.5183  3.9398
   48CHL1  H19B 3520   6.296   4.799   6.696  0.5921  0.9233 -0.1441
   48CHL1  H19C 3521   6.341   4.746   6.532  0.1282  1.1535 -0.1394
   48CHL1    C1 3522   6.419   5.012   6.613 -0.5781  0.0015  1.1753
   48CHL1   H1A 3523   6.342   5.030   6.691 -3.0722  1.4736 -1.4004
   48CHL1   H1B 3524   6.502   5.086   6.609 -1.9542  1.5912  0.3518
   48CHL1    C2 3525   6.355   5.040   6.476  0.1988 -0.3619 -0.5126
   48CHL1   H2A 3526   6.325   5.146   6.465 -0.1285 -0.5216 -1.2387
   48CHL1   H2B 3527   6.261   4.983   6.463 -0.8601  1.5210 -1.5975
   48CHL1   C20 3528   6.753   4.756   7.287  0.4457  0.0169 -0.5099
   48CHL1   H20 3529   6.744   4.645   7.289  2.7585 -0.2076  0.9096
   48CHL1   C21 3530   6.627   4.825   7.340 -0.1104 -0.4823 -0.2790
   48CHL1  H21A 3531   6.534   4.788   7.292  0.2833 -1.2867 -0.4394
   48CHL1  H21B 3532   6.614   4.935   7.351 -2.9858 -0.9578  2.7704
   48CHL1  H21C 3533   6.615   4.789   7.444  1.1335 -1.7478 -0.5410
   48CHL1   C22 3534   6.871   4.790   7.381 -0.1240  0.4971  0.2604
   48CHL1  H22A 3535   6.864   4.729   7.474 -1.3787  0.8884  0.4375
   48CHL1  H22B 3536   6.966   4.767   7.329 -0.7684 -2.2121  0.1242
   48CHL1   C23 3537   6.889   4.937   7.423 -0.1277  0.0839  0.2743
   48CHL1  H23A 3538   6.866   4.990   7.328 -1.4071 -0.4438  0.2569
   48CHL1  H23B 3539   6.807   4.960   7.494 -0.1345  0.5265  0.1270
   48CHL1   C24 3540   7.023   4.973   7.496  0.3000 -0.7698 -0.0073
   48CHL1  H24A 3541   7.113   4.933   7.443  0.9703  0.3878  0.2276
   48CHL1  H24B 3542   7.024   5.084   7.505 -1.1189 -0.8567  1.8482
   48CHL1   C25 3543   7.032   4.905   7.638 -0.7890  0.0233  0.2981
   48CHL1   H25 3544   7.032   4.794   7.631  1.8725 -0.0508  0.4930
   48CHL1   C26 3545   7.171   4.951   7.688 -0.0912  0.1358 -0.0083
   48CHL1  H26A 3546   7.195   4.887   7.776 -1.2072 -0.4917 -0.1437
   48CHL1  H26B 3547   7.248   4.931   7.610 -0.9453 -2.7186 -0.2358
   48CHL1  H26C 3548   7.160   5.052   7.733 -1.6930  0.0583 -0.1758
   48CHL1   C27 3549   6.922   4.955   7.735  1.0167  0.0387 -0.6704
   48CHL1  H27A 3550   6.826   4.903   7.715  0.9849 -1.1474  2.0649
   48CHL1  H27B 3551   6.955   4.934   7.839  1.1376 -0.2721 -0.7701
   48CHL1  H27C 3552   6.911   5.065   7.727  2.2558  0.2207 -0.0899
   49CHL1    C3 3553   6.604   5.430   6.666 -0.2428 -0.5435  0.8171
   49CHL1    H3 3554   6.577   5.538   6.662  0.0219 -0.4941  0.3408
   49CHL1    O3 3555   6.581   5.389   6.534 -0.3032  0.3944  0.0203
   49CHL1   H3' 3556   6.645   5.321   6.512  1.0141  1.8586 -0.9138
   49CHL1    C4 3557   6.753   5.393   6.708 -0.1565  0.0777  0.3024
   49CHL1   H4A 3558   6.772   5.287   6.682  1.3232  0.1450  1.0076
   49CHL1   H4B 3559   6.813   5.448   6.632 -0.4205 -0.2474 -0.1478
   49CHL1    C5 3560   6.789   5.441   6.846  0.1083  0.2840 -0.0385
   49CHL1    C6 3561   6.883   5.529   6.872  0.9608 -0.2926  0.9115
   49CHL1    H6 3562   6.957   5.570   6.801  0.8592  0.9148  1.4772
   49CHL1    C7 3563   6.916   5.576   7.008  0.7141 -0.2226 -0.1493
   49CHL1   H7A 3564   7.025   5.580   7.031  0.8741  2.7413 -0.9895
   49CHL1   H7B 3565   6.883   5.682   7.020  1.2924 -0.0876  0.3144
   49CHL1    C8 3566   6.850   5.501   7.129 -0.7008 -0.2647 -0.0646
   49CHL1    H8 3567   6.903   5.405   7.144 -0.3120  0.0570  0.6706
   49CHL1   C14 3568   6.865   5.586   7.255  0.1728  0.4192 -0.4690
   49CHL1   H14 3569   6.821   5.687   7.240  1.2136  0.6115 -2.5328
   49CHL1   C15 3570   7.009   5.619   7.299  0.0373 -0.7506 -0.2174
   49CHL1  H15A 3571   7.078   5.534   7.280  0.1193 -0.8702  0.6060
   49CHL1  H15B 3572   7.061   5.700   7.243  0.0513  1.2336  2.4799
   49CHL1   C16 3573   6.981   5.667   7.448  0.2263 -0.1562 -0.5983
   49CHL1  H16A 3574   7.052   5.614   7.515 -0.6383 -0.1886  0.3102
   49CHL1  H16B 3575   6.986   5.777   7.455  2.3548 -0.3345  3.2573
   49CHL1   C17 3576   6.839   5.609   7.487 -0.1327  0.6007 -0.0883
   49CHL1   H17 3577   6.775   5.697   7.466 -0.9003 -0.0105 -0.3393
   49CHL1   C13 3578   6.808   5.508   7.374 -0.0438 -0.3092 -0.3343
   49CHL1   C18 3579   6.872   5.374   7.407  0.8743 -0.2311  0.6479
   49CHL1  H18A 3580   6.836   5.342   7.507  0.1888 -1.3302  0.0652
   49CHL1  H18B 3581   6.864   5.291   7.333  0.4524  1.3481 -1.1735
   49CHL1  H18C 3582   6.982   5.383   7.416  0.9256 -0.7811  0.6091
   49CHL1   C12 3583   6.651   5.481   7.358  0.5986 -0.8456 -0.2589
   49CHL1  H12A 3584   6.621   5.412   7.440 -0.7083 -3.7576 -2.9620
   49CHL1  H12B 3585   6.603   5.580   7.367  0.3537 -0.8626 -1.2784
   49CHL1   C11 3586   6.635   5.414   7.216  0.3485  0.1975 -0.0883
   49CHL1  H11A 3587   6.669   5.308   7.227 -0.3641  0.0485  0.7410
   49CHL1  H11B 3588   6.527   5.407   7.192  0.1260 -1.2815  1.1953
   49CHL1    C9 3589   6.713   5.475   7.099  0.5693  0.6474  0.5793
   49CHL1    H9 3590   6.667   5.573   7.074  0.5323  0.5542  0.2811
   49CHL1   C10 3591   6.697   5.396   6.960  0.6053  0.1382 -0.1396
   49CHL1   C19 3592   6.716   5.244   6.972  0.0221 -0.5529  0.0982
   49CHL1  H19A 3593   6.812   5.221   7.024 -0.3309  1.2482  1.6612
   49CHL1  H19B 3594   6.632   5.196   7.027  0.1476 -0.9969 -0.0873
   49CHL1  H19C 3595   6.704   5.179   6.883 -0.7589 -2.3001  1.4101
   49CHL1    C1 3596   6.546   5.407   6.919 -0.0352  0.2633  0.1794
   49CHL1   H1A 3597   6.485   5.345   6.987  0.8449  0.9311  1.6084
   49CHL1   H1B 3598   6.522   5.515   6.928 -1.0450  0.3597 -2.5360
   49CHL1    C2 3599   6.507   5.363   6.767  0.1715 -0.1359 -0.4035
   49CHL1   H2A 3600   6.401   5.390   6.749 -0.1832  0.0589  1.7522
   49CHL1   H2B 3601   6.513   5.252   6.763  3.4368 -0.3105  3.1920
   49CHL1   C20 3602   6.805   5.581   7.629 -0.4350 -0.1214  0.4278
   49CHL1   H20 3603   6.719   5.512   7.616  1.3956 -2.2711 -1.0776
   49CHL1   C21 3604   6.766   5.715   7.689  0.2444  0.2418  0.4276
   49CHL1  H21A 3605   6.739   5.715   7.797 -4.8098  0.4045 -0.5746
   49CHL1  H21B 3606   6.672   5.749   7.641  1.5971  2.7672 -0.6326
   49CHL1  H21C 3607   6.840   5.792   7.660 -1.1915  0.2146 -4.0091
   49CHL1   C22 3608   6.912   5.510   7.714 -0.0765 -0.0657  0.3962
   49CHL1  H22A 3609   6.937   5.415   7.662  1.3416  0.6264 -0.2616
   49CHL1  H22B 3610   7.005   5.570   7.727  0.4902 -0.5411 -1.1873
   49CHL1   C23 3611   6.866   5.456   7.852 -0.0414 -0.2364  0.0432
   49CHL1  H23A 3612   6.947   5.413   7.915 -1.7971 -3.7441  0.1573
   49CHL1  H23B 3613   6.819   5.542   7.904  0.1869 -0.0701 -0.0247
   49CHL1   C24 3614   6.764   5.341   7.836  0.1454 -0.5152 -0.1690
   49CHL1  H24A 3615   6.667   5.387   7.806  0.6288 -0.9692 -2.6464
   49CHL1  H24B 3616   6.806   5.272   7.759  0.3484  0.2242 -0.7366
   49CHL1   C25 3617   6.737   5.258   7.961  0.4892  0.0858 -0.1876
   49CHL1   H25 3618   6.682   5.315   8.040 -0.9062 -1.6448  0.1591
   49CHL1   C26 3619   6.642   5.142   7.922 -0.0907  0.0125  0.3890
   49CHL1  H26A 3620   6.542   5.171   7.884 -0.2283 -1.4922 -0.5059
   49CHL1  H26B 3621   6.688   5.085   7.838 -0.1467 -0.7469  0.8615
   49CHL1  H26C 3622   6.627   5.070   8.005  2.0296 -0.5557  0.3537
   49CHL1   C27 3623   6.866   5.188   8.016 -0.4158 -0.0738  0.5453
   49CHL1  H27A 3624   6.946   5.259   8.044 -1.1298  0.3456  1.6173
   49CHL1  H27B 3625   6.838   5.130   8.107  0.2966  0.4234  1.0906
   49CHL1  H27C 3626   6.902   5.113   7.942  1.4229 -0.3543  1.6681
   50CHL1    C3 3627   5.629   5.515   6.831  0.5798 -0.1370  0.1261
   50CHL1    H3 3628   5.543   5.584   6.841  1.3659  0.6987  1.2335
   50CHL1    O3 3629   5.665   5.499   6.699  0.3808 -0.5374 -0.2821
   50CHL1   H3' 3630   5.705   5.581   6.669  0.4431 -1.0161 -1.5751
   50CHL1    C4 3631   5.747   5.572   6.903 -0.4774  0.6981 -0.3047
   50CHL1   H4A 3632   5.817   5.486   6.893 -1.0050 -0.0496  1.8027
   50CHL1   H4B 3633   5.789   5.658   6.847  0.2884  0.7483  0.3244
   50CHL1    C5 3634   5.729   5.604   7.047  0.1609 -0.4457 -0.3864
   50CHL1    C6 3635   5.743   5.726   7.101  0.1065 -0.6459 -0.4978
   50CHL1    H6 3636   5.775   5.814   7.043 -0.5982 -1.0995 -1.5850
   50CHL1    C7 3637   5.728   5.756   7.246 -0.0763 -0.5403 -0.6999
   50CHL1   H7A 3638   5.806   5.825   7.286 -1.4307 -0.8902  2.9795
   50CHL1   H7B 3639   5.632   5.806   7.271  1.0800  1.0119  0.9308
   50CHL1    C8 3640   5.732   5.627   7.338  0.0804  0.2961 -0.6849
   50CHL1    H8 3641   5.838   5.596   7.349  0.4916  1.1074 -2.0569
   50CHL1   C14 3642   5.674   5.670   7.469  0.1483 -0.3045  0.0158
   50CHL1   H14 3643   5.567   5.696   7.456  0.0941 -0.7451 -0.4616
   50CHL1   C15 3644   5.748   5.784   7.542  0.4080  0.1190 -0.4429
   50CHL1  H15A 3645   5.857   5.766   7.538  0.4779 -0.4210  2.0168
   50CHL1  H15B 3646   5.710   5.882   7.507 -2.5894 -0.4213  0.9499
   50CHL1   C16 3647   5.707   5.770   7.684 -0.8837 -0.7986  0.0405
   50CHL1  H16A 3648   5.799   5.781   7.744  1.2708 -0.9957 -2.9839
   50CHL1  H16B 3649   5.642   5.852   7.722  2.3093  3.0786 -2.0641
   50CHL1   C17 3650   5.635   5.638   7.696  0.1784 -0.1500  0.0546
   50CHL1   H17 3651   5.529   5.666   7.679  0.7341  2.7629  0.8365
   50CHL1   C13 3652   5.671   5.552   7.568  0.1006 -0.2263  0.3852
   50CHL1   C18 3653   5.805   5.494   7.581  0.1435  0.3034 -0.2630
   50CHL1  H18A 3654   5.872   5.574   7.619 -0.1339  2.4068 -3.7284
   50CHL1  H18B 3655   5.803   5.415   7.659 -0.4871  0.9589  0.4092
   50CHL1  H18C 3656   5.858   5.457   7.491  1.4872  0.9593  0.2296
   50CHL1   C12 3657   5.561   5.453   7.518 -0.8344 -0.5321  0.8021
   50CHL1  H12A 3658   5.548   5.381   7.601 -0.2347 -0.2097  1.1909
   50CHL1  H12B 3659   5.473   5.521   7.513 -0.8550 -0.5805  0.5424
   50CHL1   C11 3660   5.607   5.398   7.374 -1.1488 -0.6133 -0.2315
   50CHL1  H11A 3661   5.696   5.339   7.404 -0.1859 -0.7071 -2.9818
   50CHL1  H11B 3662   5.525   5.333   7.339 -0.4764 -1.8066  0.3620
   50CHL1    C9 3663   5.640   5.514   7.275  0.0354 -0.1778  0.1964
   50CHL1    H9 3664   5.538   5.557   7.261  0.7347  1.3526 -0.4482
   50CHL1   C10 3665   5.673   5.477   7.128  0.4205 -0.3749  0.1243
   50CHL1   C19 3666   5.793   5.373   7.129  0.1988 -0.3398 -0.0288
   50CHL1  H19A 3667   5.834   5.331   7.035  2.6876 -1.4403  1.4381
   50CHL1  H19B 3668   5.878   5.404   7.193  0.5683  1.0316 -1.1458
   50CHL1  H19C 3669   5.756   5.285   7.187 -3.0637  0.2223 -1.0490
   50CHL1    C1 3670   5.560   5.401   7.049  0.0777  0.2023  0.1122
   50CHL1   H1A 3671   5.549   5.304   7.102  3.0247  1.2730  3.0441
   50CHL1   H1B 3672   5.471   5.466   7.064 -0.6174 -0.5506 -0.6125
   50CHL1    C2 3673   5.583   5.384   6.898  0.2393 -0.5764 -0.6035
   50CHL1   H2A 3674   5.501   5.340   6.838 -0.1297  0.3698 -0.8096
   50CHL1   H2B 3675   5.661   5.305   6.897 -0.3655 -1.1802 -1.6133
   50CHL1   C20 3676   5.653   5.582   7.836 -0.1024  0.4646 -0.4132
   50CHL1   H20 3677   5.756   5.542   7.842  0.4260  1.6963 -0.8776
   50CHL1   C21 3678   5.548   5.467   7.856  0.4553  0.9161 -0.6094
   50CHL1  H21A 3679   5.546   5.447   7.965 -3.5145  1.9979 -0.3044
   50CHL1  H21B 3680   5.567   5.379   7.792 -2.1552  0.2659 -0.6247
   50CHL1  H21C 3681   5.442   5.499   7.842  0.7403  2.9128  1.2689
   50CHL1   C22 3682   5.636   5.676   7.958 -0.5022 -0.1240  0.1745
   50CHL1  H22A 3683   5.696   5.766   7.930  0.5885 -0.5377  1.1301
   50CHL1  H22B 3684   5.529   5.694   7.982 -0.7439  0.0774 -1.0021
   50CHL1   C23 3685   5.702   5.613   8.086  0.1029  0.4311  0.1143
   50CHL1  H23A 3686   5.621   5.554   8.135  0.5923 -1.7412 -1.5044
   50CHL1  H23B 3687   5.783   5.542   8.058  0.5899  1.4081 -1.0658
   50CHL1   C24 3688   5.754   5.715   8.184 -0.3775 -0.5682 -0.4538
   50CHL1  H24A 3689   5.829   5.789   8.150 -0.8989  0.5859  0.7939
   50CHL1  H24B 3690   5.663   5.778   8.201  0.5857  0.6406  0.4207
   50CHL1   C25 3691   5.802   5.668   8.321  0.1886  0.5291 -0.1355
   50CHL1   H25 3692   5.726   5.596   8.359 -0.6202  0.7800 -1.2425
   50CHL1   C26 3693   5.938   5.597   8.313 -0.1020  0.0190  0.0992
   50CHL1  H26A 3694   5.930   5.512   8.243  0.9526 -2.1184  2.4310
   50CHL1  H26B 3695   6.013   5.667   8.269 -0.0279 -0.8086 -1.1314
   50CHL1  H26C 3696   5.966   5.549   8.408 -2.6027  2.2947  2.1677
   50CHL1   C27 3697   5.822   5.787   8.420 -0.2876  0.1138 -0.1254
   50CHL1  H27A 3698   5.734   5.850   8.444 -1.0803  0.0857 -2.6426
   50CHL1  H27B 3699   5.864   5.754   8.518 -0.3299  1.4170  0.3419
   50CHL1  H27C 3700   5.902   5.854   8.382  0.8476  0.8134  3.1347
   51CHL1    C3 3701   6.551   0.863   6.789  0.2873  0.4764 -0.1157
   51CHL1    H3 3702   6.634   0.934   6.766  1.1750 -0.3037  0.6164
   51CHL1    O3 3703   6.492   0.855   6.665  0.0589 -0.0606 -0.0486
   51CHL1   H3' 3704   6.463   0.942   6.636 -0.0100 -0.0953 -0.0852
   51CHL1    C4 3705   6.597   0.724   6.817 -0.3285  0.0431  0.1683
   51CHL1   H4A 3706   6.516   0.648   6.810 -1.6530  1.5114 -1.5318
   51CHL1   H4B 3707   6.666   0.694   6.735  0.9229 -0.5864  1.4032
   51CHL1    C5 3708   6.665   0.720   6.955 -0.5946  0.2143  0.2685
   51CHL1    C6 3709   6.787   0.669   6.976  0.1051 -0.0041  0.3289
   51CHL1    H6 3710   6.840   0.619   6.894 -2.3772 -0.2177 -1.2422
   51CHL1    C7 3711   6.845   0.666   7.116 -0.1495  0.5897  0.1943
   51CHL1   H7A 3712   6.893   0.565   7.120 -1.0165  0.1707  0.2544
   51CHL1   H7B 3713   6.924   0.743   7.127 -2.6295  3.5647 -1.3701
   51CHL1    C8 3714   6.747   0.678   7.227  0.4368  0.0632  0.8306
   51CHL1    H8 3715   6.689   0.582   7.230 -1.5467  1.2159  3.1756
   51CHL1   C14 3716   6.818   0.698   7.358 -0.2978  0.1812 -0.1292
   51CHL1   H14 3717   6.873   0.795   7.359  1.8735 -0.9866  0.9575
   51CHL1   C15 3718   6.921   0.594   7.401 -0.2657  0.4949 -0.7974
   51CHL1  H15A 3719   6.883   0.493   7.375 -0.6617  0.6986 -1.0252
   51CHL1  H15B 3720   7.023   0.603   7.360  0.4751 -0.9293  0.6128
   51CHL1   C16 3721   6.928   0.618   7.555  0.5632 -0.3307  0.6589
   51CHL1  H16A 3722   6.893   0.520   7.596  0.2291 -0.1136  0.9030
   51CHL1  H16B 3723   7.027   0.643   7.597  0.2554  1.6670  0.2762
   51CHL1   C17 3724   6.819   0.717   7.591 -0.1085  0.2906 -0.1906
   51CHL1   H17 3725   6.868   0.816   7.587 -0.0166  0.2890  0.8367
   51CHL1   C13 3726   6.719   0.715   7.472  0.2503  0.5524 -0.5321
   51CHL1   C18 3727   6.629   0.589   7.474  0.3187 -1.0549  0.8148
   51CHL1  H18A 3728   6.679   0.490   7.474 -1.5059 -2.0590  3.4110
   51CHL1  H18B 3729   6.568   0.587   7.566 -2.6634  0.3076 -0.9619
   51CHL1  H18C 3730   6.560   0.578   7.387 -0.5264  0.7252  1.2196
   51CHL1   C12 3731   6.645   0.853   7.451  0.4052 -0.2294  0.1742
   51CHL1  H12A 3732   6.571   0.861   7.533 -1.7650 -2.0349 -1.4824
   51CHL1  H12B 3733   6.706   0.945   7.435  0.5400 -0.7636 -2.9070
   51CHL1   C11 3734   6.565   0.846   7.321  0.2023 -0.7519  0.6262
   51CHL1  H11A 3735   6.477   0.780   7.336  0.8882 -1.3165  2.3194
   51CHL1  H11B 3736   6.536   0.952   7.301  1.1991 -0.5589  0.1630
   51CHL1    C9 3737   6.656   0.794   7.197  0.8208 -0.2258  0.4237
   51CHL1    H9 3738   6.722   0.881   7.177  1.3144 -1.0190 -1.6768
   51CHL1   C10 3739   6.576   0.779   7.068 -0.1122  0.2581  0.0394
   51CHL1   C19 3740   6.467   0.678   7.097 -0.4468  0.1206  0.2285
   51CHL1  H19A 3741   6.400   0.713   7.178  0.3970  0.7946  0.6511
   51CHL1  H19B 3742   6.403   0.652   7.010 -0.4074  0.1975  0.1759
   51CHL1  H19C 3743   6.494   0.580   7.143 -0.6316 -0.8792 -1.6934
   51CHL1    C1 3744   6.523   0.919   7.024  0.5064  0.6171  0.7975
   51CHL1   H1A 3745   6.458   0.951   7.108 -0.5491 -1.9696  1.0561
   51CHL1   H1B 3746   6.606   0.990   7.005 -0.6312  1.6068 -0.8547
   51CHL1    C2 3747   6.449   0.904   6.895  0.5389 -0.5123 -0.5049
   51CHL1   H2A 3748   6.402   1.000   6.865 -2.9580 -2.1944 -0.8363
   51CHL1   H2B 3749   6.366   0.830   6.891  0.7629 -0.8220  0.3995
   51CHL1   C20 3750   6.771   0.709   7.736  0.4084  0.5930 -0.0381
   51CHL1   H20 3751   6.707   0.619   7.748  0.9199 -0.1897 -2.4930
   51CHL1   C21 3752   6.686   0.829   7.770  0.2425  0.4166 -0.3134
   51CHL1  H21A 3753   6.589   0.839   7.717 -0.1354 -0.1732  0.2537
   51CHL1  H21B 3754   6.738   0.927   7.766  3.4147 -0.9199  2.5830
   51CHL1  H21C 3755   6.654   0.810   7.875 -0.2246  0.1639 -0.5022
   51CHL1   C22 3756   6.886   0.689   7.840 -0.0158  0.2303 -0.7925
   51CHL1  H22A 3757   6.944   0.601   7.805  1.0905  0.4907  0.3072
   51CHL1  H22B 3758   6.947   0.779   7.818 -0.1676  0.3816 -0.6027
   51CHL1   C23 3759   6.848   0.670   7.992  0.0071 -0.2593 -0.2095
   51CHL1  H23A 3760   6.767   0.737   8.028  0.3621  0.7538 -1.2272
   51CHL1  H23B 3761   6.817   0.563   7.998  0.4691 -0.4871 -1.6096
   51CHL1   C24 3762   6.957   0.715   8.097  0.7320  0.3174  0.4369
   51CHL1  H24A 3763   7.052   0.666   8.067 -0.4350 -1.3693 -0.6479
   51CHL1  H24B 3764   6.974   0.825   8.088 -1.1996  0.5115 -1.6369
   51CHL1   C25 3765   6.941   0.680   8.247  1.0330 -0.3831 -0.0423
   51CHL1   H25 3766   6.935   0.570   8.263  1.5029 -0.4137 -0.0765
   51CHL1   C26 3767   7.052   0.723   8.336 -0.3285 -0.3511  0.4347
   51CHL1  H26A 3768   7.051   0.828   8.373  0.1003 -0.4207  0.6564
   51CHL1  H26B 3769   7.060   0.663   8.429 -1.6188 -1.3169 -0.0428
   51CHL1  H26C 3770   7.149   0.709   8.283 -1.4821 -2.0089 -1.3661
   51CHL1   C27 3771   6.812   0.743   8.304 -0.0428 -0.4187 -0.3798
   51CHL1  H27A 3772   6.801   0.853   8.285 -0.7614  0.4567  4.0968
   51CHL1  H27B 3773   6.719   0.693   8.269  1.1511 -1.6797 -1.8730
   51CHL1  H27C 3774   6.813   0.732   8.414 -0.8765 -1.6601 -0.4795
   52CHL1    C3 3775   1.296   0.026   6.811  0.2895  0.4454  0.4063
   52CHL1    H3 3776   1.242   0.103   6.870  0.6966  0.3779  0.8720
   52CHL1    O3 3777   1.296   0.049   6.674 -0.0439 -1.7355 -0.3517
   52CHL1   H3' 3778   1.253  -0.022   6.626 -0.9562 -2.5998  1.6777
   52CHL1    C4 3779   1.443   0.008   6.869  0.0725 -0.6645 -0.4557
   52CHL1   H4A 3780   1.492  -0.072   6.809 -2.7008 -1.4507 -1.8498
   52CHL1   H4B 3781   1.500   0.103   6.858  0.7085 -0.7356  1.8768
   52CHL1    C5 3782   1.442  -0.037   7.015 -0.3556  0.5470  0.0410
   52CHL1    C6 3783   1.497   0.042   7.113 -0.3376 -1.1112 -1.1313
   52CHL1    H6 3784   1.546   0.135   7.082 -1.3495 -0.6360 -1.3359
   52CHL1    C7 3785   1.484   0.017   7.262 -0.9031 -0.6156  0.2823
   52CHL1   H7A 3786   1.585   0.030   7.306 -0.9006 -2.4729  0.9332
   52CHL1   H7B 3787   1.430   0.100   7.313  0.8131  1.7237 -1.4717
   52CHL1    C8 3788   1.438  -0.132   7.288  0.6082 -0.7334  0.1759
   52CHL1    H8 3789   1.527  -0.197   7.277  0.7368 -0.3718 -1.0403
   52CHL1   C14 3790   1.396  -0.146   7.442  0.0856 -0.0853 -0.4689
   52CHL1   H14 3791   1.304  -0.084   7.454 -0.0314 -0.3871  0.2448
   52CHL1   C15 3792   1.489  -0.090   7.554  0.3988  0.8080  0.2390
   52CHL1  H15A 3793   1.593  -0.094   7.516 -0.1893 -1.6427 -1.3011
   52CHL1  H15B 3794   1.461   0.016   7.575 -2.4504 -0.2422  2.3232
   52CHL1   C16 3795   1.449  -0.181   7.677 -0.4950 -0.4338  0.7138
   52CHL1  H16A 3796   1.534  -0.246   7.709  0.2876 -0.0737 -0.5697
   52CHL1  H16B 3797   1.418  -0.115   7.761  2.0004  2.9138 -0.7808
   52CHL1   C17 3798   1.326  -0.273   7.631  0.5699  0.1970 -0.2676
   52CHL1   H17 3799   1.239  -0.209   7.655 -0.8285 -1.1518 -1.5170
   52CHL1   C13 3800   1.336  -0.284   7.479 -0.2866 -0.4728 -0.2952
   52CHL1   C18 3801   1.442  -0.390   7.454 -0.8650  0.2874  0.1800
   52CHL1  H18A 3802   1.478  -0.398   7.350 -0.4625  4.3937 -0.1594
   52CHL1  H18B 3803   1.531  -0.364   7.515  0.1579 -0.3155 -1.0135
   52CHL1  H18C 3804   1.426  -0.492   7.496  2.8897 -0.9083 -0.9418
   52CHL1   C12 3805   1.216  -0.301   7.397  0.5346 -0.5328 -0.1027
   52CHL1  H12A 3806   1.163  -0.395   7.426 -1.2874  0.2294 -0.7773
   52CHL1  H12B 3807   1.149  -0.215   7.418  1.6335  0.3458 -0.1587
   52CHL1   C11 3808   1.251  -0.302   7.246 -0.6633  0.1617  1.2751
   52CHL1  H11A 3809   1.315  -0.387   7.213  0.5716  1.0452  1.2943
   52CHL1  H11B 3810   1.154  -0.306   7.192 -1.4882  1.3299  2.5955
   52CHL1    C9 3811   1.324  -0.173   7.195 -0.2869 -0.2648 -0.2976
   52CHL1    H9 3812   1.252  -0.093   7.220 -0.8523 -0.7342 -0.3945
   52CHL1   C10 3813   1.357  -0.160   7.044 -0.1988 -0.4913  0.5299
   52CHL1   C19 3814   1.444  -0.280   7.003 -0.1320  0.5399 -0.1186
   52CHL1  H19A 3815   1.381  -0.370   6.982  0.8199 -0.3860  0.8360
   52CHL1  H19B 3816   1.503  -0.265   6.911  2.2363 -1.0675  1.0150
   52CHL1  H19C 3817   1.516  -0.317   7.080 -0.3681 -1.1070 -0.6578
   52CHL1    C1 3818   1.220  -0.158   6.968 -0.2840 -0.0182  0.0160
   52CHL1   H1A 3819   1.168  -0.252   6.998  0.1971 -0.5675 -0.8582
   52CHL1   H1B 3820   1.157  -0.078   7.013  2.1389  1.2094  1.3945
   52CHL1    C2 3821   1.228  -0.112   6.824  0.1288 -0.0165  0.1249
   52CHL1   H2A 3822   1.126  -0.119   6.781  0.8546 -0.8752 -1.5578
   52CHL1   H2B 3823   1.288  -0.182   6.762 -0.2113  0.4146 -0.7062
   52CHL1   C20 3824   1.310  -0.398   7.721  0.4962  0.1140 -0.5724
   52CHL1   H20 3825   1.403  -0.459   7.724 -1.6982 -3.4895  2.2109
   52CHL1   C21 3826   1.195  -0.482   7.662 -0.6757  0.5200 -0.7445
   52CHL1  H21A 3827   1.147  -0.544   7.740 -0.6730  1.7068  0.2475
   52CHL1  H21B 3828   1.230  -0.534   7.571  1.3986  1.1597 -0.3948
   52CHL1  H21C 3829   1.103  -0.425   7.637 -1.2189  0.8561  1.7803
   52CHL1   C22 3830   1.279  -0.351   7.868  0.1268  0.3128  0.0239
   52CHL1  H22A 3831   1.276  -0.447   7.925 -0.1618  0.0668 -0.3928
   52CHL1  H22B 3832   1.368  -0.303   7.912 -0.1819  1.4619 -0.5790
   52CHL1   C23 3833   1.160  -0.259   7.889  0.0016 -0.5078 -0.2922
   52CHL1  H23A 3834   1.198  -0.157   7.867  0.1841 -1.1171 -3.1615
   52CHL1  H23B 3835   1.069  -0.275   7.828 -0.9499  2.2671  0.2221
   52CHL1   C24 3836   1.108  -0.256   8.036  0.1464 -0.3694  0.5028
   52CHL1  H24A 3837   1.018  -0.191   8.050  0.9263  0.7192  0.5861
   52CHL1  H24B 3838   1.082  -0.361   8.060  0.6913 -0.2945  1.4550
   52CHL1   C25 3839   1.204  -0.215   8.148 -1.2123  0.6804 -0.0463
   52CHL1   H25 3840   1.293  -0.282   8.153 -2.5146 -1.0564  4.0932
   52CHL1   C26 3841   1.256  -0.072   8.134 -0.2356 -0.3331 -0.4471
   52CHL1  H26A 3842   1.308  -0.038   8.226  0.4315 -2.6397  0.1073
   52CHL1  H26B 3843   1.313  -0.050   8.042 -0.5842  0.6528 -0.4405
   52CHL1  H26C 3844   1.180   0.009   8.136  1.1482  1.0129  1.8655
   52CHL1   C27 3845   1.133  -0.217   8.283 -0.2110  0.0135  0.0752
   52CHL1  H27A 3846   1.208  -0.200   8.364 -0.2163 -0.2441  0.1349
   52CHL1  H27B 3847   1.060  -0.134   8.292  0.2629  0.1959  3.8772
   52CHL1  H27C 3848   1.087  -0.317   8.298 -0.0437  0.0108  0.5763
   53CHL1    C3 3849   3.514   4.501   7.271  0.0841 -0.1692  0.3615
   53CHL1    H3 3850   3.415   4.529   7.314  0.3427  0.5818  0.4831
   53CHL1    O3 3851   3.490   4.491   7.133  0.3760  0.1128  0.5410
   53CHL1   H3' 3852   3.571   4.462   7.092  0.7960  2.2786 -0.2969
   53CHL1    C4 3853   3.610   4.615   7.298 -0.2518 -0.3450 -0.2758
   53CHL1   H4A 3854   3.710   4.609   7.250  0.8579 -2.6064  2.0377
   53CHL1   H4B 3855   3.556   4.708   7.270  1.6092  1.3765  1.4713
   53CHL1    C5 3856   3.623   4.614   7.452  0.5625  1.6710  0.0850
   53CHL1    C6 3857   3.595   4.726   7.517  0.5462  0.0349  0.4102
   53CHL1    H6 3858   3.580   4.816   7.455  1.5788 -0.3459 -0.4389
   53CHL1    C7 3859   3.610   4.745   7.661  0.5556  0.8950 -0.0851
   53CHL1   H7A 3860   3.667   4.835   7.691 -0.2463  1.1827  0.6252
   53CHL1   H7B 3861   3.506   4.770   7.690 -0.3038  1.4462 -3.2120
   53CHL1    C8 3862   3.674   4.624   7.735 -0.2019  0.2188  0.0966
   53CHL1    H8 3863   3.781   4.652   7.726 -0.1664  1.2960  2.9846
   53CHL1   C14 3864   3.653   4.625   7.874  0.0034 -0.1529 -0.2000
   53CHL1   H14 3865   3.550   4.604   7.909  0.8846 -0.9721  2.0723
   53CHL1   C15 3866   3.686   4.754   7.946 -0.1434 -0.0299  0.4220
   53CHL1  H15A 3867   3.784   4.787   7.905  1.2293 -2.7236  1.2823
   53CHL1  H15B 3868   3.608   4.832   7.938  0.6679  0.6618 -1.2107
   53CHL1   C16 3869   3.716   4.720   8.087 -0.0301  0.1657 -0.1027
   53CHL1  H16A 3870   3.807   4.767   8.131 -1.0731 -0.1612  2.5656
   53CHL1  H16B 3871   3.635   4.746   8.158 -0.1958 -2.4892  0.7866
   53CHL1   C17 3872   3.722   4.560   8.092  0.1624  0.7958 -0.1542
   53CHL1   H17 3873   3.620   4.524   8.117  0.5128  0.6131  1.0680
   53CHL1   C13 3874   3.747   4.517   7.947 -0.3169 -0.5870 -1.0728
   53CHL1   C18 3875   3.899   4.534   7.918 -0.5599 -0.0739  0.1579
   53CHL1  H18A 3876   3.955   4.452   7.968 -0.5784 -0.2873 -0.1655
   53CHL1  H18B 3877   3.932   4.531   7.812  1.8313  0.7431  0.8074
   53CHL1  H18C 3878   3.943   4.632   7.944  0.1935 -0.5634  0.7627
   53CHL1   C12 3879   3.692   4.376   7.904 -0.0170  0.0735  0.1562
   53CHL1  H12A 3880   3.747   4.288   7.944 -0.6611 -0.1116  0.6521
   53CHL1  H12B 3881   3.589   4.367   7.944 -0.6825 -2.0505 -1.7552
   53CHL1   C11 3882   3.687   4.359   7.752 -0.4237 -0.5575  0.3758
   53CHL1  H11A 3883   3.795   4.356   7.728 -0.5737  1.9631 -0.9204
   53CHL1  H11B 3884   3.639   4.262   7.726 -0.9559  0.0012 -0.7554
   53CHL1    C9 3885   3.631   4.485   7.679 -0.2272  0.7115  0.2463
   53CHL1    H9 3886   3.522   4.485   7.704 -0.5395 -0.3729 -0.9597
   53CHL1   C10 3887   3.651   4.478   7.525  0.0502  0.5434 -0.3785
   53CHL1   C19 3888   3.804   4.482   7.493 -0.5636  0.1997  0.3888
   53CHL1  H19A 3889   3.831   4.488   7.386  1.5558  2.1394  0.9665
   53CHL1  H19B 3890   3.869   4.553   7.548 -0.1599  0.5384 -0.5040
   53CHL1  H19C 3891   3.844   4.382   7.522 -0.8452 -0.5793 -1.7399
   53CHL1    C1 3892   3.578   4.357   7.472  0.2916  0.3511  0.8412
   53CHL1   H1A 3893   3.624   4.260   7.502 -0.0277 -0.1348 -0.2014
   53CHL1   H1B 3894   3.472   4.348   7.504 -0.1189  0.4969 -0.4282
   53CHL1    C2 3895   3.553   4.360   7.317 -0.4712  0.0224  0.6492
   53CHL1   H2A 3896   3.479   4.288   7.275  0.7348 -1.7657  1.4742
   53CHL1   H2B 3897   3.652   4.346   7.270 -0.4948  0.0371  0.5954
   53CHL1   C20 3898   3.809   4.504   8.205 -0.3274  0.1412  0.0805
   53CHL1   H20 3899   3.915   4.531   8.183 -0.0535 -0.0374  1.1346
   53CHL1   C21 3900   3.772   4.356   8.222 -1.0008 -0.0020  0.2236
   53CHL1  H21A 3901   3.793   4.294   8.133 -2.6720 -1.8304  1.0060
   53CHL1  H21B 3902   3.672   4.334   8.267  0.6873 -3.4155  2.7444
   53CHL1  H21C 3903   3.832   4.312   8.305  0.9750 -1.0822 -1.6787
   53CHL1   C22 3904   3.781   4.574   8.341  0.2259  0.3456  0.7532
   53CHL1  H22A 3905   3.758   4.682   8.331  1.1699  0.5532  0.7353
   53CHL1  H22B 3906   3.700   4.525   8.400 -2.0009  1.6751 -1.0075
   53CHL1   C23 3907   3.905   4.586   8.430  0.4024  0.6128  0.6447
   53CHL1  H23A 3908   3.954   4.486   8.438 -2.4786 -1.1267 -1.3793
   53CHL1  H23B 3909   3.980   4.651   8.380  1.3460 -0.2662  0.8786
   53CHL1   C24 3910   3.863   4.649   8.567 -0.3379  0.2168  0.8604
   53CHL1  H24A 3911   3.827   4.751   8.542  0.9983  0.4929 -0.0264
   53CHL1  H24B 3912   3.776   4.598   8.615 -0.4834  0.9421  1.3944
   53CHL1   C25 3913   3.974   4.664   8.675 -0.2892 -0.3557  0.3057
   53CHL1   H25 3914   4.038   4.574   8.681  0.7912  0.4463  1.4217
   53CHL1   C26 3915   4.066   4.781   8.632  0.5263  0.4354 -0.6586
   53CHL1  H26A 3916   4.003   4.870   8.609 -1.6798 -0.9581 -0.3261
   53CHL1  H26B 3917   4.122   4.818   8.720 -2.3743  2.6744  0.4483
   53CHL1  H26C 3918   4.131   4.761   8.544  1.0321  0.1396 -0.2162
   53CHL1   C27 3919   3.900   4.684   8.811 -0.6947  0.4689 -0.0984
   53CHL1  H27A 3920   3.825   4.765   8.815 -2.0017 -0.6264 -1.3871
   53CHL1  H27B 3921   3.862   4.581   8.830  0.5750 -0.1168 -0.5409
   53CHL1  H27C 3922   3.985   4.705   8.879  1.4548  0.0652 -2.5005
   54CHL1    C3 3923   4.519   4.781   6.988 -0.3728 -0.1068 -0.0361
   54CHL1    H3 3924   4.520   4.892   6.983 -2.3070 -0.1019 -1.2924
   54CHL1    O3 3925   4.489   4.742   6.857  0.0350  0.0575 -0.2880
   54CHL1   H3' 3926   4.515   4.650   6.846  0.6870  0.0925  0.8069
   54CHL1    C4 3927   4.658   4.725   7.023  0.2661 -0.6679 -0.8513
   54CHL1   H4A 3928   4.650   4.614   7.015 -0.1396 -0.6848 -0.3207
   54CHL1   H4B 3929   4.743   4.763   6.963  2.0486 -1.9209  0.7582
   54CHL1    C5 3930   4.696   4.736   7.173 -0.1870  0.4466 -0.4682
   54CHL1    C6 3931   4.820   4.782   7.209  0.1247 -0.0152  0.7171
   54CHL1    H6 3932   4.891   4.819   7.133  0.6658  0.1801  1.3058
   54CHL1    C7 3933   4.879   4.785   7.350 -0.4205 -0.2829 -0.1509
   54CHL1   H7A 3934   4.982   4.745   7.361  0.3377  1.7348  0.6000
   54CHL1   H7B 3935   4.897   4.893   7.370  2.1701 -1.1299  2.7695
   54CHL1    C8 3936   4.776   4.741   7.461  0.4190 -0.1752  0.6199
   54CHL1    H8 3937   4.783   4.632   7.485  2.6380 -0.1076  0.4922
   54CHL1   C14 3938   4.801   4.825   7.588 -0.0897  0.0844  0.6293
   54CHL1   H14 3939   4.771   4.928   7.559 -1.6119 -0.5582 -0.2682
   54CHL1   C15 3940   4.944   4.824   7.651 -0.2521 -0.0119  0.2959
   54CHL1  H15A 3941   4.970   4.718   7.669 -1.2732 -0.2772  0.2567
   54CHL1  H15B 3942   5.022   4.875   7.590  0.0649 -0.2061  0.5369
   54CHL1   C16 3943   4.924   4.880   7.792 -0.0187  0.0528  0.3659
   54CHL1  H16A 3944   4.966   4.803   7.860  1.8088  0.1973 -0.5203
   54CHL1  H16B 3945   4.983   4.974   7.801 -0.8230  0.5867  0.1390
   54CHL1   C17 3946   4.770   4.891   7.809 -0.3643  0.4446  0.6040
   54CHL1   H17 3947   4.741   4.993   7.775  0.8249  0.6147  0.0394
   54CHL1   C13 3948   4.712   4.798   7.704  0.2503 -0.2484 -0.2881
   54CHL1   C18 3949   4.721   4.651   7.759  0.0971  0.1757  0.1580
   54CHL1  H18A 3950   4.708   4.582   7.673 -0.5269  0.5114 -0.0269
   54CHL1  H18B 3951   4.813   4.623   7.813 -0.6411 -3.2587 -0.1450
   54CHL1  H18C 3952   4.636   4.642   7.831  1.2717  4.4931  2.4537
   54CHL1   C12 3953   4.559   4.817   7.664 -0.3579  0.3545  0.5438
   54CHL1  H12A 3954   4.491   4.765   7.735 -1.2438 -0.4666 -0.8392
   54CHL1  H12B 3955   4.527   4.923   7.654 -2.1480  0.0223  2.1084
   54CHL1   C11 3956   4.528   4.745   7.530  0.5829  0.0738 -0.3574
   54CHL1  H11A 3957   4.520   4.635   7.545  1.4481 -0.2727 -2.1060
   54CHL1  H11B 3958   4.422   4.769   7.508  0.1497 -1.5205 -0.1186
   54CHL1    C9 3959   4.627   4.768   7.415 -1.3679  0.6504  0.3887
   54CHL1    H9 3960   4.627   4.878   7.397  0.3242  0.5738 -0.2049
   54CHL1   C10 3961   4.587   4.702   7.282  0.5323  0.0226  0.2908
   54CHL1   C19 3962   4.567   4.556   7.307 -0.0937  0.1160  0.4501
   54CHL1  H19A 3963   4.645   4.501   7.365 -1.1497 -0.5496  1.2907
   54CHL1  H19B 3964   4.473   4.540   7.364 -0.5689  0.4131 -0.2365
   54CHL1  H19C 3965   4.559   4.507   7.208 -1.3212  2.9172 -0.9312
   54CHL1    C1 3966   4.448   4.760   7.232 -0.1635 -0.0892  0.0605
   54CHL1   H1A 3967   4.371   4.717   7.301  0.0931 -0.2910  0.2221
   54CHL1   H1B 3968   4.449   4.871   7.239 -1.0796 -0.1060  0.6286
   54CHL1    C2 3969   4.413   4.724   7.084  0.9886 -0.7365  0.5532
   54CHL1   H2A 3970   4.312   4.768   7.068  0.6683 -1.8148 -0.5604
   54CHL1   H2B 3971   4.404   4.615   7.064  0.7520 -0.1562 -3.2444
   54CHL1   C20 3972   4.713   4.889   7.952  0.4915 -0.4097 -0.1070
   54CHL1   H20 3973   4.716   4.786   7.993  0.3410 -1.1518 -1.8838
   54CHL1   C21 3974   4.570   4.952   7.958  0.0793  0.1870  0.3638
   54CHL1  H21A 3975   4.532   4.939   8.062  0.5516  1.6775  0.7511
   54CHL1  H21B 3976   4.500   4.893   7.895  1.4048 -0.3187 -0.6963
   54CHL1  H21C 3977   4.563   5.062   7.940 -1.2418 -0.2782 -2.4095
   54CHL1   C22 3978   4.814   4.983   8.030 -0.6372 -0.1030  0.3020
   54CHL1  H22A 3979   4.922   4.962   8.042 -0.2156  1.6608 -0.1977
   54CHL1  H22B 3980   4.813   5.081   7.977  1.6812  0.1102  0.5802
   54CHL1   C23 3981   4.772   5.020   8.177 -0.3901 -0.4015  0.0195
   54CHL1  H23A 3982   4.667   5.054   8.185 -0.8361 -1.7781  0.2477
   54CHL1  H23B 3983   4.767   4.924   8.232 -1.1493 -0.9414 -0.9707
   54CHL1   C24 3984   4.855   5.119   8.253 -0.6622  0.2566  0.2325
   54CHL1  H24A 3985   4.959   5.081   8.246 -0.7321 -0.4248  2.1811
   54CHL1  H24B 3986   4.854   5.218   8.202 -1.4116 -0.2728 -0.8042
   54CHL1   C25 3987   4.813   5.132   8.401 -0.1337 -0.1716  0.5574
   54CHL1   H25 3988   4.791   5.034   8.447  0.8064  0.1314  1.6954
   54CHL1   C26 3989   4.922   5.195   8.485  0.7438  0.3377  0.4526
   54CHL1  H26A 3990   4.962   5.282   8.428 -1.8578  0.9451 -0.6226
   54CHL1  H26B 3991   4.885   5.222   8.586  1.1633 -0.4646  0.8313
   54CHL1  H26C 3992   5.005   5.123   8.492  0.7465 -0.0845 -2.5543
   54CHL1   C27 3993   4.685   5.213   8.422 -0.8337 -0.1725  0.2887
   54CHL1  H27A 3994   4.690   5.321   8.394 -1.2276 -0.4865 -1.0464
   54CHL1  H27B 3995   4.592   5.166   8.385 -1.5651  1.0324  0.5348
   54CHL1  H27C 3996   4.666   5.208   8.532 -2.5681 -1.7188 -0.0388
   55CHL1    C3 3997   4.757   5.264   6.897  0.6410  0.2462 -0.1111
   55CHL1    H3 3998   4.791   5.370   6.897 -1.0845  0.8361  0.0749
   55CHL1    O3 3999   4.775   5.207   6.768  0.3811  0.6083  0.0588
   55CHL1   H3' 4000   4.796   5.114   6.779 -0.6078  0.5258  1.5938
   55CHL1    C4 4001   4.845   5.194   7.002 -0.2849 -0.0125 -0.5501
   55CHL1   H4A 4002   4.820   5.086   6.999  4.6033 -1.4239  0.8304
   55CHL1   H4B 4003   4.952   5.213   6.978  0.1014  0.0407  1.0890
   55CHL1    C5 4004   4.816   5.241   7.143  0.5845 -0.1437 -0.2902
   55CHL1    C6 4005   4.918   5.284   7.226  0.3128  0.3445  0.1328
   55CHL1    H6 4006   5.022   5.275   7.193  0.4292  0.5425  0.4364
   55CHL1    C7 4007   4.893   5.345   7.362 -0.2657  0.4997 -0.2134
   55CHL1   H7A 4008   4.966   5.302   7.433  0.5348  0.8625 -0.8038
   55CHL1   H7B 4009   4.916   5.454   7.369  0.1661  0.2904  2.5719
   55CHL1    C8 4010   4.755   5.317   7.418  0.3644  0.2436  0.0735
   55CHL1    H8 4011   4.761   5.209   7.445  3.4029  0.6087  1.2678
   55CHL1   C14 4012   4.729   5.401   7.544  0.3392 -0.1951 -0.1410
   55CHL1   H14 4013   4.725   5.506   7.507 -1.8472 -0.4286 -0.7179
   55CHL1   C15 4014   4.829   5.408   7.650  0.0683 -0.2154 -0.5017
   55CHL1  H15A 4015   4.874   5.308   7.668  1.1589 -0.1321 -2.5008
   55CHL1  H15B 4016   4.917   5.471   7.623  0.9145 -1.4159 -0.6156
   55CHL1   C16 4017   4.759   5.447   7.782  1.1458  0.1585  1.0719
   55CHL1  H16A 4018   4.754   5.364   7.856 -1.1808 -0.8549 -0.1051
   55CHL1  H16B 4019   4.802   5.537   7.831 -1.4484  1.5008  1.0411
   55CHL1   C17 4020   4.604   5.459   7.744  0.0160  1.2066  0.1644
   55CHL1   H17 4021   4.588   5.566   7.719 -3.6664  0.4941 -1.1461
   55CHL1   C13 4022   4.596   5.371   7.613  0.3258  0.1683 -0.3800
   55CHL1   C18 4023   4.596   5.212   7.646  0.8937 -1.0289 -0.7665
   55CHL1  H18A 4024   4.495   5.190   7.687  0.6944 -1.1193 -1.2989
   55CHL1  H18B 4025   4.588   5.148   7.556 -1.9398  0.2792 -1.5667
   55CHL1  H18C 4026   4.681   5.172   7.705  0.8564 -2.0537 -1.4007
   55CHL1   C12 4027   4.490   5.418   7.511  0.0441 -0.1688 -0.0739
   55CHL1  H12A 4028   4.388   5.388   7.544 -0.4739  2.5884  1.0820
   55CHL1  H12B 4029   4.493   5.529   7.508 -1.0285 -0.0123  2.1327
   55CHL1   C11 4030   4.504   5.342   7.379 -0.3954 -0.3510  0.5453
   55CHL1  H11A 4031   4.461   5.240   7.384  1.1738 -1.1904 -1.7792
   55CHL1  H11B 4032   4.430   5.392   7.313  0.6709  2.7366  1.5153
   55CHL1    C9 4033   4.650   5.343   7.318 -0.0408  0.1425  0.4964
   55CHL1    H9 4034   4.665   5.451   7.294  0.1835  0.1024  0.4596
   55CHL1   C10 4035   4.668   5.257   7.191  0.3652 -0.2613 -0.0069
   55CHL1   C19 4036   4.613   5.117   7.222  0.1157  0.2345  0.3367
   55CHL1  H19A 4037   4.662   5.063   7.307 -0.4265 -2.2964 -0.8592
   55CHL1  H19B 4038   4.503   5.121   7.230  0.0805 -2.3520  3.1976
   55CHL1  H19C 4039   4.633   5.044   7.140  1.0272  0.5926  0.2282
   55CHL1    C1 4040   4.594   5.331   7.078  0.1201 -0.0987 -0.1371
   55CHL1   H1A 4041   4.485   5.327   7.101  0.4559  1.9166  2.2356
   55CHL1   H1B 4042   4.641   5.431   7.065  0.4677 -0.4352 -1.7205
   55CHL1    C2 4043   4.616   5.257   6.943  0.0208 -0.6109  0.3199
   55CHL1   H2A 4044   4.549   5.299   6.865 -0.7949 -0.3084  1.1550
   55CHL1   H2B 4045   4.589   5.150   6.959 -0.7292 -0.2132  1.8998
   55CHL1   C20 4046   4.506   5.430   7.861 -0.8255 -1.4202 -0.1530
   55CHL1   H20 4047   4.534   5.333   7.908 -0.0410 -1.3122 -0.3807
   55CHL1   C21 4048   4.358   5.426   7.817  0.4683 -0.1803  0.0233
   55CHL1  H21A 4049   4.327   5.339   7.756  0.6359  0.5901 -1.1855
   55CHL1  H21B 4050   4.335   5.524   7.769  2.9422  0.6928  0.4961
   55CHL1  H21C 4051   4.287   5.412   7.902  1.2025 -3.2921  0.2485
   55CHL1   C22 4052   4.526   5.532   7.982  0.2988  0.3879 -0.1346
   55CHL1  H22A 4053   4.634   5.549   8.004 -0.1362  0.4218  2.1128
   55CHL1  H22B 4054   4.482   5.624   7.937 -2.1034 -0.9347 -0.6667
   55CHL1   C23 4055   4.459   5.488   8.112  0.2183 -0.6874 -0.2746
   55CHL1  H23A 4056   4.350   5.469   8.097  0.5009 -1.9935 -0.8153
   55CHL1  H23B 4057   4.491   5.391   8.154 -0.0425 -1.1624 -1.1518
   55CHL1   C24 4058   4.473   5.610   8.208  0.0183 -0.2464  0.1634
   55CHL1  H24A 4059   4.582   5.615   8.231 -0.4946 -0.8268  3.1901
   55CHL1  H24B 4060   4.455   5.702   8.149  0.4847 -0.8823 -0.9979
   55CHL1   C25 4061   4.393   5.609   8.335  0.0149 -0.0229  0.8551
   55CHL1   H25 4062   4.286   5.638   8.319 -0.1522 -0.4879  1.1208
   55CHL1   C26 4063   4.404   5.473   8.410 -0.1033 -0.6596 -0.0234
   55CHL1  H26A 4064   4.353   5.391   8.355 -0.9730 -1.1466  1.4609
   55CHL1  H26B 4065   4.511   5.447   8.422  0.3794  0.4220 -1.7294
   55CHL1  H26C 4066   4.364   5.486   8.513 -0.0216  0.5751 -0.1384
   55CHL1   C27 4067   4.442   5.733   8.420  0.4909  0.1271 -0.0721
   55CHL1  H27A 4068   4.415   5.823   8.361  1.7674  0.3546 -0.3335
   55CHL1  H27B 4069   4.398   5.740   8.522  0.2039  0.9681 -0.2409
   55CHL1  H27C 4070   4.552   5.742   8.432  0.5315 -0.3317 -0.1016
   56CHL1    C3 4071   4.164   5.014   6.769  0.0540 -0.3355  0.1927
   56CHL1    H3 4072   4.189   4.908   6.789 -0.1898 -0.2910  0.7389
   56CHL1    O3 4073   4.168   5.028   6.627 -0.2540 -0.6964 -0.7121
   56CHL1   H3' 4074   4.142   5.119   6.617  2.5005  0.1636 -0.8416
   56CHL1    C4 4075   4.020   5.039   6.818 -0.0491 -0.2755  0.5714
   56CHL1   H4A 4076   3.989   5.143   6.794  1.3219  0.1732  0.6382
   56CHL1   H4B 4077   3.946   4.971   6.772  2.6904 -2.2231 -1.2709
   56CHL1    C5 4078   4.013   5.025   6.968  0.4922  0.2677  0.1809
   56CHL1    C6 4079   3.927   4.934   7.021  0.0350  0.3124 -0.3340
   56CHL1    H6 4080   3.874   4.865   6.954 -1.1088 -0.4485  1.2827
   56CHL1    C7 4081   3.917   4.899   7.166 -0.8488  0.0358 -0.0912
   56CHL1   H7A 4082   3.809   4.876   7.185 -0.9057 -0.4511 -0.9352
   56CHL1   H7B 4083   3.964   4.799   7.177  1.1867  0.7128 -1.9118
   56CHL1    C8 4084   3.986   5.008   7.259 -0.4175  0.5757  0.0828
   56CHL1    H8 4085   3.899   5.076   7.270 -1.9837 -1.5477  1.9683
   56CHL1   C14 4086   4.022   4.948   7.393 -0.5249 -0.3313  0.6357
   56CHL1   H14 4087   4.105   4.876   7.378 -1.6058 -1.1944 -1.6885
   56CHL1   C15 4088   3.909   4.868   7.465 -0.2528 -0.4636 -0.2757
   56CHL1  H15A 4089   3.808   4.914   7.452  0.6576  1.0373 -2.7118
   56CHL1  H15B 4090   3.902   4.764   7.426  0.4346 -1.1652  1.3680
   56CHL1   C16 4091   3.960   4.868   7.617  0.2254 -0.1860  0.1221
   56CHL1  H16A 4092   3.875   4.923   7.662  1.9031  1.1912  1.7821
   56CHL1  H16B 4093   3.975   4.767   7.661 -0.1518 -0.0274  0.6236
   56CHL1   C17 4094   4.093   4.958   7.617  0.9607  0.3404 -0.4525
   56CHL1   H17 4095   4.174   4.886   7.593  0.0204 -0.2426 -2.0417
   56CHL1   C13 4096   4.072   5.052   7.501  0.0064 -0.4186  0.1614
   56CHL1   C18 4097   3.958   5.161   7.529  0.0676 -0.0720 -0.7480
   56CHL1  H18A 4098   3.882   5.124   7.601  1.8743 -1.6034  0.4831
   56CHL1  H18B 4099   4.012   5.248   7.574  0.9756 -0.5253 -0.9322
   56CHL1  H18C 4100   3.902   5.196   7.440  1.1229 -1.0737 -1.8402
   56CHL1   C12 4101   4.203   5.114   7.441  0.3033 -0.6548 -1.2385
   56CHL1  H12A 4102   4.247   5.192   7.507 -0.5730 -0.1537 -1.2294
   56CHL1  H12B 4103   4.281   5.036   7.427  1.8309  1.0437 -3.0325
   56CHL1   C11 4104   4.178   5.171   7.296 -0.0777 -0.6498  0.5669
   56CHL1  H11A 4105   4.108   5.256   7.314 -0.7048 -1.1913  0.7403
   56CHL1  H11B 4106   4.272   5.214   7.256 -0.5932  2.3830  2.2914
   56CHL1    C9 4107   4.111   5.069   7.191  0.2793  0.0765 -1.0512
   56CHL1    H9 4108   4.178   4.981   7.192  1.3597  0.8765 -0.3678
   56CHL1   C10 4109   4.110   5.114   7.048  0.1703  0.0091  0.2280
   56CHL1   C19 4110   4.061   5.254   7.047  0.4029 -1.0387  0.2919
   56CHL1  H19A 4111   4.057   5.290   6.942 -2.9277  1.0391  0.9718
   56CHL1  H19B 4112   3.955   5.256   7.082  0.5427 -1.1380  0.7294
   56CHL1  H19C 4113   4.127   5.330   7.094  0.3421 -0.1662 -0.9836
   56CHL1    C1 4114   4.255   5.098   6.987 -0.3401  0.5276  0.3748
   56CHL1   H1A 4115   4.320   5.172   7.038  0.1031 -1.2658  2.5728
   56CHL1   H1B 4116   4.299   4.999   7.012  1.0253  0.7740 -0.9171
   56CHL1    C2 4117   4.263   5.114   6.832 -0.0149  0.3775  0.3426
   56CHL1   H2A 4118   4.366   5.087   6.800  0.9278  1.9383  1.8233
   56CHL1   H2B 4119   4.245   5.221   6.808  2.1546  0.9886  1.1996
   56CHL1   C20 4120   4.124   5.008   7.757  0.7406  0.3429 -0.0821
   56CHL1   H20 4121   4.065   5.101   7.768 -0.2897 -0.0423 -1.9192
   56CHL1   C21 4122   4.274   5.044   7.762  0.8205 -0.4195 -0.5559
   56CHL1  H21A 4123   4.299   5.111   7.677 -0.5744  1.2121  0.2656
   56CHL1  H21B 4124   4.335   4.952   7.772 -1.8600 -2.0656  2.8157
   56CHL1  H21C 4125   4.286   5.107   7.853 -0.3995  1.0184 -1.3452
   56CHL1   C22 4126   4.086   4.911   7.877 -0.1136 -0.0893  0.4390
   56CHL1  H22A 4127   3.976   4.896   7.872 -0.0779 -0.8060  1.5293
   56CHL1  H22B 4128   4.113   4.804   7.863 -1.1522 -0.4682  1.2247
   56CHL1   C23 4129   4.124   4.967   8.014  0.5011  0.1711 -0.4612
   56CHL1  H23A 4130   4.091   4.887   8.084  1.4997  2.3669  2.7352
   56CHL1  H23B 4131   4.234   4.971   8.029  0.3008 -0.8300  1.6258
   56CHL1   C24 4132   4.070   5.105   8.047  0.1519  0.7789  0.2804
   56CHL1  H24A 4133   4.100   5.177   7.968 -1.2459  0.7286 -0.3357
   56CHL1  H24B 4134   3.961   5.123   8.036 -0.3875 -2.3050 -0.3705
   56CHL1   C25 4135   4.114   5.149   8.186 -0.5287  0.4123  0.6513
   56CHL1   H25 4136   4.223   5.165   8.196 -0.2112 -0.9991 -0.2060
   56CHL1   C26 4137   4.058   5.293   8.209  0.4887  0.9381 -0.1391
   56CHL1  H26A 4138   4.115   5.353   8.135 -0.7779  0.6364 -1.4003
   56CHL1  H26B 4139   4.077   5.320   8.315 -0.1426 -2.2129  0.8583
   56CHL1  H26C 4140   3.949   5.288   8.190  0.4688  0.6566  0.0442
   56CHL1   C27 4141   4.057   5.066   8.299  0.7793  0.1814 -0.0788
   56CHL1  H27A 4142   4.145   5.024   8.352 -0.0374 -0.2591  0.9787
   56CHL1  H27B 4143   3.996   5.125   8.371 -1.8899  0.5756 -2.4643
   56CHL1  H27C 4144   3.988   4.983   8.271  1.2445 -1.0776  2.2514
   57SAPC     N 4145   3.660   3.071  10.746 -0.3875 -0.7113 -0.5528
   57SAPC   C12 4146   3.781   3.138  10.676  0.0574 -0.1525  0.6618
   57SAPC  H12A 4147   3.867   3.145  10.740  0.2628  1.2041  0.2731
   57SAPC  H12B 4148   3.761   3.244  10.669  0.3250 -0.0134  1.8246
   57SAPC   C13 4149   3.660   3.130  10.891 -0.2497  0.0261  0.4758
   57SAPC  H13A 4150   3.597   3.076  10.961  1.1220 -1.6473  0.5080
   57SAPC  H13B 4151   3.757   3.122  10.937  1.1663 -0.1895 -2.3272
   57SAPC  H13C 4152   3.630   3.233  10.885 -1.4246 -0.3336 -0.2840
   57SAPC   C14 4153   3.537   3.109  10.677  0.3706 -0.6185  0.5703
   57SAPC  H14A 4154   3.444   3.067  10.711 -1.0713  1.6554 -0.2631
   57SAPC  H14B 4155   3.509   3.213  10.667  1.2620 -0.4727 -0.7402
   57SAPC  H14C 4156   3.545   3.085  10.572 -1.6455  0.1237  0.1979
   57SAPC   C15 4157   3.671   2.920  10.765  0.6636 -0.7813  0.2914
   57SAPC  H15A 4158   3.755   2.891  10.827  0.5514 -1.1722  0.2638
   57SAPC  H15B 4159   3.589   2.885  10.826  0.0432 -1.2245 -0.7741
   57SAPC  H15C 4160   3.673   2.878  10.666 -3.8877 -1.9579  0.4889
   57SAPC   C11 4161   3.827   3.086  10.535  0.1144 -0.6599 -0.1587
   57SAPC  H11A 4162   3.891   3.170  10.499 -2.4955  0.6893 -1.9382
   57SAPC  H11B 4163   3.736   3.084  10.472 -0.0220 -1.6384  0.0575
   57SAPC     P 4164   4.020   2.932  10.610 -0.0896  0.2367 -0.2231
   57SAPC   O13 4165   4.050   3.046  10.689  0.2568 -0.2637  0.0532
   57SAPC   O14 4166   4.018   2.799  10.672  0.2102 -0.0823  0.2206
   57SAPC   O12 4167   3.884   2.956  10.548  0.4700 -0.7825  0.2102
   57SAPC   O11 4168   4.115   2.927  10.479  0.0598 -0.4405  0.2710
   57SAPC    C1 4169   4.112   3.030  10.382  0.5122 -0.3811 -0.0123
   57SAPC    HA 4170   4.063   3.122  10.422 -1.5010 -0.3312 -2.3004
   57SAPC    HB 4171   4.217   3.044  10.349  0.3188 -1.5321 -1.2085
   57SAPC    C2 4172   4.036   2.991  10.249  0.1218 -1.1096 -0.4856
   57SAPC    HS 4173   3.930   2.967  10.270 -1.5956  1.8816 -4.3169
   57SAPC   O21 4174   4.095   2.880  10.184 -0.1395 -0.9249  1.2102
   57SAPC   C21 4175   4.027   2.805  10.117 -0.5861  0.4483  0.4574
   57SAPC   O22 4176   3.908   2.821  10.097  0.0828  1.0937 -0.0656
   57SAPC   C22 4177   4.119   2.691  10.058  0.5133 -0.6198  0.1029
   57SAPC   H2R 4178   4.205   2.685  10.128  0.5946  3.7820  0.6387
   57SAPC   H2S 4179   4.054   2.601  10.057 -0.8030  0.2194 -3.3607
   57SAPC    C3 4180   4.020   3.116  10.152  0.5563  0.4692 -1.0508
   57SAPC    HX 4181   4.118   3.168  10.145  1.0539 -0.4241 -0.8572
   57SAPC    HY 4182   3.952   3.187  10.203  0.2807 -1.3589  1.2951
   57SAPC   O31 4183   3.974   3.078  10.023 -0.4143  0.7129  0.2197
   57SAPC   C31 4184   3.853   3.103   9.979 -0.4043  0.1749 -0.9024
   57SAPC   O32 4185   3.777   3.179  10.040  0.0370  0.1522  0.4332
   57SAPC   C32 4186   3.824   3.030   9.857  0.5369 -0.3090  0.5923
   57SAPC   H2X 4187   3.822   2.921   9.878 -0.7096 -0.4681 -0.2633
   57SAPC   H2Y 4188   3.916   3.051   9.798  1.2706 -1.1264  1.4020
   57SAPC   C23 4189   4.166   2.727   9.915  0.5395  0.6274 -0.2364
   57SAPC   H3R 4190   4.250   2.659   9.893 -1.9818 -2.1940 -1.9620
   57SAPC   H3S 4191   4.216   2.826   9.914 -0.3055  1.1750  2.5993
   57SAPC   C24 4192   4.054   2.729   9.812 -0.2794 -0.2146 -0.1037
   57SAPC   H4R 4193   4.091   2.795   9.730 -2.7897  0.8877 -0.4338
   57SAPC   H4S 4194   3.967   2.787   9.849 -0.1728 -0.3359  0.3383
   57SAPC   C25 4195   4.013   2.584   9.774 -0.3147 -0.4659  0.3031
   57SAPC   H5R 4196   4.018   2.515   9.860  0.2780 -1.6515 -0.6633
   57SAPC   C26 4197   3.982   2.540   9.650  0.1134 -0.1621 -0.2960
   57SAPC   H6R 4198   3.951   2.435   9.638  0.3921 -0.3591  0.6326
   57SAPC   C27 4199   3.981   2.625   9.530 -0.9599 -0.2059 -0.2962
   57SAPC   H7R 4200   3.961   2.733   9.545 -0.4496 -0.2358  0.6458
   57SAPC   H7S 4201   3.887   2.587   9.484 -2.2370  1.7204  0.5978
   57SAPC   C28 4202   4.089   2.596   9.423 -0.3480  0.3496 -0.2264
   57SAPC   H8R 4203   4.075   2.495   9.381 -2.2447 -0.1959  1.5397
   57SAPC   C29 4204   4.201   2.667   9.389  0.5841  0.5965  0.1954
   57SAPC   H9R 4205   4.272   2.631   9.313  1.1932  1.5999  0.2776
   57SAPC  C210 4206   4.237   2.801   9.442 -0.0554  0.1431 -0.3724
   57SAPC  H10R 4207   4.142   2.855   9.463 -1.3594 -2.6831  1.6933
   57SAPC  H10S 4208   4.290   2.860   9.365  1.3472 -0.4924  0.0729
   57SAPC  C211 4209   4.315   2.813   9.575  0.7451  1.0639 -0.1506
   57SAPC  H11R 4210   4.270   2.748   9.651  3.6095  0.0090  0.7856
   57SAPC  C212 4211   4.416   2.894   9.617  0.1658  0.4547  0.1673
   57SAPC  H12R 4212   4.450   2.888   9.722 -1.8973  0.7510  0.8974
   57SAPC  C213 4213   4.482   3.001   9.525 -0.2207  0.1325 -0.0412
   57SAPC  H13R 4214   4.476   3.098   9.579 -2.5623 -0.3013  0.5848
   57SAPC  H13S 4215   4.441   3.017   9.423 -0.3787 -0.5594 -0.0907
   57SAPC  C214 4216   4.624   2.957   9.504 -1.0666  0.1089 -0.3416
   57SAPC  H14R 4217   4.690   2.999   9.582  0.7972 -1.7417 -0.8249
   57SAPC  C215 4218   4.680   2.883   9.396  0.0987  0.0262 -0.0221
   57SAPC  H15R 4219   4.789   2.869   9.401  0.0826 -1.2452 -2.0067
   57SAPC  C216 4220   4.605   2.832   9.272 -0.0766  0.5782  0.1550
   57SAPC  H16R 4221   4.506   2.880   9.259  0.6559  2.4816  1.2792
   57SAPC  H16S 4222   4.585   2.725   9.295 -1.0684  0.0408 -2.8074
   57SAPC  C217 4223   4.693   2.836   9.143 -0.9711 -0.0977 -0.0357
   57SAPC  H17R 4224   4.684   2.942   9.113 -0.5334  0.2089  0.8707
   57SAPC  H17S 4225   4.641   2.767   9.073  0.8212 -0.4521 -1.0825
   57SAPC  C218 4226   4.837   2.787   9.158  0.7745  0.4913 -0.4618
   57SAPC  H18R 4227   4.830   2.699   9.226 -0.3481  1.6837  1.0756
   57SAPC  H18S 4228   4.894   2.868   9.209 -0.7723  0.4702  1.4680
   57SAPC  C219 4229   4.902   2.728   9.029 -0.3815  0.5584 -0.4962
   57SAPC  H19R 4230   5.008   2.702   9.053 -0.4009 -0.1341 -1.1455
   57SAPC  H19S 4231   4.901   2.809   8.954 -2.8241 -0.8499 -2.0920
   57SAPC  C220 4232   4.835   2.597   8.977  0.2197 -0.1178  0.6162
   57SAPC  H20R 4233   4.742   2.626   8.923  0.4003 -0.0979  0.3137
   57SAPC  H20S 4234   4.804   2.520   9.052 -0.0239 -1.3106 -0.6654
   57SAPC  H20T 4235   4.896   2.537   8.906  0.3762 -0.0427  0.6872
   57SAPC   C33 4236   3.687   3.054   9.781  0.3308 -0.3387  1.4691
   57SAPC   H3X 4237   3.592   3.016   9.823 -1.2308 -0.5344 -1.9216
   57SAPC   H3Y 4238   3.692   3.000   9.684 -0.2114  2.2378 -0.0926
   57SAPC   C34 4239   3.668   3.200   9.743  0.0742 -0.6919  0.0669
   57SAPC   H4X 4240   3.769   3.235   9.711  0.2980 -1.5992 -0.2419
   57SAPC   H4Y 4241   3.639   3.265   9.827 -1.0580 -1.9519  0.6817
   57SAPC   C35 4242   3.562   3.213   9.630  0.3470 -0.1193  0.0378
   57SAPC   H5X 4243   3.529   3.318   9.647  0.7488  0.2614 -1.4012
   57SAPC   H5Y 4244   3.478   3.142   9.646  0.0734 -0.3638 -2.1306
   57SAPC   C36 4245   3.607   3.187   9.493 -0.2859 -0.3196 -0.3851
   57SAPC   H6X 4246   3.665   3.097   9.464 -1.6386 -1.2525 -0.2957
   57SAPC   H6Y 4247   3.666   3.278   9.470 -1.5037  0.6320  0.1277
   57SAPC   C37 4248   3.493   3.204   9.386 -0.1428 -0.0537 -0.1706
   57SAPC   H7X 4249   3.419   3.269   9.438  0.6174 -0.6280  1.7199
   57SAPC   H7Y 4250   3.452   3.102   9.371  0.0106 -0.0442 -0.6842
   57SAPC   C38 4251   3.536   3.281   9.261 -0.0136 -0.4405 -0.4756
   57SAPC   H8X 4252   3.625   3.228   9.221 -0.1589 -1.3033  0.3107
   57SAPC   H8Y 4253   3.553   3.389   9.281 -0.6236 -0.6493  1.3945
   57SAPC   C39 4254   3.436   3.297   9.144  0.4256  0.0358 -0.2444
   57SAPC   H9X 4255   3.338   3.333   9.182  1.0228  1.1249  0.2982
   57SAPC   H9Y 4256   3.416   3.194   9.108 -2.9488  0.0026  1.3333
   57SAPC  C310 4257   3.490   3.379   9.024  0.5695  0.0802  0.4834
   57SAPC  H10X 4258   3.582   3.339   8.976  0.3576  0.0843  0.0668
   57SAPC  H10Y 4259   3.506   3.481   9.064  1.2354  0.3269 -0.3974
   57SAPC  C311 4260   3.374   3.388   8.917 -0.6292 -0.1085 -0.3635
   57SAPC  H11X 4261   3.291   3.451   8.956 -0.9309 -0.6897 -0.0608
   57SAPC  H11Y 4262   3.324   3.289   8.907 -3.1903  0.9462  0.9041
   57SAPC  C312 4263   3.415   3.448   8.784  0.1010 -0.2069 -0.7080
   57SAPC  H12X 4264   3.467   3.542   8.814 -0.2207 -0.6270  1.2817
   57SAPC  H12Y 4265   3.331   3.475   8.716  0.5728  1.2510 -0.7401
   57SAPC  C313 4266   3.507   3.353   8.719 -0.0474 -0.4280 -0.1919
   57SAPC  H13X 4267   3.569   3.295   8.790  0.8646 -2.3068 -2.3959
   57SAPC  H13Y 4268   3.577   3.405   8.651 -0.1813  0.0315  0.0212
   57SAPC  C314 4269   3.439   3.237   8.646  0.0902  0.0243 -0.1474
   57SAPC  H14X 4270   3.367   3.186   8.714  1.2399  1.0866  1.9491
   57SAPC  H14Y 4271   3.517   3.165   8.611  0.6975  0.8570 -0.5383
   57SAPC  C315 4272   3.365   3.295   8.521 -0.5622  0.2544  0.3959
   57SAPC  H15X 4273   3.445   3.333   8.454  0.7568 -0.4381  1.5151
   57SAPC  H15Y 4274   3.289   3.372   8.548  1.3296  2.1050  0.7345
   57SAPC  C316 4275   3.302   3.184   8.442  0.0022 -0.0663 -0.2794
   57SAPC  H16X 4276   3.231   3.125   8.502  0.1698 -0.2749 -0.2855
   57SAPC  H16Y 4277   3.380   3.115   8.402 -0.0749 -1.3253  1.6528
   57SAPC  C317 4278   3.236   3.226   8.317  0.8329 -0.5232  0.1353
   57SAPC  H17X 4279   3.299   3.237   8.226 -0.5006  0.8287 -0.6761
   57SAPC  H17Y 4280   3.180   3.320   8.334  1.8296  0.2672 -0.7892
   57SAPC  C318 4281   3.128   3.115   8.283 -0.0938 -0.0631 -0.6673
   57SAPC  H18X 4282   3.180   3.018   8.292  2.0499  1.0600 -0.3709
   57SAPC  H18Y 4283   3.080   3.138   8.186 -2.2137  0.7114  0.4824
   57SAPC  H18Z 4284   3.046   3.112   8.359  1.0579 -0.3045  0.6056
   58SAPC     N 4285   6.720   6.438  11.167  0.0889  0.1565 -0.2175
   58SAPC   C12 4286   6.658   6.297  11.154  0.9886 -0.0350 -0.4856
   58SAPC  H12A 4287   6.590   6.275  11.236  1.2441 -0.7737 -0.4676
   58SAPC  H12B 4288   6.736   6.223  11.159  0.7480 -0.4212 -2.1474
   58SAPC   C13 4289   6.792   6.445  11.301  0.7389  0.2149 -0.0184
   58SAPC  H13A 4290   6.729   6.465  11.387  1.1275  0.9661  0.0951
   58SAPC  H13B 4291   6.846   6.355  11.322  0.0942  0.6119  4.0421
   58SAPC  H13C 4292   6.865   6.525  11.295  0.6871  0.2147 -0.7633
   58SAPC   C14 4293   6.814   6.469  11.059  0.5968  0.4688 -0.1569
   58SAPC  H14A 4294   6.852   6.570  11.056  2.0338  0.0340  1.6119
   58SAPC  H14B 4295   6.896   6.399  11.058  0.2704  0.0906 -0.6290
   58SAPC  H14C 4296   6.762   6.453  10.966  0.0535  0.2227  0.1874
   58SAPC   C15 4297   6.613   6.540  11.170 -0.2442 -0.0809  0.7467
   58SAPC  H15A 4298   6.540   6.520  11.247  1.1806  3.4923  3.2918
   58SAPC  H15B 4299   6.646   6.640  11.194 -0.7861  0.3406 -0.1906
   58SAPC  H15C 4300   6.563   6.552  11.075 -0.9241 -0.9236  0.9855
   58SAPC   C11 4301   6.576   6.261  11.031 -0.6937  0.4526  0.0866
   58SAPC  H11A 4302   6.563   6.151  11.030  2.0637  0.0579 -0.3779
   58SAPC  H11B 4303   6.644   6.273  10.944  0.3524 -1.7335  0.5287
   58SAPC     P 4304   6.368   6.323  10.884  0.6134  0.0764  0.2645
   58SAPC   O13 4305   6.307   6.190  10.900  0.0649 -0.5642  0.0280
   58SAPC   O14 4306   6.274   6.435  10.857  0.0533  0.1691 -0.0756
   58SAPC   O12 4307   6.457   6.336  11.010 -0.2817 -0.7824 -0.1307
   58SAPC   O11 4308   6.468   6.317  10.759 -0.0484 -0.1081 -0.2634
   58SAPC    C1 4309   6.535   6.429  10.709  0.4130 -0.3016  0.2468
   58SAPC    HA 4310   6.527   6.517  10.777 -0.6517 -1.8926  2.2959
   58SAPC    HB 4311   6.641   6.403  10.689  0.3031  1.8570 -4.3618
   58SAPC    C2 4312   6.506   6.459  10.562 -0.4794 -0.1126 -0.1296
   58SAPC    HS 4313   6.402   6.500  10.562 -0.3457  0.4311  2.6377
   58SAPC   O21 4314   6.525   6.333  10.494 -0.1754  0.1801  0.2408
   58SAPC   C21 4315   6.418   6.265  10.467 -0.2878  0.1843  0.2968
   58SAPC   O22 4316   6.302   6.302  10.480  0.1621 -0.2802 -0.0616
   58SAPC   C22 4317   6.456   6.126  10.407  0.8196 -0.9055 -0.0029
   58SAPC   H2R 4318   6.520   6.152  10.320 -2.1103 -1.0631 -2.3665
   58SAPC   H2S 4319   6.517   6.058  10.470  0.5606 -2.1705 -1.0787
   58SAPC    C3 4320   6.595   6.567  10.498 -0.0448  0.5183 -0.6019
   58SAPC    HX 4321   6.692   6.522  10.467 -0.1049 -0.2288  0.2834
   58SAPC    HY 4322   6.626   6.634  10.580  0.1773  0.7372 -0.8599
   58SAPC   O31 4323   6.525   6.636  10.396  0.1916  0.1110 -0.0224
   58SAPC   C31 4324   6.592   6.677  10.285  0.1443  0.5214  0.3626
   58SAPC   O32 4325   6.709   6.644  10.264  0.4310 -0.3322 -0.1763
   58SAPC   C32 4326   6.509   6.746  10.174  0.2173  0.1711  0.1341
   58SAPC   H2X 4327   6.409   6.770  10.218 -0.7876 -0.8598 -1.5033
   58SAPC   H2Y 4328   6.485   6.668  10.099 -1.5273  0.7006  0.0754
   58SAPC   C23 4329   6.330   6.049  10.378  0.1918 -0.3062 -0.6219
   58SAPC   H3R 4330   6.247   6.109  10.335 -0.8955 -2.0884 -1.1005
   58SAPC   H3S 4331   6.302   6.012  10.479  0.3290  0.3883 -0.3175
   58SAPC   C24 4332   6.357   5.930  10.291 -0.1096  0.2536  0.3335
   58SAPC   H4R 4333   6.443   5.870  10.325  0.5228  0.8307 -0.2306
   58SAPC   H4S 4334   6.389   5.978  10.196  1.9395  1.8109  1.7365
   58SAPC   C25 4335   6.231   5.849  10.283 -0.5482 -0.3589 -0.0560
   58SAPC   H5R 4336   6.230   5.757  10.344 -0.6465  0.5744  1.3730
   58SAPC   C26 4337   6.126   5.859  10.201  0.1266 -0.2102 -0.6544
   58SAPC   H6R 4338   6.041   5.788  10.206  2.6229 -3.4069 -0.4038
   58SAPC   C27 4339   6.122   5.959  10.088  0.3956  1.1530 -0.1275
   58SAPC   H7R 4340   6.137   6.059  10.135  1.0775  0.7333  0.5835
   58SAPC   H7S 4341   6.019   5.950  10.048  0.1506 -0.9821  0.8484
   58SAPC   C28 4342   6.220   5.937   9.978 -0.6669 -0.3037 -0.1216
   58SAPC   H8R 4343   6.318   5.958  10.024 -0.8952  0.8447 -0.1326
   58SAPC   C29 4344   6.198   5.908   9.847 -0.4497  0.0743  0.0658
   58SAPC   H9R 4345   6.288   5.885   9.789 -0.6728 -0.1270 -0.2068
   58SAPC  C210 4346   6.070   5.875   9.777 -0.4138  0.0462  0.6012
   58SAPC  H10R 4347   6.050   5.949   9.696  1.7846  2.4079  2.0609
   58SAPC  H10S 4348   5.992   5.894   9.854 -0.0035 -0.8250  1.2453
   58SAPC  C211 4349   6.055   5.730   9.745 -0.1342 -0.6309 -0.0585
   58SAPC  H11R 4350   6.066   5.658   9.828 -1.3094 -0.1116  0.5799
   58SAPC  C212 4351   6.020   5.691   9.628 -0.0752  0.4830  0.1976
   58SAPC  H12R 4352   6.028   5.583   9.612  1.4545  0.1273  2.7926
   58SAPC  C213 4353   5.991   5.777   9.501 -0.1407  0.8121  0.2222
   58SAPC  H13R 4354   5.939   5.872   9.525 -0.2576  0.6379  0.6668
   58SAPC  H13S 4355   5.919   5.725   9.434  0.4003 -2.8168  2.1752
   58SAPC  C214 4356   6.111   5.823   9.425 -0.9009  0.2848  0.4027
   58SAPC  H14R 4357   6.194   5.849   9.493 -1.0536  1.2950  0.2062
   58SAPC  C215 4358   6.130   5.842   9.295  0.1155 -0.2842  0.6244
   58SAPC  H15R 4359   6.226   5.880   9.257 -0.5898 -1.0622 -2.1240
   58SAPC  C216 4360   6.026   5.833   9.183  0.1624  0.0477  0.3661
   58SAPC  H16R 4361   5.997   5.939   9.167  1.2082 -0.0544 -2.9251
   58SAPC  H16S 4362   5.928   5.786   9.204  1.6648 -3.7058 -0.3454
   58SAPC  C217 4363   6.066   5.772   9.050  0.0013 -0.4045  0.3726
   58SAPC  H17R 4364   6.092   5.664   9.056 -0.6917 -0.5251  1.3573
   58SAPC  H17S 4365   6.149   5.832   9.007 -1.2843  0.4169 -1.0859
   58SAPC  C218 4366   5.953   5.794   8.946  0.0084 -0.6171 -0.3433
   58SAPC  H18R 4367   5.923   5.900   8.937  1.3454 -0.1869  0.0321
   58SAPC  H18S 4368   5.866   5.732   8.976 -0.5720 -0.2533 -1.2238
   58SAPC  C219 4369   5.984   5.743   8.809 -0.0060 -0.2412 -0.2175
   58SAPC  H19R 4370   5.887   5.723   8.758 -0.4273  0.8746  0.1114
   58SAPC  H19S 4371   6.038   5.647   8.821  3.4615  1.3003 -1.9597
   58SAPC  C220 4372   6.067   5.846   8.729  0.1272  0.3736 -0.0182
   58SAPC  H20R 4373   6.158   5.895   8.771  0.9896  1.9346 -3.3803
   58SAPC  H20S 4374   6.002   5.932   8.700 -0.9833 -0.9194 -1.4964
   58SAPC  H20T 4375   6.105   5.807   8.632 -2.8510 -0.2680 -1.0286
   58SAPC   C33 4376   6.575   6.868  10.106  0.1055 -0.2520 -0.2339
   58SAPC   H3X 4377   6.631   6.931  10.178  1.0494 -0.4343 -0.7914
   58SAPC   H3Y 4378   6.490   6.925  10.062 -0.1746  0.2807  0.9637
   58SAPC   C34 4379   6.661   6.834   9.986  0.3839 -0.2576  0.0955
   58SAPC   H4X 4380   6.736   6.755  10.010 -1.4658 -1.5521  1.9634
   58SAPC   H4Y 4381   6.723   6.926   9.977 -1.6242  1.1643 -0.0029
   58SAPC   C35 4382   6.585   6.808   9.853 -0.1645 -0.1039  0.2983
   58SAPC   H5X 4383   6.502   6.878   9.829 -0.9665 -1.5417 -1.2516
   58SAPC   H5Y 4384   6.527   6.713   9.863 -0.8623  0.2633 -0.1431
   58SAPC   C36 4385   6.677   6.791   9.733  0.3670 -0.3677 -0.4525
   58SAPC   H6X 4386   6.734   6.698   9.757  1.0130  0.4195  1.2695
   58SAPC   H6Y 4387   6.738   6.884   9.725 -2.9715  1.7763 -4.2499
   58SAPC   C37 4388   6.616   6.767   9.586  0.6991 -0.2861 -0.6703
   58SAPC   H7X 4389   6.554   6.856   9.562  0.3089 -0.3340  0.1340
   58SAPC   H7Y 4390   6.558   6.673   9.599  0.4888  0.2634  4.1122
   58SAPC   C38 4391   6.719   6.760   9.471 -0.5550 -0.1227 -0.2620
   58SAPC   H8X 4392   6.789   6.679   9.499 -0.0027  1.3336  3.1488
   58SAPC   H8Y 4393   6.779   6.854   9.465  1.5123 -1.4652 -1.6815
   58SAPC   C39 4394   6.674   6.738   9.322 -0.2746  0.6336  0.9101
   58SAPC   H9X 4395   6.626   6.830   9.283 -2.0069 -0.6694 -0.1953
   58SAPC   H9Y 4396   6.583   6.674   9.317 -1.2504  2.0931 -1.6354
   58SAPC  C310 4397   6.783   6.703   9.224  0.4716  0.5484  0.2072
   58SAPC  H10X 4398   6.819   6.599   9.240  1.2012  0.7345 -0.1403
   58SAPC  H10Y 4399   6.867   6.769   9.255  1.5375 -0.9549  0.6201
   58SAPC  C311 4400   6.745   6.723   9.073 -0.2106  0.4156 -0.9278
   58SAPC  H11X 4401   6.832   6.702   9.006 -1.3463 -2.9159 -1.5486
   58SAPC  H11Y 4402   6.723   6.831   9.060  2.4791  1.4156  1.6905
   58SAPC  C312 4403   6.631   6.635   9.023 -0.4308 -0.2299  0.2375
   58SAPC  H12X 4404   6.534   6.676   9.059 -0.7000  1.3028 -2.0144
   58SAPC  H12Y 4405   6.638   6.535   9.070  0.6355  0.6569  2.0933
   58SAPC  C313 4406   6.625   6.620   8.877  0.3638 -0.2847  0.2369
   58SAPC  H13X 4407   6.720   6.578   8.837  0.2427  2.9533 -4.0496
   58SAPC  H13Y 4408   6.640   6.719   8.830  2.0192  0.5632  2.3791
   58SAPC  C314 4409   6.517   6.527   8.824  0.0646 -0.0492  0.2756
   58SAPC  H14X 4410   6.412   6.550   8.851 -0.3226 -1.1195 -0.2724
   58SAPC  H14Y 4411   6.527   6.424   8.864  0.3360  0.2049  0.8697
   58SAPC  C315 4412   6.515   6.506   8.677  0.4846 -0.2314 -0.0476
   58SAPC  H15X 4413   6.459   6.413   8.652  1.8110 -0.2692 -3.4804
   58SAPC  H15Y 4414   6.624   6.494   8.657  0.5822 -1.0834  0.9424
   58SAPC  C316 4415   6.460   6.618   8.591  0.2466 -0.8692  0.4305
   58SAPC  H16X 4416   6.536   6.699   8.589 -0.4853 -0.1625 -2.6613
   58SAPC  H16Y 4417   6.362   6.650   8.633  1.3690  1.4274  1.5218
   58SAPC  C317 4418   6.439   6.578   8.442 -0.1480 -0.1794  0.2967
   58SAPC  H17X 4419   6.378   6.488   8.418  0.4329  0.0425 -2.2969
   58SAPC  H17Y 4420   6.539   6.548   8.405 -1.1246 -1.4793 -1.4149
   58SAPC  C318 4421   6.377   6.692   8.359  0.2580  0.2461 -0.5334
   58SAPC  H18X 4422   6.437   6.785   8.363  0.0678  0.3253  1.7712
   58SAPC  H18Y 4423   6.278   6.710   8.405 -0.2238 -2.8700 -0.1306
   58SAPC  H18Z 4424   6.361   6.654   8.256 -0.6560 -0.6985 -0.0618
   59SAPC     N 4425   1.166   6.488  10.965  0.2782 -0.5446 -0.1271
   59SAPC   C12 4426   1.169   6.622  11.041 -0.6168 -0.6203  0.2843
   59SAPC  H12A 4427   1.224   6.692  10.981 -0.7659 -1.8224 -1.3263
   59SAPC  H12B 4428   1.234   6.609  11.126 -0.2643  0.7882  0.2549
   59SAPC   C13 4429   1.109   6.498  10.829 -0.2877  0.1490  0.4841
   59SAPC  H13A 4430   1.173   6.557  10.766  0.6811 -2.5729 -1.3003
   59SAPC  H13B 4431   1.084   6.401  10.788 -1.1092  0.1162  1.0216
   59SAPC  H13C 4432   1.011   6.543  10.840 -0.5165  1.1667 -3.8613
   59SAPC   C14 4433   1.309   6.435  10.942 -0.3551  0.2931  0.1980
   59SAPC  H14A 4434   1.342   6.478  10.849  0.1694 -1.5782 -0.5297
   59SAPC  H14B 4435   1.379   6.452  11.023  0.0019 -1.2739  0.2376
   59SAPC  H14C 4436   1.311   6.328  10.933 -0.7854  0.3046 -0.0157
   59SAPC   C15 4437   1.087   6.389  11.047 -0.4189  0.5059 -0.5059
   59SAPC  H15A 4438   0.982   6.409  11.059 -0.9523 -3.1966  3.4568
   59SAPC  H15B 4439   1.101   6.290  11.008  0.8932  1.4543 -2.6152
   59SAPC  H15C 4440   1.118   6.401  11.150 -1.9871 -1.5219  0.2644
   59SAPC   C11 4441   1.033   6.691  11.072 -0.0604 -0.0346  0.4896
   59SAPC  H11A 4442   1.066   6.776  11.135 -0.2638  1.0025 -0.7488
   59SAPC  H11B 4443   0.973   6.627  11.140 -0.4422  1.2883  1.4408
   59SAPC     P 4444   0.950   6.888  10.904  0.2189 -0.2456 -0.2886
   59SAPC   O13 4445   0.827   6.936  10.977  0.0508  0.8135  0.3405
   59SAPC   O14 4446   1.069   6.974  10.915  0.7721  0.0213  0.1121
   59SAPC   O12 4447   0.979   6.737  10.950  0.9331 -0.1285 -0.8025
   59SAPC   O11 4448   0.908   6.860  10.751  0.8518  0.2904  0.5854
   59SAPC    C1 4449   1.020   6.854  10.652 -0.6896 -0.3200 -0.8650
   59SAPC    HA 4450   1.084   6.944  10.655 -0.7031 -0.3322 -0.1523
   59SAPC    HB 4451   1.092   6.777  10.687  0.0262  0.9856  0.6161
   59SAPC    C2 4452   0.961   6.836  10.505 -0.0188 -0.0752  1.2947
   59SAPC    HS 4453   1.043   6.806  10.435 -1.9859  0.2010 -1.2793
   59SAPC   O21 4454   0.895   6.954  10.454  0.5363 -0.2979  0.1192
   59SAPC   C21 4455   0.969   7.054  10.417 -0.4426  0.2884  0.0010
   59SAPC   O22 4456   1.088   7.057  10.423  0.6135 -0.3591 -0.1300
   59SAPC   C22 4457   0.889   7.159  10.342  0.4744 -0.2153 -0.2365
   59SAPC   H2R 4458   0.785   7.122  10.326  0.5214 -0.6941  0.5020
   59SAPC   H2S 4459   0.895   7.255  10.399 -3.5007 -0.0845  0.2387
   59SAPC    C3 4460   0.850   6.727  10.511  0.2157 -1.0620  0.1323
   59SAPC    HX 4461   0.766   6.775  10.564 -1.2928 -0.7897 -2.3786
   59SAPC    HY 4462   0.877   6.648  10.584  0.4004 -0.2954  0.9086
   59SAPC   O31 4463   0.810   6.667  10.382  0.4198 -0.4402 -0.0122
   59SAPC   C31 4464   0.709   6.730  10.315  0.2430  0.0997 -0.8271
   59SAPC   O32 4465   0.657   6.836  10.338  0.4232  0.0702 -0.3185
   59SAPC   C32 4466   0.673   6.643  10.200  0.1741  0.1965  0.0707
   59SAPC   H2X 4467   0.652   6.536  10.225 -0.5341  0.1249 -0.7844
   59SAPC   H2Y 4468   0.760   6.628  10.132 -0.6799 -0.4642 -0.9040
   59SAPC   C23 4469   0.946   7.192  10.204  0.0678 -0.2654  0.0271
   59SAPC   H3R 4470   0.954   7.102  10.140 -1.9149 -0.3475 -0.1850
   59SAPC   H3S 4471   1.051   7.227  10.210  0.6769 -2.2055  2.7290
   59SAPC   C24 4472   0.863   7.304  10.132  0.3508  1.0511  0.7292
   59SAPC   H4R 4473   0.869   7.394  10.197 -0.6885  0.0873  2.2093
   59SAPC   H4S 4474   0.755   7.280  10.127  0.0902  2.1855  0.5024
   59SAPC   C25 4475   0.912   7.331   9.989  0.5584  0.4691 -0.7504
   59SAPC   H5R 4476   0.974   7.420   9.969 -0.3943  0.8152 -2.3535
   59SAPC   C26 4477   0.887   7.250   9.883  0.2146 -0.2815  0.5600
   59SAPC   H6R 4478   0.934   7.269   9.786 -0.5890 -1.8552 -0.1740
   59SAPC   C27 4479   0.812   7.121   9.878 -0.6205  0.2433  0.2202
   59SAPC   H7R 4480   0.734   7.128   9.799 -0.7520  2.7644  0.4679
   59SAPC   H7S 4481   0.757   7.102   9.972  0.1106 -2.1619  0.2282
   59SAPC   C28 4482   0.906   7.000   9.852 -0.0754  0.0326  0.1808
   59SAPC   H8R 4483   0.942   6.955   9.946 -0.6476 -0.3789  0.2094
   59SAPC   C29 4484   0.964   6.959   9.744 -0.8349 -0.4897  0.1561
   59SAPC   H9R 4485   1.032   6.873   9.752 -0.8722 -0.3777  2.0845
   59SAPC  C210 4486   0.956   7.031   9.614  0.5758  0.4633  0.5683
   59SAPC  H10R 4487   0.892   7.122   9.614 -0.0934  0.0891 -2.2748
   59SAPC  H10S 4488   0.897   6.965   9.548 -1.6945  1.6947  1.2481
   59SAPC  C211 4489   1.093   7.036   9.547  0.3926 -0.3932 -0.2273
   59SAPC  H11R 4490   1.164   6.952   9.559 -1.0115 -1.9515 -2.2128
   59SAPC  C212 4491   1.134   7.142   9.471 -0.4639  0.2583  0.9285
   59SAPC  H12R 4492   1.234   7.142   9.426 -1.4001  1.2839 -1.2685
   59SAPC  C213 4493   1.052   7.266   9.439 -0.0372 -0.1408 -0.0243
   59SAPC  H13R 4494   1.008   7.297   9.536 -0.1794 -4.3169  1.4441
   59SAPC  H13S 4495   0.965   7.241   9.376  0.5715  1.9824 -1.8347
   59SAPC  C214 4496   1.132   7.377   9.376 -0.8029  0.0128 -0.3849
   59SAPC  H14R 4497   1.178   7.444   9.451 -1.4357  0.3490 -0.2895
   59SAPC  C215 4498   1.160   7.391   9.242  0.1378 -0.2436 -0.1840
   59SAPC  H15R 4499   1.211   7.477   9.198  0.6858 -1.7854 -2.7113
   59SAPC  C216 4500   1.118   7.302   9.130  0.3070 -0.0920  0.3435
   59SAPC  H16R 4501   1.062   7.365   9.059 -0.3619 -1.2573 -0.1840
   59SAPC  H16S 4502   1.052   7.223   9.171  0.3640 -1.1792 -1.5558
   59SAPC  C217 4503   1.241   7.249   9.058 -0.0768 -0.2449 -0.4455
   59SAPC  H17R 4504   1.299   7.185   9.127 -0.4466 -0.3891 -0.2643
   59SAPC  H17S 4505   1.308   7.332   9.027 -1.0955  1.3230  1.3490
   59SAPC  C218 4506   1.202   7.174   8.933  0.0706 -1.2448  0.0589
   59SAPC  H18R 4507   1.299   7.132   8.899  0.4194  0.1237 -0.7135
   59SAPC  H18S 4508   1.156   7.251   8.868 -1.7790  0.2796  2.9298
   59SAPC  C219 4509   1.104   7.057   8.948 -0.3988 -0.1384 -0.0158
   59SAPC  H19R 4510   1.083   6.994   8.859  0.2077 -1.2628  0.6159
   59SAPC  H19S 4511   1.005   7.100   8.975 -1.4584 -2.3509 -0.1406
   59SAPC  C220 4512   1.130   6.950   9.058  0.0145 -0.8749  0.4807
   59SAPC  H20R 4513   1.067   6.862   9.036  0.1247 -0.4321 -1.9895
   59SAPC  H20S 4514   1.094   6.986   9.156 -1.1732  1.8102 -0.8276
   59SAPC  H20T 4515   1.237   6.921   9.067  0.1834  0.0790  1.8374
   59SAPC   C33 4516   0.560   6.706  10.115 -0.3694 -0.0645 -0.2470
   59SAPC   H3X 4517   0.576   6.816  10.109 -1.7537  0.3051  1.9039
   59SAPC   H3Y 4518   0.470   6.706  10.180  1.2292 -1.5531  2.1199
   59SAPC   C34 4519   0.538   6.634   9.979 -0.1376  0.5057  0.2286
   59SAPC   H4X 4520   0.435   6.657   9.946 -0.7826 -0.1512  1.7114
   59SAPC   H4Y 4521   0.561   6.526   9.993  0.1791  0.3406 -1.4111
   59SAPC   C35 4522   0.627   6.674   9.859 -0.6192 -0.6168  0.3690
   59SAPC   H5X 4523   0.728   6.640   9.891  0.0614  1.5212  0.6120
   59SAPC   H5Y 4524   0.633   6.784   9.848  0.5063 -0.9065 -2.7624
   59SAPC   C36 4525   0.583   6.627   9.724  0.6293 -0.0712  0.1378
   59SAPC   H6X 4526   0.487   6.679   9.703  0.8913  0.4241  0.1628
   59SAPC   H6Y 4527   0.566   6.517   9.726 -1.6263  0.2029 -0.9744
   59SAPC   C37 4528   0.682   6.652   9.607  0.0268  0.0889  0.4179
   59SAPC   H7X 4529   0.753   6.569   9.627  0.0272 -0.3046 -1.1325
   59SAPC   H7Y 4530   0.732   6.751   9.620 -0.2191  0.1365  1.0076
   59SAPC   C38 4531   0.624   6.634   9.466 -0.1433  0.1397  0.0013
   59SAPC   H8X 4532   0.520   6.671   9.465  0.2952  1.4784  0.9296
   59SAPC   H8Y 4533   0.631   6.523   9.457 -0.4077 -0.0028  1.3698
   59SAPC   C39 4534   0.707   6.703   9.368 -0.7596  0.5033  0.2782
   59SAPC   H9X 4535   0.813   6.671   9.384 -0.6107  0.5957 -0.5097
   59SAPC   H9Y 4536   0.709   6.811   9.391  0.3097  0.7996 -1.0931
   59SAPC  C310 4537   0.659   6.693   9.222  0.7717 -0.1047  0.4136
   59SAPC  H10X 4538   0.549   6.707   9.214  0.4630 -0.8932  2.5250
   59SAPC  H10Y 4539   0.669   6.584   9.199  1.8947  0.2983 -1.1713
   59SAPC  C311 4540   0.729   6.797   9.130  0.7044 -0.0837 -0.3923
   59SAPC  H11X 4541   0.839   6.786   9.129  0.8593  1.1061  0.9937
   59SAPC  H11Y 4542   0.708   6.899   9.169 -1.5508 -0.8946  0.6839
   59SAPC  C312 4543   0.676   6.797   8.984  0.0868 -0.5452  0.2637
   59SAPC  H12X 4544   0.573   6.836   8.972 -0.6956 -2.4827  0.2737
   59SAPC  H12Y 4545   0.667   6.690   8.956  1.0056 -0.4333 -0.5046
   59SAPC  C313 4546   0.767   6.864   8.872 -0.3145  0.0730  0.1449
   59SAPC  H13X 4547   0.871   6.828   8.888  0.5274  1.4886 -1.7686
   59SAPC  H13Y 4548   0.776   6.969   8.906 -0.9679 -0.9165  3.8135
   59SAPC  C314 4549   0.723   6.846   8.727 -0.3050 -0.2638  0.2165
   59SAPC  H14X 4550   0.784   6.912   8.662 -0.1046 -0.2282  0.4391
   59SAPC  H14Y 4551   0.613   6.860   8.721 -0.4527 -1.5507 -0.6850
   59SAPC  C315 4552   0.761   6.701   8.674  0.3394  0.4108 -0.1210
   59SAPC  H15X 4553   0.717   6.629   8.746 -1.6795  1.3481 -0.3566
   59SAPC  H15Y 4554   0.872   6.700   8.684  0.2592 -0.1178  0.8345
   59SAPC  C316 4555   0.718   6.679   8.528 -0.3396 -0.4278  0.1812
   59SAPC  H16X 4556   0.778   6.738   8.456  0.2285 -3.0500 -1.6070
   59SAPC  H16Y 4557   0.617   6.723   8.514  0.1629  0.6807 -0.0631
   59SAPC  C317 4558   0.711   6.540   8.490  0.5006  0.1532  0.3530
   59SAPC  H17X 4559   0.674   6.527   8.385 -2.1932  0.7328  1.1374
   59SAPC  H17Y 4560   0.631   6.498   8.555  1.9364 -4.8138 -0.6727
   59SAPC  C318 4561   0.835   6.458   8.524 -1.3384 -0.4105  0.1170
   59SAPC  H18X 4562   0.920   6.523   8.495 -2.5049  0.7684 -0.8079
   59SAPC  H18Y 4563   0.834   6.365   8.463 -2.6915  0.5621 -1.4343
   59SAPC  H18Z 4564   0.843   6.429   8.631 -2.6271  0.6692  0.5324
   60SAPC     N 4565   3.559   2.036  10.571  0.5736  0.8236 -0.5313
   60SAPC   C12 4566   3.474   2.154  10.592  0.1556  0.1964 -0.2429
   60SAPC  H12A 4567   3.483   2.218  10.505 -1.5606  0.7550 -0.0518
   60SAPC  H12B 4568   3.519   2.213  10.669  0.5847 -0.5818  0.1124
   60SAPC   C13 4569   3.689   2.081  10.516 -0.2478 -0.1281 -0.0545
   60SAPC  H13A 4570   3.740   2.141  10.590  0.8517  0.1934 -1.0295
   60SAPC  H13B 4571   3.754   1.998  10.492 -0.0925 -0.9896  3.0349
   60SAPC  H13C 4572   3.673   2.138  10.425  2.5432  0.9715  0.0517
   60SAPC   C14 4573   3.584   1.971  10.708  0.0477 -0.1939  0.2423
   60SAPC  H14A 4574   3.490   1.952  10.758  0.7555  3.7390  3.6099
   60SAPC  H14B 4575   3.642   1.882  10.695  0.8839  0.6142 -2.2528
   60SAPC  H14C 4576   3.630   2.042  10.775  0.0415 -0.6098  0.6944
   60SAPC   C15 4577   3.499   1.927  10.479  0.3078  0.4908 -0.4697
   60SAPC  H15A 4578   3.476   1.970  10.382  0.8312  1.8749 -0.0077
   60SAPC  H15B 4579   3.561   1.840  10.463  0.0224  0.5708 -2.2217
   60SAPC  H15C 4580   3.400   1.901  10.512  0.7039  0.7582  1.0235
   60SAPC   C11 4581   3.324   2.145  10.626 -0.8217  0.5704 -0.6397
   60SAPC  H11A 4582   3.279   2.115  10.529  0.6881  0.1702 -1.2470
   60SAPC  H11B 4583   3.287   2.247  10.652 -1.5050  0.1362  0.1509
   60SAPC     P 4584   3.212   1.929  10.721  0.1672 -0.0250  0.3500
   60SAPC   O13 4585   3.303   1.820  10.758 -0.5230 -0.0402  0.7719
   60SAPC   O14 4586   3.088   1.947  10.802  0.3121 -0.0813 -0.5343
   60SAPC   O12 4587   3.297   2.060  10.736  0.2837 -0.2946 -0.4795
   60SAPC   O11 4588   3.173   1.918  10.566  0.0227  0.2922 -0.6150
   60SAPC    C1 4589   3.052   1.850  10.531 -0.3481 -1.2121 -0.1727
   60SAPC    HA 4590   3.062   1.743  10.560 -0.8357 -1.5451 -1.2165
   60SAPC    HB 4591   2.961   1.890  10.581  0.6182  0.2816  0.4923
   60SAPC    C2 4592   3.030   1.851  10.378 -0.4755  0.3743 -0.2651
   60SAPC    HS 4593   2.933   1.799  10.362 -0.5471  0.8224 -1.3502
   60SAPC   O21 4594   3.135   1.766  10.323 -0.8032  0.6860 -0.4025
   60SAPC   C21 4595   3.111   1.629  10.311  0.6373  0.0989  0.2319
   60SAPC   O22 4596   3.017   1.574  10.358 -0.2775  0.0158  0.4792
   60SAPC   C22 4597   3.215   1.565  10.229 -1.2999  0.0983 -0.3837
   60SAPC   H2R 4598   3.315   1.610  10.246 -0.2859 -1.9225 -0.7261
   60SAPC   H2S 4599   3.220   1.457  10.257  1.2185 -0.0708 -1.2414
   60SAPC    C3 4600   3.038   1.988  10.319 -0.6520 -0.7312 -0.0510
   60SAPC    HX 4601   3.141   2.029  10.310  0.1056 -2.5403 -0.0199
   60SAPC    HY 4602   2.988   2.061  10.385 -2.0596  0.2952 -2.1428
   60SAPC   O31 4603   2.975   2.002  10.189 -0.1022  0.0065  1.7716
   60SAPC   C31 4604   2.861   2.071  10.187  0.2536  0.2143  0.3191
   60SAPC   O32 4605   2.788   2.093  10.284  0.1666  0.0162 -0.3620
   60SAPC   C32 4606   2.829   2.130  10.044 -0.6201  0.0546  0.7068
   60SAPC   H2X 4607   2.853   2.237  10.060  1.9372 -0.5140  1.1397
   60SAPC   H2Y 4608   2.719   2.119  10.038 -0.7585  1.0361  1.2623
   60SAPC   C23 4609   3.186   1.579  10.075  0.0291  0.0508 -0.5385
   60SAPC   H3R 4610   3.199   1.685  10.045 -2.4301  0.2638 -1.1253
   60SAPC   H3S 4611   3.077   1.565  10.054  0.2973 -1.7235 -0.8634
   60SAPC   C24 4612   3.269   1.488   9.988 -0.1048 -0.3076 -0.4832
   60SAPC   H4R 4613   3.245   1.385  10.020 -3.6517 -0.3920 -2.9083
   60SAPC   H4S 4614   3.377   1.504  10.011 -0.4176  2.0487 -0.3497
   60SAPC   C25 4615   3.247   1.511   9.842  0.4590  0.2009  0.1465
   60SAPC   H5R 4616   3.259   1.612   9.800 -2.2302 -0.1625 -1.7902
   60SAPC   C26 4617   3.212   1.421   9.748 -0.5826 -0.4180  0.6482
   60SAPC   H6R 4618   3.181   1.464   9.651 -0.6779 -1.1134  0.3665
   60SAPC   C27 4619   3.182   1.279   9.769 -0.2076  0.8570  0.4197
   60SAPC   H7R 4620   3.164   1.257   9.876 -0.3446  2.5998  0.7710
   60SAPC   H7S 4621   3.273   1.224   9.734  0.2442  1.9533 -0.1879
   60SAPC   C28 4622   3.078   1.213   9.681 -0.0581 -0.2455  0.0010
   60SAPC   H8R 4623   2.983   1.189   9.732 -0.7065 -0.8494 -1.4097
   60SAPC   C29 4624   3.100   1.173   9.555 -0.2161  0.5574 -0.1772
   60SAPC   H9R 4625   3.020   1.119   9.501  1.6064 -3.4652  0.7492
   60SAPC  C210 4626   3.230   1.183   9.487 -0.4742  0.0347  0.8502
   60SAPC  H10R 4627   3.296   1.112   9.542 -1.5043 -1.2947  0.4228
   60SAPC  H10S 4628   3.268   1.287   9.499 -2.0439  0.4072  3.1632
   60SAPC  C211 4629   3.232   1.131   9.344  0.3437 -0.0400  1.0673
   60SAPC  H11R 4630   3.162   1.051   9.317  0.9934 -0.7448  1.4231
   60SAPC  C212 4631   3.306   1.189   9.247  0.4814 -0.2875 -0.0242
   60SAPC  H12R 4632   3.309   1.148   9.145 -1.0875  1.1144 -0.6661
   60SAPC  C213 4633   3.398   1.307   9.262 -0.0669 -0.9297  0.1275
   60SAPC  H13R 4634   3.455   1.299   9.357 -1.9009 -1.9223  1.1962
   60SAPC  H13S 4635   3.330   1.395   9.262  0.9151 -0.1209  1.7227
   60SAPC  C214 4636   3.504   1.314   9.150 -0.6499  0.2369 -0.0171
   60SAPC  H14R 4637   3.608   1.295   9.180 -0.9765  0.5226  1.3575
   60SAPC  C215 4638   3.476   1.333   9.020  0.2294  0.5911  0.4013
   60SAPC  H15R 4639   3.562   1.351   8.954  0.2976  0.7360  0.5284
   60SAPC  C216 4640   3.339   1.369   8.958 -0.0302  0.2295 -0.0846
   60SAPC  H16R 4641   3.255   1.346   9.026 -1.5705  0.8182 -1.6993
   60SAPC  H16S 4642   3.320   1.325   8.857 -1.3635 -1.0070  0.6759
   60SAPC  C217 4643   3.324   1.516   8.933 -0.1656  0.2566 -1.3784
   60SAPC  H17R 4644   3.428   1.554   8.923 -0.2131  0.3569 -1.4938
   60SAPC  H17S 4645   3.278   1.562   9.024  0.4438 -0.5857 -0.6263
   60SAPC  C218 4646   3.249   1.554   8.807 -0.7728  0.0422 -0.0310
   60SAPC  H18R 4647   3.291   1.500   8.719  0.4158  2.7531 -1.2691
   60SAPC  H18S 4648   3.264   1.663   8.789  0.2081  0.6783  3.8293
   60SAPC  C219 4649   3.097   1.536   8.817 -0.0463  0.7655 -0.0003
   60SAPC  H19R 4650   3.064   1.595   8.906  1.0663  0.4475  0.6468
   60SAPC  H19S 4651   3.089   1.427   8.836 -0.5167  1.0161  1.4127
   60SAPC  C220 4652   3.021   1.560   8.686  0.1047 -0.8487  0.7921
   60SAPC  H20R 4653   3.038   1.669   8.675 -0.3527 -0.7430  1.0956
   60SAPC  H20S 4654   2.911   1.556   8.701 -0.3875  1.1998 -1.7063
   60SAPC  H20T 4655   3.065   1.509   8.598 -0.3007  0.6445 -0.3139
   60SAPC   C33 4656   2.910   2.073   9.934  0.5470 -0.4987  0.4578
   60SAPC   H3X 4657   2.882   1.966   9.920  0.2876 -0.1392 -2.2095
   60SAPC   H3Y 4658   3.020   2.077   9.943  0.6430 -2.2049  0.4477
   60SAPC   C34 4659   2.862   2.128   9.796 -0.7278 -0.0400 -0.0393
   60SAPC   H4X 4660   2.905   2.231   9.797 -3.4641  1.2024 -0.3008
   60SAPC   H4Y 4661   2.751   2.134   9.788 -0.6332  1.3053 -0.6697
   60SAPC   C35 4662   2.930   2.050   9.679  0.6024 -0.1874  1.1736
   60SAPC   H5X 4663   2.891   1.947   9.698  0.8155 -0.0212  2.6536
   60SAPC   H5Y 4664   3.040   2.047   9.692  1.0537  0.5472 -1.8344
   60SAPC   C36 4665   2.879   2.097   9.532  0.2334  0.5307 -0.5048
   60SAPC   H6X 4666   2.873   2.207   9.520 -1.2788  0.5216 -0.0427
   60SAPC   H6Y 4667   2.785   2.043   9.509 -1.5732  2.6028  1.5776
   60SAPC   C37 4668   2.985   2.064   9.422 -0.6193  0.8509  0.2282
   60SAPC   H7X 4669   3.013   1.958   9.436  0.4448  1.1516  0.4846
   60SAPC   H7Y 4670   3.077   2.123   9.442  0.8371 -1.8176  1.9819
   60SAPC   C38 4671   2.935   2.087   9.281 -0.5180 -0.1018 -0.2117
   60SAPC   H8X 4672   2.899   2.189   9.253  2.7037  1.3594  0.5855
   60SAPC   H8Y 4673   2.851   2.013   9.275  0.7976 -1.8516  1.7312
   60SAPC   C39 4674   3.041   2.058   9.172 -0.2505  0.2401  0.1795
   60SAPC   H9X 4675   3.075   1.953   9.175  3.1687  1.0887 -2.3306
   60SAPC   H9Y 4676   3.123   2.133   9.180 -0.2123  0.4677 -1.7540
   60SAPC  C310 4677   2.987   2.074   9.033 -0.1489  0.6842 -0.1771
   60SAPC  H10X 4678   2.929   2.168   9.034  0.4307  1.0434  0.5579
   60SAPC  H10Y 4679   2.919   1.990   9.004 -0.3810  0.5361  0.7676
   60SAPC  C311 4680   3.108   2.071   8.937  0.4694  0.8133 -0.0709
   60SAPC  H11X 4681   3.151   1.970   8.955  1.9898  1.7679  2.0280
   60SAPC  H11Y 4682   3.181   2.146   8.972  1.0083 -1.4418  4.4293
   60SAPC  C312 4683   3.063   2.077   8.787 -0.5118 -0.0276 -0.4277
   60SAPC  H12X 4684   3.040   2.183   8.761  0.5858  0.8593  1.9030
   60SAPC  H12Y 4685   2.974   2.012   8.774 -1.9621  1.8183 -0.2070
   60SAPC  C313 4686   3.162   2.018   8.677 -0.1662  0.2625 -0.9832
   60SAPC  H13X 4687   3.175   1.909   8.692  0.4042 -0.1371 -3.8385
   60SAPC  H13Y 4688   3.256   2.073   8.702  0.1699 -1.3457  1.7214
   60SAPC  C314 4689   3.114   2.042   8.533 -0.5202 -0.0904 -0.8351
   60SAPC  H14X 4690   3.005   2.025   8.526 -0.8660  1.6525 -0.2135
   60SAPC  H14Y 4691   3.162   1.974   8.459  0.4038 -0.0587 -0.2845
   60SAPC  C315 4692   3.132   2.190   8.494 -0.4355 -0.1456  0.6348
   60SAPC  H15X 4693   3.240   2.209   8.476 -0.3803  1.4343  2.3115
   60SAPC  H15Y 4694   3.097   2.258   8.575  0.4552  0.5566  0.4348
   60SAPC  C316 4695   3.048   2.229   8.374  0.2337  0.7921  1.2638
   60SAPC  H16X 4696   2.944   2.211   8.408 -0.1754 -0.6611 -0.5887
   60SAPC  H16Y 4697   3.073   2.179   8.278 -0.2545 -0.3535  1.7117
   60SAPC  C317 4698   3.043   2.381   8.345  0.1678 -0.2957  0.4284
   60SAPC  H17X 4699   3.144   2.408   8.308 -0.8732 -0.0144 -2.4725
   60SAPC  H17Y 4700   3.031   2.438   8.440 -2.1552 -0.6153  0.3811
   60SAPC  C318 4701   2.944   2.428   8.238 -0.1875 -0.3026 -0.8988
   60SAPC  H18X 4702   2.984   2.395   8.140  1.6270 -0.6668 -0.0720
   60SAPC  H18Y 4703   2.929   2.538   8.237  0.4012 -0.2184 -0.5896
   60SAPC  H18Z 4704   2.849   2.373   8.253 -0.2865  0.6934  3.6365
   61SAPC     N 4705   3.451   4.992  10.801  0.1281  0.0136 -0.7129
   61SAPC   C12 4706   3.417   4.844  10.775 -0.2028  0.1660  0.6167
   61SAPC  H12A 4707   3.510   4.794  10.754  0.7584  2.3476 -0.6632
   61SAPC  H12B 4708   3.370   4.833  10.678 -0.1140  0.3726  0.5502
   61SAPC   C13 4709   3.505   5.014  10.938 -0.0108  0.4206 -0.5180
   61SAPC  H13A 4710   3.519   5.119  10.958 -0.8144  1.2242 -3.6259
   61SAPC  H13B 4711   3.439   4.976  11.015 -3.1576 -0.2978 -3.3579
   61SAPC  H13C 4712   3.602   4.965  10.945 -0.1457 -0.1152 -2.0587
   61SAPC   C14 4713   3.540   5.039  10.688 -0.2854  0.2704  0.0932
   61SAPC  H14A 4714   3.627   4.978  10.672 -1.0015 -0.3498 -1.6951
   61SAPC  H14B 4715   3.485   5.029  10.596  1.5798  0.3520 -1.0704
   61SAPC  H14C 4716   3.567   5.142  10.704 -0.4657  0.1708  1.1279
   61SAPC   C15 4717   3.330   5.081  10.791 -0.5222  0.3532  0.5643
   61SAPC  H15A 4718   3.355   5.178  10.831 -2.0222  0.0681  2.3192
   61SAPC  H15B 4719   3.309   5.088  10.685  1.1820 -0.7105  0.1204
   61SAPC  H15C 4720   3.251   5.025  10.838 -1.2868 -1.1454 -2.2730
   61SAPC   C11 4721   3.335   4.764  10.877 -0.0300 -0.6046  1.1316
   61SAPC  H11A 4722   3.378   4.767  10.979 -0.2400 -0.5989  1.2204
   61SAPC  H11B 4723   3.344   4.656  10.851  0.8719 -0.2269 -0.2614
   61SAPC     P 4724   3.089   4.792  10.772 -0.2772  0.0125 -0.1713
   61SAPC   O13 4725   3.012   4.664  10.795  0.1804 -0.2876  0.1242
   61SAPC   O14 4726   3.023   4.928  10.776  0.4023  0.2760  0.4306
   61SAPC   O12 4727   3.200   4.800  10.882  0.0148  0.3437  0.1128
   61SAPC   O11 4728   3.166   4.772  10.639 -0.2378 -0.2774  0.1128
   61SAPC    C1 4729   3.162   4.869  10.530  0.8668  0.4211  0.3606
   61SAPC    HA 4730   3.129   4.971  10.558 -0.2948 -0.0100  0.6510
   61SAPC    HB 4731   3.262   4.892  10.488 -0.0734  1.7664 -1.3069
   61SAPC    C2 4732   3.063   4.812  10.420  0.2780 -0.8986 -0.1019
   61SAPC    HS 4733   2.965   4.821  10.471 -0.1277 -1.0308 -0.8412
   61SAPC   O21 4734   3.100   4.681  10.383 -0.1720  0.7949  0.0307
   61SAPC   C21 4735   3.002   4.596  10.359 -0.7675  0.1062  0.7991
   61SAPC   O22 4736   2.890   4.621  10.392  0.7922  0.3457  1.1002
   61SAPC   C22 4737   3.051   4.482  10.280  0.0543 -0.1021  0.1476
   61SAPC   H2R 4738   3.115   4.510  10.194 -1.1546 -0.5090 -0.9199
   61SAPC   H2S 4739   3.119   4.429  10.350  2.6681  0.3886 -1.9047
   61SAPC    C3 4740   3.048   4.898  10.293 -0.0452 -0.0749 -0.6983
   61SAPC    HX 4741   3.144   4.901  10.238  0.8201  4.9806  0.5431
   61SAPC    HY 4742   3.038   5.005  10.321 -0.4750  0.1872 -1.7731
   61SAPC   O31 4743   2.948   4.860  10.197 -0.5777  0.1628  0.1453
   61SAPC   C31 4744   2.891   4.953  10.126  0.5496  0.5261  0.6483
   61SAPC   O32 4745   2.905   5.072  10.144  0.0972  0.3264 -0.4748
   61SAPC   C32 4746   2.787   4.894  10.030 -0.1028 -0.0561 -0.4793
   61SAPC   H2X 4747   2.706   4.969  10.043  1.3402  1.0346  3.9604
   61SAPC   H2Y 4748   2.753   4.803  10.084 -0.3920  1.0125  1.2156
   61SAPC   C23 4749   2.937   4.389  10.234 -0.6447 -0.2794  0.2897
   61SAPC   H3R 4750   2.871   4.376  10.323 -0.9053 -2.3226 -0.1569
   61SAPC   H3S 4751   2.976   4.287  10.214  1.4531  0.0847  2.1322
   61SAPC   C24 4752   2.848   4.440  10.119  0.0641  0.2870 -0.8536
   61SAPC   H4R 4753   2.910   4.459  10.030 -1.1841  0.0086 -1.8076
   61SAPC   H4S 4754   2.794   4.532  10.150 -1.4776 -0.6243 -0.7309
   61SAPC   C25 4755   2.754   4.328  10.077 -0.0347  0.2880 -0.1068
   61SAPC   H5R 4756   2.691   4.292  10.160  2.8109 -0.7492  1.7577
   61SAPC   C26 4757   2.729   4.265   9.957 -0.1285 -0.0786 -0.4253
   61SAPC   H6R 4758   2.645   4.195   9.954  0.6345 -1.1635  1.6912
   61SAPC   C27 4759   2.801   4.286   9.828 -0.4172  0.8076 -0.0754
   61SAPC   H7R 4760   2.824   4.183   9.792 -0.2468  1.8311 -3.1294
   61SAPC   H7S 4761   2.889   4.349   9.852 -1.4345  1.0822  3.6962
   61SAPC   C28 4762   2.718   4.366   9.730 -0.8325 -0.1590  0.1945
   61SAPC   H8R 4763   2.733   4.474   9.743 -2.0592  0.0655 -0.1458
   61SAPC   C29 4764   2.644   4.323   9.629  0.6256  0.7315  0.7687
   61SAPC   H9R 4765   2.590   4.396   9.567  2.6058  0.3352 -1.5833
   61SAPC  C210 4766   2.620   4.176   9.591 -0.0583 -0.2218 -1.3538
   61SAPC  H10R 4767   2.514   4.149   9.610 -0.0557 -0.2568 -1.3868
   61SAPC  H10S 4768   2.667   4.107   9.664 -2.8195  0.3105  1.1112
   61SAPC  C211 4769   2.666   4.130   9.457 -0.6473  0.0465 -0.9671
   61SAPC  H11R 4770   2.764   4.081   9.456  0.2118  1.6644 -0.4227
   61SAPC  C212 4771   2.597   4.150   9.346  0.1113  0.0017  0.0876
   61SAPC  H12R 4772   2.644   4.112   9.253  0.2007  0.9320 -0.2549
   61SAPC  C213 4773   2.457   4.205   9.325 -0.5085  0.8177 -0.6690
   61SAPC  H13R 4774   2.466   4.303   9.273  0.4528  1.9084  1.4521
   61SAPC  H13S 4775   2.401   4.225   9.419  1.5062  0.3894  0.6680
   61SAPC  C214 4776   2.366   4.102   9.251  0.2565 -0.8786 -0.2305
   61SAPC  H14R 4777   2.336   4.016   9.313 -0.0618 -1.7730 -1.5910
   61SAPC  C215 4778   2.328   4.103   9.121  0.5752 -0.2360 -0.2163
   61SAPC  H15R 4779   2.257   4.027   9.084 -2.9061  3.3932 -1.6752
   61SAPC  C216 4780   2.358   4.211   9.022  0.1899 -0.4304 -0.2168
   61SAPC  H16R 4781   2.452   4.264   9.045 -0.7200  2.0707 -1.8036
   61SAPC  H16S 4782   2.273   4.282   9.029  1.5306  1.2547 -0.3834
   61SAPC  C217 4783   2.357   4.168   8.867  0.1003  0.2106 -0.1072
   61SAPC  H17R 4784   2.277   4.095   8.841 -0.9102  1.4376 -0.5493
   61SAPC  H17S 4785   2.450   4.115   8.836 -0.7335 -0.9769 -0.6843
   61SAPC  C218 4786   2.346   4.277   8.760 -0.0956 -0.3083 -0.8963
   61SAPC  H18R 4787   2.367   4.237   8.659 -0.3106 -0.8004 -0.7513
   61SAPC  H18S 4788   2.427   4.350   8.783 -0.7607 -0.1241  1.1004
   61SAPC  C219 4789   2.215   4.355   8.765  0.1531  0.1997  0.2360
   61SAPC  H19R 4790   2.199   4.382   8.871  0.5016  2.4797 -0.2402
   61SAPC  H19S 4791   2.131   4.285   8.744  0.4785  0.0605 -0.6414
   61SAPC  C220 4792   2.204   4.487   8.690  0.1722 -0.3521  0.2977
   61SAPC  H20R 4793   2.297   4.544   8.714  0.3588 -0.7660  0.5673
   61SAPC  H20S 4794   2.111   4.543   8.713  0.2706 -0.5145  1.1185
   61SAPC  H20T 4795   2.190   4.465   8.582  0.2906  0.4166  0.1193
   61SAPC   C33 4796   2.831   4.865   9.881  0.1913 -0.6338 -0.6683
   61SAPC   H3X 4797   2.861   4.957   9.825  2.5167  0.4657  2.1185
   61SAPC   H3Y 4798   2.750   4.825   9.816  1.9013  0.4101 -3.6956
   61SAPC   C34 4799   2.943   4.762   9.859 -0.2470 -0.0499 -0.3509
   61SAPC   H4X 4800   2.919   4.665   9.908  1.4345  0.0440  0.7241
   61SAPC   H4Y 4801   3.034   4.807   9.903  0.0708 -0.1835 -0.8707
   61SAPC   C35 4802   2.950   4.745   9.707 -0.2448 -0.1792  0.0867
   61SAPC   H5X 4803   2.992   4.837   9.660  1.4883 -0.5922  0.7776
   61SAPC   H5Y 4804   2.845   4.730   9.672 -0.5884  1.7450  0.1523
   61SAPC   C36 4805   3.039   4.626   9.662  0.5878 -0.1350 -0.0223
   61SAPC   H6X 4806   3.026   4.532   9.720  2.7671 -0.7854 -0.4796
   61SAPC   H6Y 4807   3.137   4.672   9.688  0.4782  0.2004 -0.2052
   61SAPC   C37 4808   3.020   4.597   9.505  0.4849 -0.0509  0.3458
   61SAPC   H7X 4809   3.088   4.672   9.459 -0.3629  0.8290  0.4927
   61SAPC   H7Y 4810   2.918   4.630   9.474  0.1021  1.2961  2.8476
   61SAPC   C38 4811   3.044   4.451   9.455  0.0178  0.7931  0.0962
   61SAPC   H8X 4812   2.951   4.394   9.477  0.2850 -0.8338 -2.5502
   61SAPC   H8Y 4813   3.137   4.423   9.510 -0.4608  1.1390  1.1062
   61SAPC   C39 4814   3.069   4.437   9.305  0.3151 -0.5199 -0.5247
   61SAPC   H9X 4815   3.172   4.476   9.289  0.1173  0.9194  1.3694
   61SAPC   H9Y 4816   2.987   4.494   9.255 -0.4764  0.3211  1.6167
   61SAPC  C310 4817   3.059   4.294   9.254  0.4428 -0.6641 -0.3131
   61SAPC  H10X 4818   2.955   4.257   9.265 -0.0976  0.9823  0.4498
   61SAPC  H10Y 4819   3.121   4.231   9.321  0.4999 -1.4292 -1.0634
   61SAPC  C311 4820   3.114   4.276   9.114 -0.3174 -0.0271  0.1729
   61SAPC  H11X 4821   3.169   4.180   9.106 -0.2076  0.0644 -0.1708
   61SAPC  H11Y 4822   3.192   4.353   9.098  0.9942 -1.4490 -0.6550
   61SAPC  C312 4823   3.000   4.270   9.010  0.5104 -1.3447  0.2626
   61SAPC  H12X 4824   3.032   4.327   8.921 -0.6018 -0.5106  0.3762
   61SAPC  H12Y 4825   2.909   4.316   9.053  1.4961 -0.0455  1.0372
   61SAPC  C313 4826   2.962   4.133   8.964  0.1537 -0.4944  0.4331
   61SAPC  H13X 4827   2.942   4.077   9.058 -0.7001  2.4199  2.1144
   61SAPC  H13Y 4828   3.049   4.082   8.919  0.2228 -1.2064  1.3284
   61SAPC  C314 4829   2.842   4.130   8.873  0.5557 -1.0542  0.2194
   61SAPC  H14X 4830   2.744   4.156   8.920 -0.1305 -0.6170 -1.4005
   61SAPC  H14Y 4831   2.834   4.033   8.821 -1.2867 -0.7271 -0.1665
   61SAPC  C315 4832   2.844   4.230   8.764 -0.1355 -0.6130  0.5688
   61SAPC  H15X 4833   2.944   4.237   8.715 -1.0644  2.7165 -1.1697
   61SAPC  H15Y 4834   2.828   4.329   8.810  1.9737  0.9180 -1.7145
   61SAPC  C316 4835   2.739   4.201   8.655  0.4200 -0.3840  0.4027
   61SAPC  H16X 4836   2.634   4.198   8.691 -0.3264 -0.5503 -1.6311
   61SAPC  H16Y 4837   2.764   4.108   8.599  0.4409  0.0666 -0.3526
   61SAPC  C317 4838   2.742   4.301   8.539  0.1257 -0.5351  0.0506
   61SAPC  H17X 4839   2.712   4.396   8.587 -2.2197 -1.2315  0.0969
   61SAPC  H17Y 4840   2.667   4.277   8.461 -0.6240  1.5465  0.0775
   61SAPC  C318 4841   2.884   4.347   8.479  0.5456 -0.4453  0.4747
   61SAPC  H18X 4842   2.939   4.401   8.560 -0.2841  0.1281  0.6729
   61SAPC  H18Y 4843   2.872   4.411   8.390 -0.5420 -2.3935 -0.8398
   61SAPC  H18Z 4844   2.955   4.263   8.462 -0.3023 -0.8183 -1.4446
   62SAPC     N 4845   6.675   3.007  10.481 -0.1303 -0.4533  0.7341
   62SAPC   C12 4846   6.747   3.134  10.515  0.0322  0.7833 -0.0404
   62SAPC  H12A 4847   6.804   3.105  10.603 -0.7050 -1.3097 -0.1989
   62SAPC  H12B 4848   6.680   3.217  10.533  0.4459  1.4491 -1.4582
   62SAPC   C13 4849   6.583   3.032  10.365 -0.3378 -0.3591 -0.9026
   62SAPC  H13A 4850   6.646   3.045  10.278  0.5394 -0.9928 -0.3693
   62SAPC  H13B 4851   6.508   2.958  10.343 -0.8567 -0.4565  1.0022
   62SAPC  H13C 4852   6.530   3.126  10.377  1.0683  0.6500 -2.1906
   62SAPC   C14 4853   6.766   2.893  10.455 -0.1716 -0.2311 -0.3328
   62SAPC  H14A 4854   6.827   2.913  10.368 -0.7979 -0.2556 -0.7872
   62SAPC  H14B 4855   6.833   2.873  10.537 -0.0437 -0.4543 -0.4891
   62SAPC  H14C 4856   6.710   2.806  10.423  0.7514 -0.1512 -2.3699
   62SAPC   C15 4857   6.592   2.967  10.598  0.4800 -0.5505  0.4753
   62SAPC  H15A 4858   6.520   3.046  10.613 -0.7687 -1.4929 -0.3686
   62SAPC  H15B 4859   6.534   2.878  10.576  0.6230 -0.2299 -1.3801
   62SAPC  H15C 4860   6.651   2.948  10.686 -2.0119 -0.8656  2.1822
   62SAPC   C11 4861   6.844   3.174  10.406  0.2473 -0.0704 -0.0847
   62SAPC  H11A 4862   6.862   3.283  10.414 -1.6619  0.1458  2.2061
   62SAPC  H11B 4863   6.798   3.149  10.307 -0.2354 -1.7379  0.5153
   62SAPC     P 4864   7.083   3.154  10.518 -0.1731 -0.0542 -0.3093
   62SAPC   O13 4865   7.023   3.238  10.624  0.1763  0.2727 -0.1244
   62SAPC   O14 4866   7.153   3.029  10.563 -0.4167  0.0358 -0.5624
   62SAPC   O12 4867   6.962   3.098  10.421  0.1348  0.0441 -0.0031
   62SAPC   O11 4868   7.180   3.245  10.429  0.3352  0.4556  0.1832
   62SAPC    C1 4869   7.139   3.300  10.299 -0.1575  0.4343  0.5432
   62SAPC    HA 4870   7.029   3.317  10.298  0.1360  2.6594  1.2551
   62SAPC    HB 4871   7.192   3.397  10.290 -0.2565  0.4202 -0.2961
   62SAPC    C2 4872   7.178   3.210  10.166 -0.6938 -0.1338 -0.7922
   62SAPC    HS 4873   7.132   3.109  10.168 -0.7164 -0.1873  2.6432
   62SAPC   O21 4874   7.322   3.202  10.152 -0.4468 -0.1513 -0.3602
   62SAPC   C21 4875   7.356   3.102  10.079  0.3311  0.3605 -0.1866
   62SAPC   O22 4876   7.278   3.011  10.041 -0.2780 -0.0943 -0.2749
   62SAPC   C22 4877   7.501   3.116  10.037  0.3907 -0.2525 -0.1264
   62SAPC   H2R 4878   7.504   3.221  10.001  1.5544 -1.0504 -2.5317
   62SAPC   H2S 4879   7.565   3.101  10.126  1.7972 -1.3200 -1.2782
   62SAPC    C3 4880   7.122   3.292  10.042 -0.9417  0.2301 -0.3213
   62SAPC    HX 4881   7.170   3.392  10.049 -0.8090  0.1242  0.3811
   62SAPC    HY 4882   7.013   3.303  10.057 -0.7616  0.7894  0.6712
   62SAPC   O31 4883   7.148   3.229   9.912 -0.4278  0.2869  0.0549
   62SAPC   C31 4884   7.041   3.172   9.856  0.6336 -0.4109  0.1041
   62SAPC   O32 4885   6.930   3.172   9.907  0.3281 -0.0663  0.0291
   62SAPC   C32 4886   7.059   3.100   9.726 -0.1125 -0.7425 -0.5937
   62SAPC   H2X 4887   7.022   2.996   9.741 -1.5888  0.2091  3.7300
   62SAPC   H2Y 4888   7.168   3.084   9.717  0.0597 -1.9221  2.3482
   62SAPC   C23 4889   7.559   3.041   9.913  0.0498 -0.2212 -0.4460
   62SAPC   H3R 4890   7.654   3.092   9.886  0.1369 -0.3239 -0.3339
   62SAPC   H3S 4891   7.492   3.050   9.825 -0.2982  1.0519 -0.0614
   62SAPC   C24 4892   7.596   2.903   9.945 -0.5663 -0.2278 -0.0508
   62SAPC   H4R 4893   7.668   2.897  10.029 -0.8068  1.1685  0.2891
   62SAPC   H4S 4894   7.651   2.868   9.855 -0.0459 -2.9760  1.2398
   62SAPC   C25 4895   7.486   2.802   9.955 -0.1342  0.4604 -0.3165
   62SAPC   H5R 4896   7.453   2.776  10.057  0.2370  0.8340 -0.0952
   62SAPC   C26 4897   7.420   2.746   9.855  0.2324  0.3640 -0.1033
   62SAPC   H6R 4898   7.335   2.685   9.888  0.7457 -0.5177 -0.3820
   62SAPC   C27 4899   7.440   2.773   9.706 -0.5419  0.0230 -0.2129
   62SAPC   H7R 4900   7.458   2.677   9.653 -0.3968  0.3151 -0.6913
   62SAPC   H7S 4901   7.531   2.829   9.678 -0.7025  0.0814 -0.6286
   62SAPC   C28 4902   7.319   2.831   9.647 -0.1736  1.1040 -0.2943
   62SAPC   H8R 4903   7.222   2.794   9.683  0.2253  0.4602  0.1288
   62SAPC   C29 4904   7.327   2.915   9.541  0.3037  0.3175  0.1384
   62SAPC   H9R 4905   7.227   2.952   9.512 -1.6659 -2.2824  2.9700
   62SAPC  C210 4906   7.441   2.975   9.467 -0.0709  0.3149 -0.2418
   62SAPC  H10R 4907   7.527   2.998   9.534 -0.2606  0.7589 -0.1510
   62SAPC  H10S 4908   7.410   3.074   9.428 -0.5926  1.3971  2.7025
   62SAPC  C211 4909   7.489   2.881   9.356  0.3613  0.1818 -0.3281
   62SAPC  H11R 4910   7.545   2.793   9.390 -0.8355 -1.0986 -1.5560
   62SAPC  C212 4911   7.457   2.883   9.223 -0.1059 -0.1617  0.5408
   62SAPC  H12R 4912   7.487   2.792   9.170 -2.1062 -1.8277  2.0848
   62SAPC  C213 4913   7.367   2.985   9.163  0.3359 -0.0231 -0.2986
   62SAPC  H13R 4914   7.378   3.086   9.208 -0.5811 -0.0195 -0.0615
   62SAPC  H13S 4915   7.265   2.952   9.192  2.0348 -2.8918  3.2161
   62SAPC  C214 4916   7.388   3.001   9.019  0.2366 -0.3980  0.3497
   62SAPC  H14R 4917   7.486   3.042   8.992  0.7409 -1.8427 -0.1008
   62SAPC  C215 4918   7.303   2.981   8.917  0.4056  0.7753  0.1939
   62SAPC  H15R 4919   7.343   2.982   8.814  0.6133 -0.3654  0.2563
   62SAPC  C216 4920   7.159   2.932   8.917 -0.2093  0.2725 -0.3537
   62SAPC  H16R 4921   7.095   3.021   8.903 -0.7880  0.0942  0.9591
   62SAPC  H16S 4922   7.139   2.884   9.015 -2.4388 -1.3565 -1.5051
   62SAPC  C217 4923   7.120   2.834   8.808  0.1416 -0.3770  0.2792
   62SAPC  H17R 4924   7.019   2.797   8.836 -0.1431  0.4466  0.3581
   62SAPC  H17S 4925   7.196   2.752   8.803  0.7892  0.2013  0.5384
   62SAPC  C218 4926   7.114   2.894   8.664  0.4209  0.0968 -0.8202
   62SAPC  H18R 4927   7.220   2.919   8.641  1.4086 -0.0438  2.8754
   62SAPC  H18S 4928   7.065   2.994   8.659  0.7157  0.4147  1.4786
   62SAPC  C219 4929   7.054   2.803   8.560 -0.3059 -0.1203 -0.6247
   62SAPC  H19R 4930   6.954   2.773   8.597 -0.4379 -0.7543 -1.4683
   62SAPC  H19S 4931   7.122   2.715   8.555  0.2156  0.2719 -0.5385
   62SAPC  C220 4932   7.033   2.864   8.423  0.2126 -0.8439 -0.7961
   62SAPC  H20R 4933   6.962   2.805   8.361 -0.6096 -0.2626 -0.4278
   62SAPC  H20S 4934   7.128   2.872   8.366 -1.3541 -1.1439 -3.6787
   62SAPC  H20T 4935   6.992   2.964   8.446  2.0253 -0.1047 -0.5872
   62SAPC   C33 4936   7.001   3.173   9.598  0.5528 -0.2024  0.3083
   62SAPC   H3X 4937   6.903   3.222   9.616 -0.2661 -2.3689  2.1052
   62SAPC   H3Y 4938   6.980   3.100   9.517 -1.2705  1.7104 -1.0612
   62SAPC   C34 4939   7.101   3.276   9.549 -0.0681  0.2129  0.4757
   62SAPC   H4X 4940   7.204   3.236   9.541 -0.0285  0.0737  1.5498
   62SAPC   H4Y 4941   7.105   3.363   9.617  1.6459  1.4239 -1.0949
   62SAPC   C35 4942   7.067   3.337   9.410 -0.3867  0.7641  0.1335
   62SAPC   H5X 4943   7.152   3.395   9.371  0.7972  0.3869  2.0297
   62SAPC   H5Y 4944   6.974   3.398   9.404 -1.1264 -0.1326  1.8167
   62SAPC   C36 4945   7.061   3.218   9.311 -0.2216 -0.2208  0.0374
   62SAPC   H6X 4946   6.970   3.154   9.320  0.6122 -1.5326 -0.4181
   62SAPC   H6Y 4947   7.139   3.147   9.346 -0.2857  0.1557  0.9586
   62SAPC   C37 4948   7.081   3.251   9.159  0.0875 -0.1607 -0.3527
   62SAPC   H7X 4949   7.095   3.157   9.101  0.5705  0.3681 -1.1157
   62SAPC   H7Y 4950   7.177   3.302   9.137  0.8176 -1.9853 -1.7457
   62SAPC   C38 4951   6.957   3.325   9.111  0.1859  0.6783  0.2237
   62SAPC   H8X 4952   6.965   3.429   9.148  0.0552  0.0630  2.0588
   62SAPC   H8Y 4953   6.865   3.277   9.149  1.3355 -0.9914  1.0095
   62SAPC   C39 4954   6.949   3.313   8.949 -0.2792 -0.4762  0.0583
   62SAPC   H9X 4955   6.870   3.376   8.904 -0.5199 -0.2995  0.7164
   62SAPC   H9Y 4956   6.936   3.206   8.920  0.0106 -0.0558 -1.7826
   62SAPC  C310 4957   7.076   3.358   8.880 -0.1243  0.3188 -0.3420
   62SAPC  H10X 4958   7.140   3.274   8.844 -0.3849  0.0515 -0.1916
   62SAPC  H10Y 4959   7.139   3.419   8.947 -0.5564 -0.6446  0.9932
   62SAPC  C311 4960   7.036   3.434   8.746 -0.1066  0.1975 -0.6413
   62SAPC  H11X 4961   7.128   3.472   8.696 -0.1783  0.6959 -0.3928
   62SAPC  H11Y 4962   6.975   3.522   8.772  1.3045  0.9669  0.2119
   62SAPC  C312 4963   6.963   3.339   8.653  0.0362  1.0482 -1.1282
   62SAPC  H12X 4964   6.889   3.273   8.702 -0.5429  1.1936 -1.7985
   62SAPC  H12Y 4965   7.036   3.271   8.605  3.7307  2.2057  2.3060
   62SAPC  C313 4966   6.895   3.416   8.544  0.6143  0.6520  0.3188
   62SAPC  H13X 4967   6.963   3.477   8.480 -1.8911  3.0520 -0.2242
   62SAPC  H13Y 4968   6.837   3.491   8.600  1.3284 -0.6954  3.0157
   62SAPC  C314 4969   6.802   3.324   8.457 -0.0128 -0.2868 -0.4347
   62SAPC  H14X 4970   6.720   3.273   8.512 -1.6926 -0.6240 -3.0747
   62SAPC  H14Y 4971   6.858   3.252   8.395  0.0472 -1.8817  1.3746
   62SAPC  C315 4972   6.721   3.412   8.356 -0.0797 -0.4259 -0.2170
   62SAPC  H15X 4973   6.654   3.479   8.415  1.1050  1.4367 -0.9036
   62SAPC  H15Y 4974   6.650   3.350   8.297  0.1863  0.1871 -1.2059
   62SAPC  C316 4975   6.806   3.482   8.254 -0.2190  0.3152 -0.6210
   62SAPC  H16X 4976   6.874   3.402   8.217  0.4444  0.5680  0.0030
   62SAPC  H16Y 4977   6.872   3.560   8.300 -2.5489  1.1468  1.5057
   62SAPC  C317 4978   6.741   3.544   8.138  0.5059  0.5240 -0.2197
   62SAPC  H17X 4979   6.671   3.467   8.099  0.8239  0.7394 -1.2385
   62SAPC  H17Y 4980   6.814   3.578   8.061  1.2631  0.4698  0.4659
   62SAPC  C318 4981   6.655   3.669   8.174  0.2958 -0.0631  0.1885
   62SAPC  H18X 4982   6.614   3.664   8.278  0.5278  0.5931  0.3201
   62SAPC  H18Y 4983   6.567   3.699   8.113 -1.6715 -0.3111  2.7047
   62SAPC  H18Z 4984   6.723   3.757   8.172  0.7851 -0.4403 -1.8192
   63SAPC     N 4985   6.229   2.699   6.049  0.0382 -0.2855  0.3942
   63SAPC   C12 4986   6.261   2.667   6.197  0.3754 -0.2511  0.3988
   63SAPC  H12A 4987   6.364   2.638   6.209  1.1145  1.9843 -0.1330
   63SAPC  H12B 4988   6.203   2.578   6.220  0.2484  0.2024  1.9413
   63SAPC   C13 4989   6.323   2.805   5.999 -0.1429  0.1095  0.0621
   63SAPC  H13A 4990   6.418   2.796   6.049 -0.5951  0.3758  0.9923
   63SAPC  H13B 4991   6.339   2.804   5.892  1.2789  1.6784  0.2423
   63SAPC  H13C 4992   6.285   2.899   6.035  0.2852 -0.1215  1.1397
   63SAPC   C14 4993   6.239   2.573   5.967  0.2338  0.4717  0.3666
   63SAPC  H14A 4994   6.317   2.510   6.006  0.1915  0.4885  0.4790
   63SAPC  H14B 4995   6.148   2.516   5.970  0.0901  0.6505 -0.3333
   63SAPC  H14C 4996   6.270   2.596   5.866 -1.9620 -1.0636 -0.7473
   63SAPC   C15 4997   6.092   2.753   6.026 -0.5492  0.3032 -0.9385
   63SAPC  H15A 4998   6.020   2.689   6.074 -0.5976 -1.1577 -2.8489
   63SAPC  H15B 4999   6.075   2.853   6.064 -0.5999 -0.0058 -0.1302
   63SAPC  H15C 5000   6.062   2.757   5.922  1.1704 -2.0826 -1.6278
   63SAPC   C11 5001   6.220   2.776   6.290 -0.0435 -0.0006 -0.7554
   63SAPC  H11A 5002   6.250   2.735   6.389 -0.4066 -0.2085 -0.7294
   63SAPC  H11B 5003   6.109   2.778   6.286 -0.0034  1.3738 -1.7874
   63SAPC     P 5004   6.411   2.961   6.318  0.0736 -0.2358 -0.1990
   63SAPC   O13 5005   6.524   2.932   6.222  0.1815 -0.7036 -0.6744
   63SAPC   O14 5006   6.397   3.104   6.358  0.5078  0.0361 -0.1839
   63SAPC   O12 5007   6.271   2.907   6.265 -1.0244 -0.2797  0.3188
   63SAPC   O11 5008   6.433   2.875   6.452  0.0156  0.4040  0.1673
   63SAPC    C1 5009   6.388   2.910   6.582  0.6286  0.5348 -0.3919
   63SAPC    HA 5010   6.366   3.018   6.598 -1.4639  0.4704 -2.4641
   63SAPC    HB 5011   6.304   2.844   6.610  0.5696  0.0325 -1.6907
   63SAPC    C2 5012   6.508   2.899   6.691 -0.5459 -0.0020  0.1729
   63SAPC    HS 5013   6.555   2.800   6.674  1.4180  0.7285  0.9849
   63SAPC   O21 5014   6.435   2.905   6.811 -0.2349 -0.2928  0.1525
   63SAPC   C21 5015   6.499   2.840   6.911  0.1575  0.1596 -0.1170
   63SAPC   O22 5016   6.599   2.772   6.896  0.5354  0.4719 -0.1813
   63SAPC   C22 5017   6.412   2.869   7.035 -0.0683 -0.1396 -0.2677
   63SAPC   H2R 5018   6.437   2.973   7.065  0.9936 -0.9451  1.9032
   63SAPC   H2S 5019   6.304   2.851   7.015  0.2289 -1.0527 -1.0750
   63SAPC    C3 5020   6.615   3.007   6.661 -0.5622  0.0167  0.2026
   63SAPC    HX 5021   6.562   3.104   6.647 -0.4808 -0.0033 -0.2434
   63SAPC    HY 5022   6.649   2.981   6.559  0.4829 -0.1616  0.5867
   63SAPC   O31 5023   6.727   3.019   6.753 -0.0638 -0.3366 -0.0926
   63SAPC   C31 5024   6.828   2.934   6.734  0.7033 -0.0970 -0.1478
   63SAPC   O32 5025   6.838   2.852   6.646 -0.3715 -0.7982 -0.1635
   63SAPC   C32 5026   6.931   2.943   6.844  0.4586  0.3084  0.5006
   63SAPC   H2X 5027   6.945   2.840   6.881 -1.0756 -0.1175 -0.0664
   63SAPC   H2Y 5028   6.886   3.001   6.927  2.6886 -0.1916  2.1653
   63SAPC   C23 5029   6.442   2.773   7.145  0.4554  0.0576 -0.4115
   63SAPC   H3R 5030   6.551   2.767   7.169  0.5286 -0.4881 -0.8691
   63SAPC   H3S 5031   6.413   2.672   7.110 -0.6584 -0.4068  1.6515
   63SAPC   C24 5032   6.361   2.790   7.276  0.2614 -0.1385  0.0194
   63SAPC   H4R 5033   6.407   2.718   7.348  0.4265 -0.6527 -0.5904
   63SAPC   H4S 5034   6.258   2.756   7.252 -0.0754  1.4811 -0.9725
   63SAPC   C25 5035   6.361   2.932   7.333  0.4755 -0.6253  0.1128
   63SAPC   H5R 5036   6.311   2.995   7.258 -1.5526  1.9067  3.2824
   63SAPC   C26 5037   6.383   2.974   7.459  0.2190  0.5948  0.9514
   63SAPC   H6R 5038   6.363   3.079   7.487 -4.2329  0.1783  0.1306
   63SAPC   C27 5039   6.427   2.892   7.576 -0.2119 -0.2031  0.3977
   63SAPC   H7R 5040   6.425   2.958   7.665  1.9305 -0.3369  0.6109
   63SAPC   H7S 5041   6.530   2.854   7.557 -0.3368 -2.4183  3.4100
   63SAPC   C28 5042   6.342   2.782   7.624 -1.0091 -0.3298 -0.9007
   63SAPC   H8R 5043   6.248   2.768   7.570 -1.9618 -0.3709  0.7116
   63SAPC   C29 5044   6.373   2.690   7.720  0.1022  0.0524  1.0479
   63SAPC   H9R 5045   6.296   2.612   7.731  0.8073 -1.0125 -0.9535
   63SAPC  C210 5046   6.499   2.679   7.804  0.4998 -0.1062  0.4022
   63SAPC  H10R 5047   6.589   2.702   7.743 -1.8054 -0.8030 -3.6056
   63SAPC  H10S 5048   6.513   2.571   7.824  0.4232 -0.0823  0.5890
   63SAPC  C211 5049   6.492   2.764   7.926 -0.0734 -1.1076 -0.5096
   63SAPC  H11R 5050   6.389   2.771   7.963  0.4505 -1.6725  1.1638
   63SAPC  C212 5051   6.586   2.839   7.991  0.0739  0.0291  0.7671
   63SAPC  H12R 5052   6.554   2.896   8.080 -2.1546  0.0723  0.0068
   63SAPC  C213 5053   6.728   2.860   7.964 -0.0752 -0.0432  0.6616
   63SAPC  H13R 5054   6.781   2.883   8.059 -1.2405 -1.3365  1.6747
   63SAPC  H13S 5055   6.745   2.938   7.887  0.2149  0.2726  1.0392
   63SAPC  C214 5056   6.812   2.746   7.908 -0.0616 -0.1968 -0.0250
   63SAPC  H14R 5057   6.757   2.655   7.880  1.1148 -0.1551 -2.8003
   63SAPC  C215 5058   6.945   2.740   7.879  0.3180 -0.0711  0.6506
   63SAPC  H15R 5059   6.997   2.648   7.851  1.3114  0.9302 -1.0110
   63SAPC  C216 5060   7.047   2.858   7.902  0.1502 -0.4271  0.5837
   63SAPC  H16R 5061   7.006   2.936   7.969 -0.0385 -0.8792  1.0087
   63SAPC  H16S 5062   7.070   2.908   7.806  2.2167  0.1013  1.3053
   63SAPC  C217 5063   7.180   2.813   7.962  0.7265  0.2873 -0.0088
   63SAPC  H17R 5064   7.252   2.897   7.970  2.3646 -1.1050  0.3695
   63SAPC  H17S 5065   7.219   2.745   7.884 -0.8962  0.1167 -0.7104
   63SAPC  C218 5066   7.155   2.744   8.094  0.4721  0.2417 -0.8100
   63SAPC  H18R 5067   7.101   2.651   8.069 -1.7437  0.9120  1.1764
   63SAPC  H18S 5068   7.092   2.818   8.148  1.2600 -0.1010  0.6268
   63SAPC  C219 5069   7.274   2.706   8.180 -0.4078 -0.1870  0.2652
   63SAPC  H19R 5070   7.324   2.614   8.142  1.7761 -0.0210  2.4936
   63SAPC  H19S 5071   7.241   2.671   8.280 -1.1737 -2.5069 -0.7227
   63SAPC  C220 5072   7.380   2.819   8.203 -0.4611 -0.2769  0.2889
   63SAPC  H20R 5073   7.467   2.815   8.134 -0.3436  0.5576  0.3800
   63SAPC  H20S 5074   7.420   2.793   8.303 -1.2172 -2.3493  0.1120
   63SAPC  H20T 5075   7.325   2.916   8.199  0.0392 -0.0054 -0.1565
   63SAPC   C33 5076   7.070   3.008   6.806  0.3599  0.5118 -0.6459
   63SAPC   H3X 5077   7.119   2.960   6.718  2.4191  1.3013  0.0202
   63SAPC   H3Y 5078   7.141   2.988   6.889  0.1510 -1.2728 -0.8630
   63SAPC   C34 5079   7.069   3.160   6.778 -0.0408  0.0943 -0.3583
   63SAPC   H4X 5080   7.002   3.203   6.701  1.3981  4.0556  0.3841
   63SAPC   H4Y 5081   7.173   3.189   6.751  0.4983  1.7977  3.0631
   63SAPC   C35 5082   7.055   3.242   6.914  0.2954 -0.3799  0.0178
   63SAPC   H5X 5083   7.126   3.202   6.990  0.9123  0.6590  0.0207
   63SAPC   H5Y 5084   6.951   3.225   6.950  0.6732 -0.2867  1.1984
   63SAPC   C36 5085   7.091   3.393   6.897  0.0437  0.5483 -0.0362
   63SAPC   H6X 5086   7.037   3.438   6.811  1.2789  0.1811 -1.0250
   63SAPC   H6Y 5087   7.196   3.399   6.863  0.0623 -1.3186 -0.4365
   63SAPC   C37 5088   7.080   3.485   7.019  0.0117  0.6715 -0.1199
   63SAPC   H7X 5089   6.985   3.468   7.074  1.7417 -0.0734  2.8597
   63SAPC   H7Y 5090   7.083   3.585   6.970  1.1459  0.0754 -1.3079
   63SAPC   C38 5091   7.203   3.466   7.108 -0.1913 -0.4900  0.6603
   63SAPC   H8X 5092   7.280   3.530   7.058 -0.1196 -0.5390  0.7092
   63SAPC   H8Y 5093   7.214   3.356   7.111 -3.1915 -0.9374 -1.0244
   63SAPC   C39 5094   7.187   3.532   7.246 -0.1178 -0.1549 -0.0545
   63SAPC   H9X 5095   7.119   3.618   7.227 -1.9915 -1.6343 -0.3118
   63SAPC   H9Y 5096   7.289   3.559   7.282 -0.3800 -0.7764  1.2413
   63SAPC  C310 5097   7.117   3.463   7.364 -0.6825 -0.3095 -0.9424
   63SAPC  H10X 5098   7.168   3.367   7.389 -2.0701 -0.6883  0.6194
   63SAPC  H10Y 5099   7.012   3.451   7.331 -0.6538  1.5248 -1.8329
   63SAPC  C311 5100   7.104   3.564   7.483  0.5642  0.4582  0.0029
   63SAPC  H11X 5101   7.079   3.663   7.439 -0.4916  0.3865  0.4232
   63SAPC  H11Y 5102   7.207   3.576   7.523  0.9722 -2.9730  0.2490
   63SAPC  C312 5103   7.007   3.523   7.591 -0.3992  0.8448 -0.4165
   63SAPC  H12X 5104   7.042   3.432   7.644 -1.5605  1.6919  1.9566
   63SAPC  H12Y 5105   6.906   3.499   7.551  0.8699 -0.7795 -2.9123
   63SAPC  C313 5106   6.992   3.636   7.695 -0.7048 -0.5056 -0.1486
   63SAPC  H13X 5107   6.888   3.672   7.680 -0.9634 -0.9036  0.6487
   63SAPC  H13Y 5108   7.061   3.718   7.666 -1.2756 -0.5787 -1.7921
   63SAPC  C314 5109   7.024   3.599   7.844 -0.3948 -0.2861  0.9955
   63SAPC  H14X 5110   7.119   3.541   7.844 -0.8176 -1.0482 -0.6198
   63SAPC  H14Y 5111   6.936   3.538   7.872 -0.6578  0.8699  2.8191
   63SAPC  C315 5112   7.038   3.727   7.931  0.6667  0.5575  0.2440
   63SAPC  H15X 5113   6.942   3.783   7.943  0.5776  0.6733 -0.9541
   63SAPC  H15Y 5114   7.104   3.794   7.871 -0.2860  0.0633 -1.4038
   63SAPC  C316 5115   7.110   3.692   8.062  0.2997 -0.8018  0.3940
   63SAPC  H16X 5116   7.212   3.653   8.042 -0.1586 -2.3403  0.9322
   63SAPC  H16Y 5117   7.047   3.620   8.119 -1.8616 -1.0134 -2.0708
   63SAPC  C317 5118   7.131   3.817   8.148  0.5297 -0.0902 -0.3771
   63SAPC  H17X 5119   7.036   3.874   8.159 -0.6555 -1.3629 -2.9338
   63SAPC  H17Y 5120   7.198   3.880   8.085  0.5844  1.6056  1.3045
   63SAPC  C318 5121   7.203   3.797   8.282 -0.0891 -0.3456 -0.4056
   63SAPC  H18X 5122   7.202   3.886   8.349  1.3981  0.5450 -1.4958
   63SAPC  H18Y 5123   7.311   3.776   8.265  0.0458 -1.5138  1.6175
   63SAPC  H18Z 5124   7.160   3.709   8.334 -0.0572  1.7004  3.4619
   64SAPC     N 5125   0.516   3.100   6.118  0.2477 -0.0010 -0.2521
   64SAPC   C12 5126   0.545   3.027   6.246 -0.4815  0.4649 -0.2125
   64SAPC  H12A 5127   0.504   3.079   6.331  0.4875  1.2196 -0.1891
   64SAPC  H12B 5128   0.652   3.018   6.255 -0.4915  0.6065  0.0415
   64SAPC   C13 5129   0.542   2.999   6.010 -0.9184 -0.5935  0.2211
   64SAPC  H13A 5130   0.542   3.041   5.911  0.1444  1.1907  0.9236
   64SAPC  H13B 5131   0.642   2.960   6.020  0.2142  1.7763 -1.1954
   64SAPC  H13C 5132   0.465   2.923   6.011 -1.8244  0.2970 -0.4705
   64SAPC   C14 5133   0.376   3.144   6.114  0.0894 -0.4730 -0.1294
   64SAPC  H14A 5134   0.349   3.140   6.010  0.2066 -2.6203 -0.1298
   64SAPC  H14B 5135   0.324   3.068   6.171  1.6760 -1.4417  0.0918
   64SAPC  H14C 5136   0.359   3.237   6.167  3.2110 -0.9632  2.0639
   64SAPC   C15 5137   0.617   3.204   6.101 -0.2096  0.1251 -0.4020
   64SAPC  H15A 5138   0.597   3.259   6.011  1.9106  0.7433 -0.5449
   64SAPC  H15B 5139   0.601   3.286   6.170 -1.1649  0.9995 -1.6190
   64SAPC  H15C 5140   0.717   3.162   6.105 -0.4121 -0.3079  0.4198
   64SAPC   C11 5141   0.485   2.882   6.262 -1.0931  0.0979 -0.1514
   64SAPC  H11A 5142   0.377   2.889   6.237 -1.4604 -1.3841  0.8478
   64SAPC  H11B 5143   0.490   2.852   6.369 -0.7512  2.0996  0.4391
   64SAPC     P 5144   0.685   2.723   6.191 -0.2614  0.4037 -0.0634
   64SAPC   O13 5145   0.682   2.577   6.212  0.1771 -0.5364  0.1115
   64SAPC   O14 5146   0.759   2.763   6.071 -0.6739  0.1957  0.8506
   64SAPC   O12 5147   0.535   2.778   6.180 -0.4365  0.8159  0.7672
   64SAPC   O11 5148   0.739   2.798   6.319 -0.7889  0.4042 -0.0018
   64SAPC    C1 5149   0.846   2.743   6.407  0.6425  0.0162  0.6314
   64SAPC    HA 5150   0.839   2.633   6.411  1.8209 -0.0632  3.4647
   64SAPC    HB 5151   0.947   2.772   6.370 -0.6870  0.9740 -2.6253
   64SAPC    C2 5152   0.822   2.806   6.551 -0.3368  0.1501  0.2387
   64SAPC    HS 5153   0.897   2.764   6.621 -2.0020 -2.9386  0.3408
   64SAPC   O21 5154   0.694   2.773   6.611  0.0472 -0.1785  0.2315
   64SAPC   C21 5155   0.684   2.638   6.624  0.1476  0.5480 -0.7437
   64SAPC   O22 5156   0.771   2.554   6.617 -0.0233 -0.0740 -0.3439
   64SAPC   C22 5157   0.541   2.602   6.660  0.0369  0.6951 -0.7335
   64SAPC   H2R 5158   0.482   2.636   6.572 -0.4536  0.5526 -0.4649
   64SAPC   H2S 5159   0.537   2.491   6.654  0.4371  0.5295  1.4500
   64SAPC    C3 5160   0.844   2.960   6.558  0.0009  0.3224 -0.2196
   64SAPC    HX 5161   0.776   3.012   6.487  1.0331  0.8275 -0.8680
   64SAPC    HY 5162   0.946   2.981   6.519  0.5277 -0.9012  0.4320
   64SAPC   O31 5163   0.837   2.993   6.699  0.0492  0.2175  0.4189
   64SAPC   C31 5164   0.732   3.068   6.731 -0.3753 -0.1308  0.6995
   64SAPC   O32 5165   0.654   3.120   6.655  0.3813 -0.1921 -0.1825
   64SAPC   C32 5166   0.749   3.084   6.883  0.1540 -0.1467  0.2581
   64SAPC   H2X 5167   0.845   3.134   6.906  0.7613 -1.5421  0.8990
   64SAPC   H2Y 5168   0.759   2.982   6.926  2.1889  0.2800  0.8844
   64SAPC   C23 5169   0.500   2.658   6.799 -0.5892  0.8273 -0.7355
   64SAPC   H3R 5170   0.389   2.659   6.794 -0.6510  1.9608  0.2087
   64SAPC   H3S 5171   0.547   2.758   6.814  1.5255 -0.2384  0.1486
   64SAPC   C24 5172   0.538   2.585   6.927  1.0066  0.8416 -0.2028
   64SAPC   H4R 5173   0.511   2.478   6.919 -0.9504  0.8949  3.5875
   64SAPC   H4S 5174   0.455   2.621   6.991 -0.1835 -0.5831 -0.8835
   64SAPC   C25 5175   0.676   2.610   6.979  0.0054  0.4050  0.4982
   64SAPC   H5R 5176   0.758   2.614   6.905 -1.9118  1.8422 -1.6884
   64SAPC   C26 5177   0.704   2.629   7.109 -0.2723  0.0322  0.6012
   64SAPC   H6R 5178   0.806   2.652   7.141  0.3491 -3.0938  1.2593
   64SAPC   C27 5179   0.602   2.621   7.221  0.2275 -0.5385 -0.0876
   64SAPC   H7R 5180   0.528   2.704   7.212 -0.0089 -0.6343  0.8828
   64SAPC   H7S 5181   0.652   2.655   7.313 -0.2534 -1.6657  0.6101
   64SAPC   C28 5182   0.542   2.481   7.237  0.1290  0.1271 -0.0948
   64SAPC   H8R 5183   0.535   2.418   7.147 -0.3176  1.1593 -0.8001
   64SAPC   C29 5184   0.516   2.422   7.358  0.5537  0.0696 -0.3773
   64SAPC   H9R 5185   0.471   2.322   7.346 -1.1253  0.6418  0.8113
   64SAPC  C210 5186   0.535   2.482   7.495  0.3694 -0.2138 -0.6905
   64SAPC  H10R 5187   0.592   2.577   7.489  0.5450 -0.2953 -0.3307
   64SAPC  H10S 5188   0.596   2.409   7.553 -0.6594 -0.9917 -0.5534
   64SAPC  C211 5189   0.402   2.509   7.566  0.2790 -0.6149  0.4168
   64SAPC  H11R 5190   0.349   2.591   7.515 -0.1415 -2.1342 -1.7394
   64SAPC  C212 5191   0.351   2.454   7.675 -0.5130 -0.4937  0.0736
   64SAPC  H12R 5192   0.256   2.494   7.714  0.8507  1.6996  1.3450
   64SAPC  C213 5193   0.415   2.344   7.759 -0.8480 -0.3284  0.0484
   64SAPC  H13R 5194   0.454   2.258   7.700  1.2882 -0.1357  1.0892
   64SAPC  H13S 5195   0.336   2.292   7.819 -0.7596 -2.4850 -1.5828
   64SAPC  C214 5196   0.519   2.411   7.843  0.5849 -0.2454 -0.5498
   64SAPC  H14R 5197   0.575   2.489   7.789 -0.2156  0.5457 -0.2704
   64SAPC  C215 5198   0.554   2.388   7.970  0.7447  0.4462 -0.4044
   64SAPC  H15R 5199   0.637   2.448   8.010 -1.6601  1.4982  3.4874
   64SAPC  C216 5200   0.506   2.287   8.067  0.8027 -0.4509 -0.0818
   64SAPC  H16R 5201   0.434   2.218   8.017 -0.4812  0.4071  0.5520
   64SAPC  H16S 5202   0.447   2.334   8.148 -0.3001 -4.0664  1.4500
   64SAPC  C217 5203   0.626   2.217   8.134  0.0073 -0.3743  0.4722
   64SAPC  H17R 5204   0.694   2.169   8.060  1.3197  0.9080  0.7837
   64SAPC  H17S 5205   0.589   2.134   8.197  1.0326 -1.7410 -0.6699
   64SAPC  C218 5206   0.709   2.317   8.220 -0.3938  0.3393  0.2987
   64SAPC  H18R 5207   0.642   2.354   8.301 -2.6069 -0.7082 -0.9733
   64SAPC  H18S 5208   0.741   2.400   8.153 -1.4147  1.7584  1.4849
   64SAPC  C219 5209   0.833   2.249   8.288 -0.1057  0.1202  1.1448
   64SAPC  H19R 5210   0.794   2.169   8.356  0.1063 -0.0956  1.0111
   64SAPC  H19S 5211   0.882   2.325   8.353 -0.8023  1.4089  0.1917
   64SAPC  C220 5212   0.927   2.184   8.178 -0.2437 -0.4804 -0.3151
   64SAPC  H20R 5213   0.870   2.110   8.118 -0.2593 -1.3756  0.7599
   64SAPC  H20S 5214   1.018   2.135   8.220 -1.1027 -3.2651 -1.4578
   64SAPC  H20T 5215   0.949   2.271   8.113  1.3567 -0.9639 -0.4538
   64SAPC   C33 5216   0.629   3.157   6.949 -0.2526 -0.3264 -0.1143
   64SAPC   H3X 5217   0.538   3.104   6.913 -0.7849 -0.4847  1.3828
   64SAPC   H3Y 5218   0.626   3.260   6.907 -0.5665 -0.6218 -0.8252
   64SAPC   C34 5219   0.630   3.171   7.103  0.2132 -0.0871 -0.2227
   64SAPC   H4X 5220   0.563   3.256   7.127  1.9729  1.2781  0.0190
   64SAPC   H4Y 5221   0.735   3.200   7.124  0.2113  1.1867 -1.7170
   64SAPC   C35 5222   0.611   3.034   7.172 -0.4818 -0.0592  0.3274
   64SAPC   H5X 5223   0.687   2.961   7.139 -1.1696 -0.4379 -0.4744
   64SAPC   H5Y 5224   0.510   2.999   7.140 -0.1670  0.8056 -1.7461
   64SAPC   C36 5225   0.611   3.037   7.326  0.2600 -0.7233  0.2768
   64SAPC   H6X 5226   0.714   3.052   7.365  1.1459 -0.8596 -1.8725
   64SAPC   H6Y 5227   0.575   2.938   7.361  0.4154 -0.9853 -0.2809
   64SAPC   C37 5228   0.533   3.150   7.397 -0.1206  0.7495  0.4507
   64SAPC   H7X 5229   0.425   3.143   7.369  0.5145 -3.2223 -1.8216
   64SAPC   H7Y 5230   0.577   3.248   7.369  0.0438  0.6212  0.2617
   64SAPC   C38 5231   0.551   3.137   7.548  0.7872  0.0263 -0.1000
   64SAPC   H8X 5232   0.659   3.150   7.571  1.1216 -1.2490 -0.8693
   64SAPC   H8Y 5233   0.539   3.029   7.571  1.2130  0.0740  0.3699
   64SAPC   C39 5234   0.466   3.224   7.644 -0.3535  0.5883  0.1206
   64SAPC   H9X 5235   0.361   3.226   7.610  0.1145 -2.6566 -1.9448
   64SAPC   H9Y 5236   0.503   3.329   7.650 -2.1748  1.2414  0.6032
   64SAPC  C310 5237   0.471   3.162   7.784  0.7766  0.4241 -0.8568
   64SAPC  H10X 5238   0.573   3.157   7.828  0.8125  1.0948 -0.8536
   64SAPC  H10Y 5239   0.425   3.062   7.776 -2.7361  1.4318  3.1900
   64SAPC  C311 5240   0.379   3.236   7.878 -0.0281  0.1782  0.4399
   64SAPC  H11X 5241   0.271   3.224   7.855  0.1787  0.9835 -1.0996
   64SAPC  H11Y 5242   0.407   3.343   7.875 -0.6630  0.3369 -0.1011
   64SAPC  C312 5243   0.402   3.202   8.021 -0.6409  1.3399 -0.2522
   64SAPC  H12X 5244   0.509   3.190   8.048 -0.5444  4.4487  1.2377
   64SAPC  H12Y 5245   0.363   3.099   8.034  0.9470  0.2791 -3.0572
   64SAPC  C313 5246   0.329   3.295   8.111  0.6402  0.1024 -0.0506
   64SAPC  H13X 5247   0.221   3.288   8.086  0.1313 -0.2888  2.0081
   64SAPC  H13Y 5248   0.351   3.399   8.077  1.7498 -0.6531 -1.7767
   64SAPC  C314 5249   0.346   3.284   8.267  0.3557 -0.0894 -0.1626
   64SAPC  H14X 5250   0.323   3.178   8.294  2.6615 -0.2932  1.2782
   64SAPC  H14Y 5251   0.275   3.364   8.298  0.6971  1.0927 -2.2713
   64SAPC  C315 5252   0.488   3.317   8.328  0.4416  0.0022 -0.4983
   64SAPC  H15X 5253   0.513   3.422   8.301 -1.9961  0.1488 -2.6050
   64SAPC  H15Y 5254   0.557   3.246   8.279  1.6136  0.1011  0.9280
   64SAPC  C316 5255   0.499   3.294   8.479 -0.4177 -0.7754  0.2713
   64SAPC  H16X 5256   0.455   3.200   8.516  0.9620 -1.7213 -0.4119
   64SAPC  H16Y 5257   0.446   3.379   8.527  0.6441  1.1481 -1.7223
   64SAPC  C317 5258   0.642   3.314   8.533  0.2564 -0.5857  0.1582
   64SAPC  H17X 5259   0.680   3.412   8.498  1.7461 -0.7081  1.3411
   64SAPC  H17Y 5260   0.718   3.246   8.488  0.5137  1.6198 -3.0844
   64SAPC  C318 5261   0.635   3.316   8.686 -0.7748  0.1224  0.1584
   64SAPC  H18X 5262   0.633   3.212   8.726 -2.6022  0.2458  0.4362
   64SAPC  H18Y 5263   0.543   3.361   8.728 -0.4847 -0.5450  1.5763
   64SAPC  H18Z 5264   0.722   3.376   8.722  1.1435 -0.7298 -2.6733
   65SAPC     N 5265   2.249   5.071   5.654  0.0068 -0.3612  0.5866
   65SAPC   C12 5266   2.283   5.181   5.756 -0.1859 -0.2033  0.1561
   65SAPC  H12A 5267   2.194   5.237   5.782  1.2107  2.3459 -0.1820
   65SAPC  H12B 5268   2.357   5.248   5.714 -0.2631 -0.5961 -0.6217
   65SAPC   C13 5269   2.207   5.138   5.522 -0.4247 -0.2254 -0.8118
   65SAPC  H13A 5270   2.160   5.065   5.459  1.2265 -0.3802 -1.9311
   65SAPC  H13B 5271   2.136   5.216   5.545  0.6954  1.0050 -1.4035
   65SAPC  H13C 5272   2.288   5.187   5.470 -1.4028 -0.3984 -2.5409
   65SAPC   C14 5273   2.361   4.982   5.624  0.4420  0.5183  0.0316
   65SAPC  H14A 5274   2.445   5.034   5.581 -0.0279  0.5585 -0.8519
   65SAPC  H14B 5275   2.402   4.938   5.714  0.3786  0.6231  0.1128
   65SAPC  H14C 5276   2.329   4.916   5.545 -3.8111  1.4323  0.7397
   65SAPC   C15 5277   2.138   4.980   5.697 -0.1148 -0.1054  0.2935
   65SAPC  H15A 5278   2.162   4.923   5.786 -1.1426 -1.5967 -0.3573
   65SAPC  H15B 5279   2.040   5.019   5.720  0.1003  1.0151 -0.5608
   65SAPC  H15C 5280   2.112   4.903   5.627 -1.1401  0.7312 -0.2768
   65SAPC   C11 5281   2.331   5.137   5.897 -0.5029  0.2609 -0.2895
   65SAPC  H11A 5282   2.377   5.214   5.962 -0.8374 -1.1768  1.7525
   65SAPC  H11B 5283   2.405   5.055   5.882  1.2283  1.7051  0.0495
   65SAPC     P 5284   2.105   5.165   6.028  0.0682  0.0362 -0.4560
   65SAPC   O13 5285   2.075   5.282   5.943  0.5576 -0.6968  0.0323
   65SAPC   O14 5286   1.992   5.075   6.056  0.0307 -0.4106 -0.2514
   65SAPC   O12 5287   2.218   5.082   5.970  0.0195 -0.4097 -0.0140
   65SAPC   O11 5288   2.156   5.220   6.168 -0.1899  0.3273  0.0840
   65SAPC    C1 5289   2.274   5.168   6.226 -0.2799  0.2182 -0.0677
   65SAPC    HA 5290   2.279   5.061   6.196  0.3919  0.5459 -1.1768
   65SAPC    HB 5291   2.356   5.233   6.189 -0.6987  0.6854 -0.1940
   65SAPC    C2 5292   2.248   5.175   6.383 -0.2607  0.2960 -0.2539
   65SAPC    HS 5293   2.345   5.144   6.426 -0.1183  0.0345 -0.7534
   65SAPC   O21 5294   2.140   5.089   6.429 -0.5091 -0.7137  0.4823
   65SAPC   C21 5295   2.171   4.958   6.442  0.2825  0.0085  0.4947
   65SAPC   O22 5296   2.280   4.909   6.435 -0.3605 -0.2102  0.5702
   65SAPC   C22 5297   2.043   4.886   6.474 -0.3377  0.3636  0.9943
   65SAPC   H2R 5298   1.968   4.903   6.394  1.2152  0.5102 -0.4939
   65SAPC   H2S 5299   2.057   4.776   6.467 -3.6588 -0.1277  0.6572
   65SAPC    C3 5300   2.220   5.321   6.427 -0.0573 -0.6311 -0.3190
   65SAPC    HX 5301   2.159   5.373   6.350  1.4335 -2.7750 -3.1272
   65SAPC    HY 5302   2.323   5.363   6.428  0.0121 -0.8163  0.3045
   65SAPC   O31 5303   2.166   5.330   6.557 -0.5911 -0.4768 -0.2579
   65SAPC   C31 5304   2.130   5.441   6.608 -0.5425 -0.2399 -0.2931
   65SAPC   O32 5305   2.141   5.550   6.555 -0.4189 -0.2662  0.4387
   65SAPC   C32 5306   2.074   5.405   6.750 -0.3066 -0.6709  0.1732
   65SAPC   H2X 5307   2.161   5.366   6.807  1.3364  0.6487 -1.3122
   65SAPC   H2Y 5308   1.996   5.326   6.753 -1.1790 -0.0006 -2.4472
   65SAPC   C23 5309   1.979   4.918   6.607  0.1666 -0.3527 -0.5316
   65SAPC   H3R 5310   1.968   5.027   6.620 -0.4623 -0.4977  0.2578
   65SAPC   H3S 5311   2.045   4.887   6.691 -2.1432 -0.6448  1.2888
   65SAPC   C24 5312   1.847   4.849   6.631  0.5020 -0.4461 -0.0411
   65SAPC   H4R 5313   1.857   4.743   6.599  1.6996  0.4728 -3.1429
   65SAPC   H4S 5314   1.765   4.888   6.567 -0.2113  0.9104  1.6158
   65SAPC   C25 5315   1.806   4.875   6.776 -0.2080 -0.4020  0.1799
   65SAPC   H5R 5316   1.756   4.972   6.788  1.1506  0.4340 -0.6500
   65SAPC   C26 5317   1.797   4.788   6.876 -0.2709 -0.3084  0.1476
   65SAPC   H6R 5318   1.773   4.831   6.974  1.9641 -0.3401  0.7789
   65SAPC   C27 5319   1.846   4.645   6.881 -0.5375 -0.3165  0.5627
   65SAPC   H7R 5320   1.937   4.659   6.943  0.9734 -1.5760 -1.2591
   65SAPC   H7S 5321   1.889   4.608   6.786  0.5702 -0.8836  1.2694
   65SAPC   C28 5322   1.753   4.538   6.940 -0.5346  0.1787 -0.4894
   65SAPC   H8R 5323   1.660   4.530   6.882  1.1134  0.4433 -3.3637
   65SAPC   C29 5324   1.762   4.463   7.056  0.0455  0.0187  0.6843
   65SAPC   H9R 5325   1.674   4.404   7.086  0.8275 -3.5482 -3.0790
   65SAPC  C210 5326   1.880   4.475   7.146 -0.2135 -0.4715  0.0530
   65SAPC  H10R 5327   1.907   4.582   7.161 -1.1215 -0.2723  0.2888
   65SAPC  H10S 5328   1.967   4.437   7.088  0.5979  2.1039 -0.5556
   65SAPC  C211 5329   1.862   4.402   7.278  0.0713 -0.0942  0.4982
   65SAPC  H11R 5330   1.892   4.296   7.281  1.3287  0.2068 -0.4336
   65SAPC  C212 5331   1.846   4.464   7.400 -0.1912 -0.0217 -0.1044
   65SAPC  H12R 5332   1.842   4.392   7.484  0.8396 -0.3316 -0.3091
   65SAPC  C213 5333   1.822   4.609   7.422 -0.4107 -0.4563 -1.0007
   65SAPC  H13R 5334   1.719   4.612   7.463 -0.5976 -0.8278 -1.4399
   65SAPC  H13S 5335   1.825   4.664   7.326  2.4945  3.4058  0.9854
   65SAPC  C214 5336   1.924   4.671   7.522  0.4168  0.8958  0.9379
   65SAPC  H14R 5337   1.941   4.612   7.614  2.3059 -0.0911 -0.0024
   65SAPC  C215 5338   1.980   4.793   7.518  0.5032  0.7592 -0.2644
   65SAPC  H15R 5339   2.041   4.827   7.603  1.6551 -1.0322 -0.3144
   65SAPC  C216 5340   1.958   4.889   7.409 -0.1399  0.0449  0.5822
   65SAPC  H16R 5341   1.919   4.989   7.440  0.3550  1.0704 -1.8518
   65SAPC  H16S 5342   1.876   4.858   7.341  1.9139 -0.5759 -1.7265
   65SAPC  C217 5343   2.090   4.915   7.336 -0.6871  0.4307  0.4008
   65SAPC  H17R 5344   2.138   4.818   7.309  0.8552  0.4653  2.7153
   65SAPC  H17S 5345   2.151   4.972   7.410  1.1347  1.9371 -2.1151
   65SAPC  C218 5346   2.071   5.006   7.214 -0.1487  0.3965 -0.5047
   65SAPC  H18R 5347   2.076   5.111   7.252  0.2087  0.1760  0.0689
   65SAPC  H18S 5348   1.968   4.991   7.176 -0.5553 -0.6152  0.9286
   65SAPC  C219 5349   2.160   4.988   7.092 -0.2222  1.1296 -0.5848
   65SAPC  H19R 5350   2.152   4.886   7.048  1.3807  0.0288  1.4799
   65SAPC  H19S 5351   2.267   4.995   7.120 -0.0842 -0.6952 -0.5448
   65SAPC  C220 5352   2.143   5.093   6.988  0.2072 -0.1027 -0.3617
   65SAPC  H20R 5353   2.214   5.091   6.903 -0.3989 -0.0735 -0.8842
   65SAPC  H20S 5354   2.143   5.195   7.033 -1.3470 -1.0195  1.8800
   65SAPC  H20T 5355   2.047   5.096   6.932  0.7653 -0.6731 -1.3692
   65SAPC   C33 5356   2.025   5.529   6.828 -0.4611 -0.1692  0.8566
   65SAPC   H3X 5357   1.951   5.582   6.764 -0.8062 -0.4281  1.0383
   65SAPC   H3Y 5358   2.105   5.602   6.853  0.0219 -0.6477  0.7059
   65SAPC   C34 5359   1.950   5.492   6.956 -0.2226 -0.7195  0.1297
   65SAPC   H4X 5360   1.899   5.394   6.945 -0.7874 -1.0454  3.9917
   65SAPC   H4Y 5361   1.878   5.573   6.981  1.6200  1.0142  0.0945
   65SAPC   C35 5362   2.041   5.470   7.078  1.0134 -0.1186 -0.1632
   65SAPC   H5X 5363   2.087   5.569   7.093  0.9323  0.5744 -3.7042
   65SAPC   H5Y 5364   2.123   5.400   7.054 -0.1564 -1.3487 -0.7358
   65SAPC   C36 5365   1.965   5.408   7.191  0.2092 -0.0620 -0.4860
   65SAPC   H6X 5366   1.904   5.321   7.159 -0.0132  0.3292 -1.1518
   65SAPC   H6Y 5367   1.898   5.494   7.215  1.9461  0.7632  1.8181
   65SAPC   C37 5368   2.052   5.368   7.307 -0.0291 -0.1543  0.0869
   65SAPC   H7X 5369   2.097   5.460   7.349  0.5261  0.0931 -0.9956
   65SAPC   H7Y 5370   2.137   5.309   7.267 -1.3225 -2.1119  0.0870
   65SAPC   C38 5371   1.981   5.287   7.423 -0.4831  0.4320 -0.2178
   65SAPC   H8X 5372   2.066   5.231   7.468 -1.7681 -0.7176  0.8479
   65SAPC   H8Y 5373   1.928   5.208   7.366  0.5063 -0.0199 -0.5476
   65SAPC   C39 5374   1.902   5.362   7.531 -0.4389  0.0416 -0.5239
   65SAPC   H9X 5375   1.805   5.401   7.493 -0.4319  0.3379 -0.2435
   65SAPC   H9Y 5376   1.957   5.447   7.576  0.6900 -1.5872  1.3365
   65SAPC  C310 5377   1.869   5.274   7.653 -0.5070 -0.2567 -0.4721
   65SAPC  H10X 5378   1.958   5.208   7.661 -0.5329 -0.4121 -1.4121
   65SAPC  H10Y 5379   1.775   5.220   7.631 -1.2720  0.6450  0.4710
   65SAPC  C311 5380   1.857   5.350   7.787  0.2814  1.1598 -0.2111
   65SAPC  H11X 5381   1.789   5.438   7.784 -0.3409  0.7111  0.4731
   65SAPC  H11Y 5382   1.958   5.394   7.805  0.8209 -0.2616  0.3726
   65SAPC  C312 5383   1.812   5.253   7.901 -0.3088  0.6043  0.6572
   65SAPC  H12X 5384   1.886   5.170   7.905 -1.0214 -0.1715 -1.1963
   65SAPC  H12Y 5385   1.715   5.202   7.884  0.2568 -0.0508 -0.7641
   65SAPC  C313 5386   1.822   5.319   8.039  0.2007  0.2069 -0.0373
   65SAPC  H13X 5387   1.762   5.410   8.058 -0.5338 -0.6231  1.9558
   65SAPC  H13Y 5388   1.930   5.341   8.055  0.3694 -1.0303  0.7034
   65SAPC  C314 5389   1.772   5.220   8.152 -0.0275  0.3736 -0.0661
   65SAPC  H14X 5390   1.836   5.130   8.137  0.6290  0.8995 -0.4852
   65SAPC  H14Y 5391   1.670   5.190   8.121  0.4053 -1.9804  0.5889
   65SAPC  C315 5392   1.781   5.278   8.289 -0.0992  0.2232 -0.6007
   65SAPC  H15X 5393   1.715   5.367   8.295  1.4386  1.2946  1.6044
   65SAPC  H15Y 5394   1.884   5.307   8.316  0.7024 -1.9378 -1.0746
   65SAPC  C316 5395   1.725   5.179   8.398  0.8278 -0.3489 -0.1613
   65SAPC  H16X 5396   1.615   5.165   8.410  0.8839 -0.0083  0.8588
   65SAPC  H16Y 5397   1.754   5.219   8.497  0.6704  1.4367 -0.7895
   65SAPC  C317 5398   1.796   5.044   8.389 -0.5200 -0.1653  0.7630
   65SAPC  H17X 5399   1.905   5.055   8.368 -0.4543  0.4627  1.3836
   65SAPC  H17Y 5400   1.763   4.998   8.293  0.1827 -3.6432  2.0315
   65SAPC  C318 5401   1.768   4.938   8.493 -0.6138  0.0086 -0.2035
   65SAPC  H18X 5402   1.664   4.902   8.488  0.2879 -3.2737  1.7336
   65SAPC  H18Y 5403   1.783   4.980   8.595 -1.4107  0.0836 -0.1164
   65SAPC  H18Z 5404   1.825   4.843   8.496 -0.5024  0.0860  1.3477
   66SAPC     N 5405   6.304   4.686   5.517 -0.0167 -0.3606 -0.0805
   66SAPC   C12 5406   6.175   4.626   5.571 -0.0711 -0.0565  0.4269
   66SAPC  H12A 5407   6.155   4.542   5.507  0.2782  0.8560 -0.9275
   66SAPC  H12B 5408   6.095   4.698   5.563 -1.4407 -1.4694  0.8718
   66SAPC   C13 5409   6.296   4.717   5.370 -0.4955  0.2528  0.1021
   66SAPC  H13A 5410   6.279   4.634   5.303 -0.2992  1.1709 -1.1252
   66SAPC  H13B 5411   6.216   4.787   5.355  0.1070  1.7077  2.8640
   66SAPC  H13C 5412   6.385   4.771   5.341  0.0402 -0.7676 -0.2178
   66SAPC   C14 5413   6.344   4.808   5.598 -0.2018  0.0447  0.3194
   66SAPC  H14A 5414   6.452   4.817   5.600 -0.0812 -1.1148 -0.0107
   66SAPC  H14B 5415   6.304   4.898   5.553 -1.8416 -0.6668  0.2720
   66SAPC  H14C 5416   6.317   4.788   5.701  1.3833 -4.5456  0.1105
   66SAPC   C15 5417   6.411   4.582   5.538 -0.2624  0.1517 -0.1897
   66SAPC  H15A 5418   6.380   4.483   5.507  0.6178  0.1067 -0.9562
   66SAPC  H15B 5419   6.508   4.612   5.503  0.0774 -0.9289 -0.2259
   66SAPC  H15C 5420   6.421   4.561   5.644 -1.9650  0.4401  0.0657
   66SAPC   C11 5421   6.166   4.602   5.727 -0.9639 -0.3721 -0.0131
   66SAPC  H11A 5422   6.253   4.538   5.750  0.1264  0.1900 -2.2726
   66SAPC  H11B 5423   6.072   4.545   5.743 -3.3513  1.8524 -4.2474
   66SAPC     P 5424   6.038   4.816   5.817  0.3082  0.1852 -0.1278
   66SAPC   O13 5425   6.090   4.952   5.852 -0.1792  0.0917 -0.0908
   66SAPC   O14 5426   5.948   4.795   5.696  0.3690 -0.2442 -0.2538
   66SAPC   O12 5427   6.173   4.732   5.793  0.2379 -0.1550 -0.5731
   66SAPC   O11 5428   5.970   4.760   5.949 -0.4720  0.2445 -0.1256
   66SAPC    C1 5429   5.982   4.625   5.999 -1.4053 -0.6269  0.1913
   66SAPC    HA 5430   5.951   4.555   5.918  0.4226 -0.2322 -0.8950
   66SAPC    HB 5431   6.083   4.589   6.027 -0.8844 -0.7984 -1.7691
   66SAPC    C2 5432   5.890   4.609   6.121 -0.3522  0.6771  1.0243
   66SAPC    HS 5433   5.796   4.653   6.082  0.0096 -1.0948 -2.1559
   66SAPC   O21 5434   5.940   4.687   6.232 -0.5088 -0.4937  0.4318
   66SAPC   C21 5435   5.855   4.696   6.330 -0.3563  0.1632  0.0996
   66SAPC   O22 5436   5.751   4.636   6.338 -0.6645 -0.2954 -0.6174
   66SAPC   C22 5437   5.908   4.794   6.438  0.1816  0.1425 -0.8967
   66SAPC   H2R 5438   5.973   4.728   6.499 -0.9741 -1.0809 -0.9507
   66SAPC   H2S 5439   5.963   4.881   6.395 -0.7122  1.3289  0.2730
   66SAPC    C3 5440   5.883   4.459   6.164  0.3324  0.3450  0.0625
   66SAPC    HX 5441   5.865   4.400   6.071  1.0354 -0.5573  0.4871
   66SAPC    HY 5442   5.800   4.446   6.236 -1.1738  1.0117 -1.4685
   66SAPC   O31 5443   6.006   4.415   6.220 -0.5890  0.6258 -0.0458
   66SAPC   C31 5444   6.027   4.423   6.351  0.3680  0.8109 -0.4945
   66SAPC   O32 5445   5.942   4.448   6.439  0.2772 -0.1681  0.4878
   66SAPC   C32 5446   6.173   4.385   6.394 -0.4146  0.5200  0.1286
   66SAPC   H2X 5447   6.248   4.455   6.352 -0.8573  0.3674 -0.9547
   66SAPC   H2Y 5448   6.192   4.295   6.331  0.8943  2.0108 -1.7139
   66SAPC   C23 5449   5.807   4.847   6.549 -0.3929 -0.0164 -0.4367
   66SAPC   H3R 5450   5.774   4.756   6.604  1.6680  0.5611  1.9301
   66SAPC   H3S 5451   5.717   4.896   6.505 -0.0297 -1.7421 -3.4235
   66SAPC   C24 5452   5.884   4.942   6.649 -0.4630  0.2203 -0.7648
   66SAPC   H4R 5453   5.817   4.997   6.718  1.6244 -1.4547  2.9140
   66SAPC   H4S 5454   5.938   5.015   6.584 -1.2325  2.2599  0.7966
   66SAPC   C25 5455   5.993   4.867   6.725 -1.2088 -0.5050  0.1369
   66SAPC   H5R 5456   6.090   4.839   6.682 -0.4152  1.8546  0.2772
   66SAPC   C26 5457   5.979   4.838   6.850  0.2590  0.2364 -0.9541
   66SAPC   H6R 5458   6.061   4.790   6.906 -1.5701 -3.0593 -0.8612
   66SAPC   C27 5459   5.857   4.869   6.933 -0.1201  0.3812 -0.2463
   66SAPC   H7R 5460   5.768   4.833   6.877 -1.1335 -0.2486  1.6793
   66SAPC   H7S 5461   5.834   4.976   6.950 -0.7546  0.1912  0.0921
   66SAPC   C28 5462   5.867   4.799   7.065 -0.7047  0.3327  0.3948
   66SAPC   H8R 5463   5.892   4.693   7.051  1.6149  0.9972 -1.2157
   66SAPC   C29 5464   5.865   4.855   7.186  0.1617 -0.0780 -0.1480
   66SAPC   H9R 5465   5.872   4.794   7.277  1.6592  2.5776  1.6615
   66SAPC  C210 5466   5.845   5.003   7.223  0.1558  0.0774  0.3535
   66SAPC  H10R 5467   5.883   5.062   7.137 -0.1673 -0.1456  0.0501
   66SAPC  H10S 5468   5.918   5.036   7.299  1.5970 -1.6332 -0.2107
   66SAPC  C211 5469   5.703   5.042   7.257 -0.3777 -0.1966  0.7390
   66SAPC  H11R 5470   5.636   5.064   7.173  0.3708  0.0645  0.2004
   66SAPC  C212 5471   5.635   5.033   7.371  0.0676  0.3907 -0.2545
   66SAPC  H12R 5472   5.532   5.072   7.372  1.7019  5.3894  0.0966
   66SAPC  C213 5473   5.696   4.984   7.508  0.6725 -0.6602  0.6431
   66SAPC  H13R 5474   5.802   4.954   7.492  1.5040  0.9399  2.7590
   66SAPC  H13S 5475   5.636   4.898   7.545 -1.7728  0.6772  0.0160
   66SAPC  C214 5476   5.696   5.093   7.614 -0.4872  0.0775 -0.8656
   66SAPC  H14R 5477   5.727   5.194   7.582  0.5179 -0.0843 -0.4463
   66SAPC  C215 5478   5.665   5.072   7.745 -0.0724 -0.0158 -0.7472
   66SAPC  H15R 5479   5.654   5.168   7.798  1.1089 -0.9328  1.2841
   66SAPC  C216 5480   5.616   4.946   7.809  0.3718  0.3104  0.1708
   66SAPC  H16R 5481   5.658   4.942   7.912  0.5287 -2.4732  0.0629
   66SAPC  H16S 5482   5.660   4.859   7.756  0.4718  0.9646 -0.8685
   66SAPC  C217 5483   5.461   4.928   7.815 -0.7037  0.3588  0.0944
   66SAPC  H17R 5484   5.419   4.934   7.713  3.0746  1.4045 -1.5600
   66SAPC  H17S 5485   5.423   5.008   7.882  0.6345  0.9584  0.1737
   66SAPC  C218 5486   5.419   4.800   7.881 -0.0281 -0.0699  0.5316
   66SAPC  H18R 5487   5.473   4.782   7.977  0.4378 -1.8325 -0.0169
   66SAPC  H18S 5488   5.448   4.723   7.807  0.5956 -0.9652  1.6729
   66SAPC  C219 5489   5.262   4.787   7.909 -0.0804  0.1882 -0.6992
   66SAPC  H19R 5490   5.211   4.793   7.810 -0.5463 -1.6621 -0.6071
   66SAPC  H19S 5491   5.243   4.884   7.959 -0.7199 -0.2420 -0.0896
   66SAPC  C220 5492   5.216   4.671   8.004  0.3158  0.7015  0.2884
   66SAPC  H20R 5493   5.106   4.661   8.002  0.3697 -0.1707  1.0988
   66SAPC  H20S 5494   5.247   4.679   8.111  0.5088 -2.5567  0.5642
   66SAPC  H20T 5495   5.256   4.575   7.965  1.6486  0.5182  1.9896
   66SAPC   C33 5496   6.189   4.356   6.549 -0.0933 -0.7652 -0.0565
   66SAPC   H3X 5497   6.282   4.303   6.579  0.9696  0.4806 -1.0616
   66SAPC   H3Y 5498   6.111   4.277   6.558 -0.2437 -0.9533 -2.3467
   66SAPC   C34 5499   6.178   4.478   6.641  0.3532 -0.4058  0.1648
   66SAPC   H4X 5500   6.101   4.551   6.609 -0.3821 -1.0360  0.4871
   66SAPC   H4Y 5501   6.279   4.525   6.631  0.4303 -0.9729 -2.1454
   66SAPC   C35 5502   6.152   4.428   6.789 -0.1746 -0.8934  0.7744
   66SAPC   H5X 5503   6.205   4.331   6.793  3.8357  0.9714 -0.8083
   66SAPC   H5Y 5504   6.045   4.417   6.817 -0.1442  0.1602  1.3549
   66SAPC   C36 5505   6.215   4.527   6.891 -0.1415  0.8616 -0.3062
   66SAPC   H6X 5506   6.183   4.633   6.879 -2.6754  0.0409 -1.5759
   66SAPC   H6Y 5507   6.325   4.513   6.891 -0.2392 -0.0080 -0.3101
   66SAPC   C37 5508   6.172   4.498   7.035  0.5070  0.6976 -0.0648
   66SAPC   H7X 5509   6.223   4.402   7.057  0.1978  0.8793  1.5544
   66SAPC   H7Y 5510   6.062   4.493   7.051  0.5743  1.9272  0.9578
   66SAPC   C38 5511   6.211   4.607   7.135 -0.0293 -0.8026 -0.6995
   66SAPC   H8X 5512   6.159   4.704   7.122  0.1338 -0.1221  2.8966
   66SAPC   H8Y 5513   6.317   4.637   7.118  0.6943 -3.4041 -1.3176
   66SAPC   C39 5514   6.186   4.568   7.283 -0.1466  0.3286 -0.0294
   66SAPC   H9X 5515   6.228   4.465   7.286 -0.6017  0.0954 -1.0846
   66SAPC   H9Y 5516   6.079   4.548   7.304  0.1014 -1.3114 -0.2093
   66SAPC  C310 5517   6.237   4.669   7.385  0.7625 -0.4157 -0.2380
   66SAPC  H10X 5518   6.334   4.715   7.356  0.6173 -0.6394 -1.1086
   66SAPC  H10Y 5519   6.259   4.621   7.483 -0.1137 -1.8727 -0.7328
   66SAPC  C311 5520   6.141   4.785   7.415 -0.2016 -1.0740  0.6234
   66SAPC  H11X 5521   6.125   4.837   7.318  0.4129  0.5867  1.3739
   66SAPC  H11Y 5522   6.193   4.852   7.487 -1.8457  0.5542  0.3794
   66SAPC  C312 5523   6.012   4.748   7.487 -0.6328 -0.3592  0.1685
   66SAPC  H12X 5524   5.941   4.691   7.422  0.0033 -1.5452  0.4795
   66SAPC  H12Y 5525   5.952   4.836   7.519  0.1955 -0.6110  2.6169
   66SAPC  C313 5526   6.037   4.677   7.626 -0.6826  0.1769  0.2674
   66SAPC  H13X 5527   6.112   4.597   7.609 -1.1343 -0.1864 -0.0364
   66SAPC  H13Y 5528   5.945   4.623   7.656 -1.3811  1.9314  1.4502
   66SAPC  C314 5529   6.077   4.770   7.747 -0.5724  0.1393  0.7663
   66SAPC  H14X 5530   5.989   4.830   7.777 -0.9814 -0.0204 -0.0678
   66SAPC  H14Y 5531   6.158   4.840   7.717 -0.7282  0.0847  0.2057
   66SAPC  C315 5532   6.126   4.684   7.862  0.1843 -0.0870  0.2570
   66SAPC  H15X 5533   6.221   4.641   7.824  0.1057  0.1107 -0.1748
   66SAPC  H15Y 5534   6.054   4.601   7.879  0.1640 -0.4409 -1.3610
   66SAPC  C316 5535   6.159   4.762   7.989 -0.3175 -0.1138  0.3849
   66SAPC  H16X 5536   6.157   4.688   8.071  2.1146  1.1416  1.6749
   66SAPC  H16Y 5537   6.087   4.844   8.008  2.9748  3.1518  0.0120
   66SAPC  C317 5538   6.302   4.815   7.997 -0.3939 -0.2580  0.3305
   66SAPC  H17X 5539   6.336   4.893   7.926  1.6992 -0.5834  0.9320
   66SAPC  H17Y 5540   6.381   4.739   7.977 -0.0615  0.0592  0.4338
   66SAPC  C318 5541   6.320   4.884   8.132 -0.6154 -0.1498  0.2488
   66SAPC  H18X 5542   6.415   4.941   8.134 -0.0330 -1.0974  0.6233
   66SAPC  H18Y 5543   6.329   4.800   8.205  1.0028 -0.6005 -0.4256
   66SAPC  H18Z 5544   6.237   4.955   8.148  1.0198  2.8942 -3.3235
   67SAPC     N 5545   0.770   0.149   6.465 -0.0239  0.3140  0.6621
   67SAPC   C12 5546   0.859   0.108   6.572 -0.1555  0.5739 -0.1379
   67SAPC  H12A 5547   0.879   0.002   6.577  3.0426  1.0147 -0.9413
   67SAPC  H12B 5548   0.829   0.153   6.666  2.8419 -0.7660  1.6206
   67SAPC   C13 5549   0.796   0.081   6.333 -0.2316 -0.2693  0.1083
   67SAPC  H13A 5550   0.717   0.110   6.266 -1.2058  0.6661  1.5877
   67SAPC  H13B 5551   0.889   0.108   6.286 -0.6470 -0.8686 -1.1016
   67SAPC  H13C 5552   0.797  -0.026   6.327  1.2695 -0.2429 -0.4121
   67SAPC   C14 5553   0.629   0.111   6.503  0.2962 -0.4281 -0.6585
   67SAPC  H14A 5554   0.632   0.006   6.526 -2.5059 -0.2907  0.7522
   67SAPC  H14B 5555   0.606   0.174   6.588  0.7903  1.4687 -1.8583
   67SAPC  H14C 5556   0.550   0.139   6.435 -1.4558  0.6963  1.6591
   67SAPC   C15 5557   0.792   0.294   6.443  0.0786 -0.5548 -0.2011
   67SAPC  H15A 5558   0.891   0.331   6.421 -0.4324 -0.6767 -3.1000
   67SAPC  H15B 5559   0.731   0.313   6.356 -0.6096 -5.1391 -1.0006
   67SAPC  H15C 5560   0.757   0.349   6.528  1.0467 -0.0769 -0.0915
   67SAPC   C11 5561   1.016   0.147   6.562  0.3201  0.2672  0.0283
   67SAPC  H11A 5562   1.060   0.105   6.656  0.3891  0.4302  0.0687
   67SAPC  H11B 5563   1.028   0.256   6.548  1.7975  0.2331  0.7817
   67SAPC     P 5564   1.089  -0.084   6.428  0.0658 -0.3921  0.0729
   67SAPC   O13 5565   1.078  -0.108   6.281 -0.1804  0.4592 -0.0184
   67SAPC   O14 5566   1.203  -0.139   6.503  1.0554  0.1844 -0.4499
   67SAPC   O12 5567   1.080   0.071   6.456  0.2487 -0.1805 -0.2705
   67SAPC   O11 5568   0.961  -0.144   6.492 -0.5144  0.0122 -0.2670
   67SAPC    C1 5569   0.924  -0.281   6.465  0.6447 -0.3528  0.0261
   67SAPC    HA 5570   0.905  -0.290   6.356  1.4572  1.2999 -0.2808
   67SAPC    HB 5571   1.008  -0.346   6.497  1.5135  1.5656  1.9594
   67SAPC    C2 5572   0.800  -0.314   6.552 -0.8545 -0.2375 -0.5412
   67SAPC    HS 5573   0.734  -0.225   6.543  0.1814  0.6106 -0.0277
   67SAPC   O21 5574   0.847  -0.333   6.688  0.6167 -0.0476 -0.4442
   67SAPC   C21 5575   0.814  -0.242   6.776 -0.1250 -0.0634 -0.2302
   67SAPC   O22 5576   0.772  -0.131   6.746  0.3477  0.4023 -0.1113
   67SAPC   C22 5577   0.847  -0.294   6.915 -0.4104  0.4499 -0.1227
   67SAPC   H2R 5578   0.772  -0.365   6.955  0.4904 -0.0965  0.6411
   67SAPC   H2S 5579   0.944  -0.349   6.909 -1.6726 -1.7637 -1.2974
   67SAPC    C3 5580   0.731  -0.434   6.501  0.4590  0.5914 -0.1666
   67SAPC    HX 5581   0.809  -0.513   6.510 -1.1079 -1.1005 -0.8767
   67SAPC    HY 5582   0.705  -0.430   6.393  0.9076  1.1336 -0.2585
   67SAPC   O31 5583   0.616  -0.462   6.583  0.5116 -0.1900 -0.2298
   67SAPC   C31 5584   0.507  -0.416   6.529  0.3875  0.2662 -0.2167
   67SAPC   O32 5585   0.496  -0.351   6.427 -0.2535 -0.3377  0.4173
   67SAPC   C32 5586   0.394  -0.484   6.596 -0.0880  0.2542  0.0624
   67SAPC   H2X 5587   0.422  -0.591   6.605  0.7057  0.4330 -0.1564
   67SAPC   H2Y 5588   0.306  -0.477   6.529 -0.1386  0.5662  0.1595
   67SAPC   C23 5589   0.856  -0.181   7.028 -0.5291  0.2440 -0.2065
   67SAPC   H3R 5590   0.768  -0.112   7.025  0.6821  1.8739  0.2053
   67SAPC   H3S 5591   0.955  -0.133   7.014 -1.1286  1.6908  0.3230
   67SAPC   C24 5592   0.840  -0.247   7.161  0.3735 -0.3716  0.1356
   67SAPC   H4R 5593   0.899  -0.342   7.159  1.2744  0.1670  0.3161
   67SAPC   H4S 5594   0.737  -0.275   7.191 -0.1372  1.6532  0.3991
   67SAPC   C25 5595   0.910  -0.160   7.263  0.1143 -0.1579  0.1489
   67SAPC   H5R 5596   1.011  -0.130   7.234  0.6789 -0.2507  1.9063
   67SAPC   C26 5597   0.870  -0.112   7.383 -0.2190  0.2896  0.4614
   67SAPC   H6R 5598   0.950  -0.066   7.443 -1.0426 -0.1103  1.9051
   67SAPC   C27 5599   0.736  -0.154   7.446  0.0326 -0.3829 -0.2154
   67SAPC   H7R 5600   0.731  -0.258   7.485  0.8774 -0.3947 -0.1265
   67SAPC   H7S 5601   0.660  -0.160   7.365 -0.4180  1.0556  0.0674
   67SAPC   C28 5602   0.693  -0.039   7.540  0.2133 -0.2115  0.1432
   67SAPC   H8R 5603   0.625   0.035   7.496 -1.0596 -1.7843 -0.6383
   67SAPC   C29 5604   0.738  -0.011   7.666 -0.3432  0.2435  0.0902
   67SAPC   H9R 5605   0.685   0.072   7.715 -2.0933 -1.3072  0.9494
   67SAPC  C210 5606   0.846  -0.078   7.741 -0.4265 -0.0810 -0.6272
   67SAPC  H10R 5607   0.905   0.001   7.792 -2.4321  0.3709  1.1328
   67SAPC  H10S 5608   0.919  -0.131   7.676  0.2944  0.0399  0.0665
   67SAPC  C211 5609   0.800  -0.177   7.843  0.1577 -0.4257  0.1348
   67SAPC  H11R 5610   0.811  -0.283   7.814 -1.4918 -1.0058  1.4639
   67SAPC  C212 5611   0.756  -0.144   7.969  0.0348 -0.4063 -0.0208
   67SAPC  H12R 5612   0.717  -0.219   8.039 -1.7729  2.4230  2.2721
   67SAPC  C213 5613   0.725  -0.005   8.018 -0.1707 -0.0197  0.3213
   67SAPC  H13R 5614   0.683   0.044   7.927  3.1640  0.0722 -1.3270
   67SAPC  H13S 5615   0.816   0.054   8.037  0.0871  0.6690 -2.5492
   67SAPC  C214 5616   0.633   0.011   8.132 -0.2103  0.6662  0.7127
   67SAPC  H14R 5617   0.549  -0.059   8.142 -0.0709  0.6989  2.4591
   67SAPC  C215 5618   0.651   0.091   8.239  0.1507  0.1284 -0.3083
   67SAPC  H15R 5619   0.571   0.084   8.314 -0.2262 -2.0652 -0.8452
   67SAPC  C216 5620   0.756   0.202   8.255  0.0930 -0.3186 -0.7972
   67SAPC  H16R 5621   0.788   0.246   8.158 -0.0398 -0.0318 -0.7131
   67SAPC  H16S 5622   0.849   0.159   8.297  1.1433 -0.7541 -3.3900
   67SAPC  C217 5623   0.706   0.315   8.344  0.7499 -0.2468  0.2692
   67SAPC  H17R 5624   0.678   0.276   8.444  1.1683 -0.1128  0.4392
   67SAPC  H17S 5625   0.620   0.369   8.298 -0.5134 -2.1798  0.2670
   67SAPC  C218 5626   0.805   0.428   8.372  0.4950  0.1766  0.7291
   67SAPC  H18R 5627   0.766   0.499   8.448 -1.0772  0.9579 -0.7485
   67SAPC  H18S 5628   0.837   0.487   8.283  1.8292  0.3113  1.2667
   67SAPC  C219 5629   0.932   0.385   8.455  0.4805  0.7136 -0.1223
   67SAPC  H19R 5630   1.013   0.459   8.440  1.4433 -0.4561 -0.8804
   67SAPC  H19S 5631   0.979   0.294   8.412  1.3872 -0.0978  2.4169
   67SAPC  C220 5632   0.904   0.363   8.605  0.4951  0.3296  0.6574
   67SAPC  H20R 5633   0.837   0.277   8.626  1.1646 -0.1965  0.6939
   67SAPC  H20S 5634   0.861   0.455   8.650 -1.4184  0.7686 -1.8732
   67SAPC  H20T 5635   1.000   0.339   8.656  0.8819  0.4570  0.0016
   67SAPC   C33 5636   0.349  -0.411   6.724 -0.6461 -0.0656  0.0650
   67SAPC   H3X 5637   0.254  -0.463   6.750 -0.4252 -1.4810 -1.7987
   67SAPC   H3Y 5638   0.331  -0.305   6.696 -0.7229 -0.0838  0.0434
   67SAPC   C34 5639   0.447  -0.448   6.835  0.8829  0.8685  0.0881
   67SAPC   H4X 5640   0.547  -0.424   6.792  0.6477  1.0503 -0.3646
   67SAPC   H4Y 5641   0.450  -0.558   6.852  1.4354  0.5941 -1.5996
   67SAPC   C35 5642   0.422  -0.375   6.966 -0.0531 -0.0801  0.6415
   67SAPC   H5X 5643   0.314  -0.367   6.990 -0.5155 -3.4520  0.1487
   67SAPC   H5Y 5644   0.471  -0.275   6.962  0.1965 -0.2029  0.5991
   67SAPC   C36 5645   0.482  -0.452   7.084  0.1959  0.2387  0.2443
   67SAPC   H6X 5646   0.593  -0.454   7.081  0.2031 -1.9596  0.1522
   67SAPC   H6Y 5647   0.451  -0.559   7.079 -2.3118  0.8776  0.4922
   67SAPC   C37 5648   0.454  -0.380   7.214  0.3820  0.7986  0.1689
   67SAPC   H7X 5649   0.343  -0.377   7.206  0.3948 -0.6446 -1.0512
   67SAPC   H7Y 5650   0.493  -0.276   7.217  2.0772  0.1748  2.5382
   67SAPC   C38 5651   0.500  -0.457   7.333  0.5762 -0.0606 -0.5345
   67SAPC   H8X 5652   0.610  -0.473   7.330  0.5488 -0.3083 -0.2971
   67SAPC   H8Y 5653   0.448  -0.556   7.336 -2.2511  1.2469 -2.5478
   67SAPC   C39 5654   0.452  -0.386   7.462  0.3476 -0.2267 -0.2880
   67SAPC   H9X 5655   0.342  -0.389   7.481  0.4850 -2.3897  0.4170
   67SAPC   H9Y 5656   0.475  -0.278   7.472  2.1729 -0.6184  0.0001
   67SAPC  C310 5657   0.516  -0.451   7.580  0.3354  0.3281 -0.1440
   67SAPC  H10X 5658   0.624  -0.426   7.573  0.8918 -1.5294  1.2128
   67SAPC  H10Y 5659   0.494  -0.560   7.583 -3.4375  0.9265  2.4070
   67SAPC  C311 5660   0.470  -0.392   7.716  1.1938 -0.6323 -0.3076
   67SAPC  H11X 5661   0.359  -0.386   7.721  1.0800  0.3758 -2.6541
   67SAPC  H11Y 5662   0.510  -0.288   7.718 -1.7986  0.5940  0.7667
   67SAPC  C312 5663   0.523  -0.459   7.849 -0.2195 -0.4356  0.5868
   67SAPC  H12X 5664   0.632  -0.468   7.863 -0.3912 -0.2693  2.2272
   67SAPC  H12Y 5665   0.488  -0.564   7.842 -1.0134 -0.1591  0.2742
   67SAPC  C313 5666   0.470  -0.390   7.975 -0.3109  0.2952 -0.3073
   67SAPC  H13X 5667   0.359  -0.378   7.972 -0.1590  2.1962  0.1806
   67SAPC  H13Y 5668   0.504  -0.285   7.989 -0.9316  0.4649 -0.0111
   67SAPC  C314 5669   0.519  -0.474   8.094 -0.4144  0.0485 -0.0650
   67SAPC  H14X 5670   0.628  -0.460   8.107 -0.4154 -1.3178  2.0401
   67SAPC  H14Y 5671   0.514  -0.584   8.078  0.9837 -0.8246  4.1442
   67SAPC  C315 5672   0.444  -0.445   8.222  0.0971 -0.3972 -0.6345
   67SAPC  H15X 5673   0.334  -0.436   8.219 -0.0237  1.3465  3.0668
   67SAPC  H15Y 5674   0.471  -0.338   8.232 -1.2895  0.1271 -2.1324
   67SAPC  C316 5675   0.461  -0.534   8.346  0.3396 -0.4695  0.7248
   67SAPC  H16X 5676   0.397  -0.504   8.432  1.6400  0.4790  1.4078
   67SAPC  H16Y 5677   0.565  -0.537   8.385  0.9418 -0.7721 -0.8141
   67SAPC  C317 5678   0.411  -0.676   8.311 -0.2569  0.4505  0.3161
   67SAPC  H17X 5679   0.472  -0.718   8.228  0.4052  1.1179  0.4539
   67SAPC  H17Y 5680   0.306  -0.663   8.278  0.4269 -0.8198 -2.6580
   67SAPC  C318 5681   0.426  -0.770   8.436 -0.0533 -0.2086  0.0868
   67SAPC  H18X 5682   0.383  -0.735   8.532  1.0218 -1.9762  1.2675
   67SAPC  H18Y 5683   0.533  -0.792   8.455 -0.1918 -2.9647 -1.7316
   67SAPC  H18Z 5684   0.373  -0.865   8.409 -0.1511 -0.3175  0.6505
   68SAPC     N 5685   6.798   6.092   5.786 -0.2453  0.4860 -0.4756
   68SAPC   C12 5686   6.742   6.181   5.895  0.6423 -0.5398 -0.2487
   68SAPC  H12A 5687   6.708   6.275   5.853  1.7418  0.6487  1.4122
   68SAPC  H12B 5688   6.815   6.214   5.967 -0.6738 -0.6681  1.1899
   68SAPC   C13 5689   6.921   6.158   5.731  0.1369  0.4610 -0.4863
   68SAPC  H13A 5690   6.903   6.255   5.687 -0.8465  0.8529  0.6927
   68SAPC  H13B 5691   6.985   6.190   5.812  0.1099 -0.7314  0.0280
   68SAPC  H13C 5692   6.981   6.101   5.662 -1.1046  0.3017 -1.4594
   68SAPC   C14 5693   6.853   5.973   5.863 -0.1707 -0.8424  0.2652
   68SAPC  H14A 5694   6.766   5.913   5.884 -1.0606 -0.2052 -1.3656
   68SAPC  H14B 5695   6.928   5.925   5.803  1.3986  3.2771 -1.4245
   68SAPC  H14C 5696   6.894   6.007   5.957  0.0463  0.1429 -0.1718
   68SAPC   C15 5697   6.713   6.057   5.665 -0.2145  0.1446 -0.4455
   68SAPC  H15A 5698   6.700   6.148   5.607 -1.7943  1.4553  1.8213
   68SAPC  H15B 5699   6.762   5.979   5.609  2.0606  0.0613  1.5345
   68SAPC  H15C 5700   6.614   6.026   5.695  0.4934 -0.9961  0.8246
   68SAPC   C11 5701   6.619   6.128   5.975  0.3370  0.2593 -0.8747
   68SAPC  H11A 5702   6.603   6.194   6.063 -2.6308 -0.4768 -0.7346
   68SAPC  H11B 5703   6.622   6.027   6.021 -1.6545  0.1857 -0.7978
   68SAPC     P 5704   6.392   6.221   5.892 -0.2884  0.0480  0.2633
   68SAPC   O13 5705   6.425   6.330   5.793  0.9297 -0.2885  0.3158
   68SAPC   O14 5706   6.272   6.148   5.852  0.2056  0.8993  0.4531
   68SAPC   O12 5707   6.508   6.122   5.898 -0.5241  0.2130  0.4463
   68SAPC   O11 5708   6.377   6.276   6.040  0.7816  0.3967  0.4373
   68SAPC    C1 5709   6.275   6.225   6.128 -0.4361 -0.0197 -0.8784
   68SAPC    HA 5710   6.178   6.246   6.079  0.9712 -0.6400 -4.2108
   68SAPC    HB 5711   6.286   6.114   6.132 -0.9608 -0.0584 -0.4481
   68SAPC    C2 5712   6.301   6.271   6.278  0.0600  0.0838 -0.0050
   68SAPC    HS 5713   6.224   6.225   6.344 -0.2451 -3.0842 -2.2796
   68SAPC   O21 5714   6.280   6.413   6.286  0.9484  0.5413 -0.3018
   68SAPC   C21 5715   6.150   6.448   6.286 -0.5744  0.3581  0.3967
   68SAPC   O22 5716   6.061   6.365   6.269 -0.4965  0.2294  0.1256
   68SAPC   C22 5717   6.131   6.591   6.330  0.2198  0.0682 -0.7446
   68SAPC   H2R 5718   6.226   6.644   6.309  0.7080 -0.9372 -1.1110
   68SAPC   H2S 5719   6.058   6.640   6.262 -2.0706 -0.1550  1.4053
   68SAPC    C3 5720   6.441   6.227   6.321  0.2786 -0.7030  0.8876
   68SAPC    HX 5721   6.506   6.293   6.260  0.0009 -3.0148 -2.1439
   68SAPC    HY 5722   6.479   6.127   6.290  1.9551 -0.3374  1.6593
   68SAPC   O31 5723   6.462   6.242   6.463  0.1153  0.3294 -0.1397
   68SAPC   C31 5724   6.526   6.340   6.514  0.5498  0.6160 -0.6205
   68SAPC   O32 5725   6.562   6.431   6.452 -0.8239 -0.0777  0.1112
   68SAPC   C32 5726   6.539   6.316   6.662  0.2854  0.3515  0.2059
   68SAPC   H2X 5727   6.510   6.212   6.687  1.3466 -0.9280 -3.3498
   68SAPC   H2Y 5728   6.464   6.380   6.714  1.5341  1.0659  1.1859
   68SAPC   C23 5729   6.098   6.609   6.481 -0.2399 -0.1243 -0.3012
   68SAPC   H3R 5730   6.021   6.536   6.514 -0.9367  1.3577  1.5098
   68SAPC   H3S 5731   6.059   6.713   6.479  0.5638  0.1867 -2.3124
   68SAPC   C24 5732   6.226   6.602   6.567 -0.8000 -0.1283 -0.9246
   68SAPC   H4R 5733   6.262   6.497   6.580 -1.5921 -0.1134  2.1645
   68SAPC   H4S 5734   6.195   6.615   6.673  2.8637  0.9260  0.1380
   68SAPC   C25 5735   6.352   6.691   6.527 -0.5390  0.6572  0.2612
   68SAPC   H5R 5736   6.359   6.715   6.420  0.5644 -0.9116 -0.0517
   68SAPC   C26 5737   6.450   6.738   6.611  0.4644  0.0322  0.4102
   68SAPC   H6R 5738   6.541   6.782   6.566 -1.5334  1.1248 -2.9358
   68SAPC   C27 5739   6.455   6.717   6.756  0.6323  0.8816  0.5445
   68SAPC   H7R 5740   6.556   6.678   6.784 -0.3572 -2.2468  0.1697
   68SAPC   H7S 5741   6.381   6.636   6.777  2.6905 -1.2837 -0.1231
   68SAPC   C28 5742   6.431   6.839   6.842  0.2644  0.6248 -0.2798
   68SAPC   H8R 5743   6.398   6.934   6.799 -1.4677  1.3417  2.4034
   68SAPC   C29 5744   6.448   6.833   6.978  0.1098 -0.1018 -0.4703
   68SAPC   H9R 5745   6.424   6.919   7.043 -0.4216  0.8413 -1.8676
   68SAPC  C210 5746   6.487   6.706   7.046  0.7623 -0.3065  0.5296
   68SAPC  H10R 5747   6.587   6.669   7.017  1.5194  2.1261 -0.2764
   68SAPC  H10S 5748   6.416   6.631   7.006  2.3648 -0.1915 -2.9014
   68SAPC  C211 5749   6.465   6.713   7.198  0.3403 -0.3986 -0.2252
   68SAPC  H11R 5750   6.486   6.809   7.247  1.5674 -0.5005 -0.5336
   68SAPC  C212 5751   6.427   6.601   7.268  0.0031  0.0650  0.1950
   68SAPC  H12R 5752   6.426   6.611   7.377 -1.4784 -1.0543  0.3157
   68SAPC  C213 5753   6.386   6.462   7.217 -0.1818 -0.3520  0.4286
   68SAPC  H13R 5754   6.400   6.379   7.290  0.2119  2.3188  3.6039
   68SAPC  H13S 5755   6.456   6.439   7.134  0.8345  1.3511  0.7599
   68SAPC  C214 5756   6.246   6.467   7.170 -0.3192  0.7461  0.6691
   68SAPC  H14R 5757   6.200   6.567   7.175 -1.8917  0.1170 -0.3598
   68SAPC  C215 5758   6.175   6.370   7.109 -0.4883 -0.6898 -0.2305
   68SAPC  H15R 5759   6.073   6.403   7.085  0.7346  1.2818 -3.5692
   68SAPC  C216 5760   6.224   6.231   7.081 -0.1600 -0.2607  0.8627
   68SAPC  H16R 5761   6.158   6.152   7.122 -0.2973 -0.3364  0.5001
   68SAPC  H16S 5762   6.329   6.216   7.112  1.0714  2.0829 -1.7258
   68SAPC  C217 5763   6.240   6.212   6.928 -0.7408 -0.2010  0.8779
   68SAPC  H17R 5764   6.295   6.116   6.912 -2.3817 -1.1944  0.9253
   68SAPC  H17S 5765   6.302   6.291   6.882  0.2665 -0.4809  1.7005
   68SAPC  C218 5766   6.106   6.215   6.853  0.5063 -0.4497  0.4184
   68SAPC  H18R 5767   6.049   6.309   6.873  1.5722  0.0874  1.0508
   68SAPC  H18S 5768   6.055   6.121   6.882 -0.3979  0.2502  1.1932
   68SAPC  C219 5769   6.107   6.215   6.697 -0.5160 -0.1668 -0.4933
   68SAPC  H19R 5770   6.189   6.150   6.660 -0.7986 -0.2073 -1.0598
   68SAPC  H19S 5771   6.149   6.314   6.668  2.3673 -0.7251  1.3245
   68SAPC  C220 5772   5.973   6.198   6.628  0.4687  0.2455 -0.5795
   68SAPC  H20R 5773   5.904   6.268   6.679  2.6890  1.0333  1.5020
   68SAPC  H20S 5774   5.946   6.093   6.654 -0.7113  0.9493  1.2013
   68SAPC  H20T 5775   5.986   6.222   6.520  0.9172 -0.2022 -0.6293
   68SAPC   C33 5776   6.677   6.356   6.719  0.5829 -0.3747 -0.6040
   68SAPC   H3X 5777   6.685   6.463   6.688 -0.9893  1.3107  3.9549
   68SAPC   H3Y 5778   6.761   6.302   6.672 -0.0338 -1.8056 -0.1047
   68SAPC   C34 5779   6.678   6.363   6.870  0.3390 -0.0155  0.1133
   68SAPC   H4X 5780   6.709   6.260   6.898 -1.2899 -1.1416 -1.8957
   68SAPC   H4Y 5781   6.574   6.384   6.903 -0.7379 -1.3896 -2.1529
   68SAPC   C35 5782   6.787   6.466   6.916 -0.2173  0.0806  0.3020
   68SAPC   H5X 5783   6.750   6.566   6.884  2.1895  1.5796  1.9059
   68SAPC   H5Y 5784   6.882   6.435   6.869 -1.5455 -1.2257 -1.7084
   68SAPC   C36 5785   6.796   6.477   7.065  0.2979 -0.0060  0.1072
   68SAPC   H6X 5786   6.826   6.374   7.091 -1.3976 -0.3290  0.9298
   68SAPC   H6Y 5787   6.698   6.500   7.114  1.0390  0.3100  1.4953
   68SAPC   C37 5788   6.902   6.583   7.116  0.4498  0.3515  0.4020
   68SAPC   H7X 5789   6.867   6.687   7.095 -0.5975 -0.3499 -1.5774
   68SAPC   H7Y 5790   6.998   6.575   7.061  0.4070 -0.6017  0.4494
   68SAPC   C38 5791   6.926   6.588   7.272 -0.2194  0.0641 -0.1244
   68SAPC   H8X 5792   6.991   6.676   7.295 -0.9652  0.9290 -1.2353
   68SAPC   H8Y 5793   6.966   6.491   7.309  0.9235 -0.4451 -2.4752
   68SAPC   C39 5794   6.800   6.618   7.350  0.2239  0.1969  0.3980
   68SAPC   H9X 5795   6.709   6.575   7.304  0.0416  1.5428 -0.5674
   68SAPC   H9Y 5796   6.789   6.729   7.343  1.0814  0.3312  1.0526
   68SAPC  C310 5797   6.803   6.595   7.502 -0.5812  0.1190 -0.4323
   68SAPC  H10X 5798   6.846   6.496   7.526  1.8441  0.5426 -2.5321
   68SAPC  H10Y 5799   6.700   6.586   7.542 -1.0640  1.1962 -1.3920
   68SAPC  C311 5800   6.895   6.701   7.576 -0.4631 -0.2100  0.6395
   68SAPC  H11X 5801   6.861   6.806   7.565  2.9415  0.9218 -0.1927
   68SAPC  H11Y 5802   6.992   6.720   7.526 -1.5431  3.0839 -0.4970
   68SAPC  C312 5803   6.911   6.688   7.726 -0.1115 -0.4863  0.3735
   68SAPC  H12X 5804   6.972   6.599   7.752  1.9754  0.8056  0.1424
   68SAPC  H12Y 5805   6.805   6.679   7.759 -0.0412 -1.4346  0.3681
   68SAPC  C313 5806   6.978   6.803   7.799 -0.2388  0.1952  0.0883
   68SAPC  H13X 5807   6.921   6.898   7.789 -1.1763 -0.1234  1.9602
   68SAPC  H13Y 5808   7.084   6.821   7.770 -0.8038  2.4001 -0.8310
   68SAPC  C314 5809   6.999   6.774   7.949 -0.1811 -0.5451  0.3373
   68SAPC  H14X 5810   7.057   6.681   7.965  0.3363 -0.1146  1.0329
   68SAPC  H14Y 5811   6.896   6.760   7.989  0.0056  0.0095  1.0316
   68SAPC  C315 5812   7.055   6.900   8.015  0.2043  0.9069  0.5808
   68SAPC  H15X 5813   6.984   6.982   7.993 -0.4419  0.1282 -0.2661
   68SAPC  H15Y 5814   7.155   6.926   7.973 -0.2085  1.9590  0.2053
   68SAPC  C316 5815   7.070   6.893   8.165 -0.3669  0.6766  0.7115
   68SAPC  H16X 5816   7.141   6.809   8.179  0.5234  0.9524 -1.6550
   68SAPC  H16Y 5817   6.971   6.866   8.209  0.1710 -2.9119  0.0516
   68SAPC  C317 5818   7.133   7.018   8.227 -0.1240  0.0880  0.1153
   68SAPC  H17X 5819   7.211   7.038   8.151  0.5581  0.3598  0.8753
   68SAPC  H17Y 5820   7.182   6.993   8.324 -0.2266 -1.0551 -0.1179
   68SAPC  C318 5821   7.048   7.141   8.258 -0.2499 -0.0506 -0.1070
   68SAPC  H18X 5822   6.970   7.152   8.180 -0.6779 -0.7225  0.2112
   68SAPC  H18Y 5823   7.106   7.235   8.252  0.9251 -0.4903  2.7559
   68SAPC  H18Z 5824   6.992   7.128   8.353 -0.1637 -0.5064 -0.1148
   69SLPC     N 5825   2.737   4.781  11.042 -0.0672 -0.8260  0.4951
   69SLPC   C13 5826   2.840   4.724  11.138  0.7365  0.3219  0.5596
   69SLPC  H13A 5827   2.927   4.685  11.087  0.8802 -1.3974  2.0342
   69SLPC  H13B 5828   2.873   4.803  11.204  0.7803  2.1409 -1.5261
   69SLPC  H13C 5829   2.799   4.641  11.193 -1.2583  0.4704 -0.5947
   69SLPC   C14 5830   2.799   4.900  10.968 -0.4795 -0.4074  0.2288
   69SLPC  H14A 5831   2.807   4.983  11.037 -0.7952 -0.7955  0.7425
   69SLPC  H14B 5832   2.893   4.867  10.925 -0.0811  0.3177  0.5305
   69SLPC  H14C 5833   2.736   4.939  10.890  0.1177  0.9141  0.3915
   69SLPC   C15 5834   2.619   4.827  11.119  0.4751 -0.1868 -0.7037
   69SLPC  H15A 5835   2.645   4.910  11.183 -1.1871  0.0692 -0.3082
   69SLPC  H15B 5836   2.543   4.867  11.053 -0.7726 -1.8183 -0.3221
   69SLPC  H15C 5837   2.580   4.745  11.177  2.6556 -0.8535 -0.1076
   69SLPC   C12 5838   2.694   4.677  10.938  0.2377 -0.2556  0.8608
   69SLPC  H12A 5839   2.661   4.590  10.992  0.0237 -0.7219 -0.0057
   69SLPC  H12B 5840   2.785   4.654  10.884 -0.0628  0.0407  0.2178
   69SLPC   C11 5841   2.579   4.716  10.836 -0.2459  1.1268  0.5794
   69SLPC  H11A 5842   2.579   4.634  10.760  0.8527 -1.7983  3.4830
   69SLPC  H11B 5843   2.610   4.807  10.779  3.1587 -1.1938 -1.7225
   69SLPC     P 5844   2.325   4.657  10.848 -0.1966  0.0800  0.0362
   69SLPC   O13 5845   2.313   4.535  10.932  0.0297  0.4269 -0.3321
   69SLPC   O14 5846   2.203   4.749  10.865 -0.2865  0.3774  0.0251
   69SLPC   O12 5847   2.453   4.746  10.889  0.1179  0.4003  0.4054
   69SLPC   O11 5848   2.344   4.623  10.692  0.2884  0.4044 -0.4964
   69SLPC    C1 5849   2.289   4.495  10.641 -0.9166  0.3983 -0.6942
   69SLPC    HA 5850   2.372   4.423  10.626 -0.9864 -0.8850  3.6716
   69SLPC    HB 5851   2.232   4.440  10.718 -1.0985  0.1920 -0.9751
   69SLPC    C2 5852   2.207   4.510  10.516 -0.3027 -0.0155  0.0361
   69SLPC    HS 5853   2.183   4.407  10.480 -0.4488  0.1876 -0.4540
   69SLPC   O21 5854   2.292   4.570  10.414 -0.1262 -0.3010  0.1494
   69SLPC   C21 5855   2.363   4.483  10.342  0.1268  0.1696  0.0545
   69SLPC   O22 5856   2.360   4.366  10.366  0.7726  0.6255  0.2068
   69SLPC   C22 5857   2.436   4.542  10.223 -0.1431  0.4622 -1.0815
   69SLPC   H2R 5858   2.451   4.652  10.222  3.7467  0.0693 -2.2702
   69SLPC   H2S 5859   2.537   4.498  10.233  0.0231  1.2310  1.1905
   69SLPC    C3 5860   2.089   4.608  10.537  0.4450  0.9927  0.2125
   69SLPC    HX 5861   2.119   4.703  10.586 -0.7854  1.8794 -0.6940
   69SLPC    HY 5862   2.020   4.570  10.615  0.0998  0.0933 -0.5177
   69SLPC   O31 5863   2.012   4.626  10.417 -0.0650 -0.2620  0.5423
   69SLPC   C31 5864   1.932   4.517  10.391  0.1101 -0.4204 -0.1367
   69SLPC   O32 5865   1.925   4.423  10.467  0.2071 -0.3188 -0.1848
   69SLPC   C32 5866   1.888   4.523  10.245  0.2933  0.1128 -0.5403
   69SLPC   H2X 5867   1.939   4.606  10.193  0.1110 -0.1419 -1.1363
   69SLPC   H2Y 5868   1.779   4.545  10.254  0.4266  0.8043 -0.5959
   69SLPC   C23 5869   2.378   4.505  10.094  0.3321 -0.0415 -0.4788
   69SLPC   H3R 5870   2.273   4.542  10.091 -0.4783 -2.2098 -2.0378
   69SLPC   H3S 5871   2.378   4.395  10.079  0.8889 -0.0586 -0.3612
   69SLPC   C24 5872   2.461   4.582   9.987  0.3434 -0.0150 -0.1702
   69SLPC   H4R 5873   2.563   4.538   9.981  1.3754  2.2184 -0.1126
   69SLPC   H4S 5874   2.468   4.690  10.015  1.1371 -0.1364  0.1292
   69SLPC   C25 5875   2.407   4.572   9.848  0.2111 -0.2126 -0.1054
   69SLPC   H5R 5876   2.300   4.602   9.846 -0.6018 -2.3969  3.1342
   69SLPC   H5S 5877   2.407   4.465   9.816 -1.5825 -0.6020  1.0080
   69SLPC   C26 5878   2.500   4.661   9.759 -0.3968  0.4074 -0.1916
   69SLPC   H6R 5879   2.608   4.637   9.765 -0.1737  1.2117 -0.7968
   69SLPC   H6S 5880   2.491   4.767   9.792 -1.2727 -0.1629  1.5248
   69SLPC   C27 5881   2.461   4.661   9.606  0.7289 -0.2324 -0.4641
   69SLPC   H7R 5882   2.357   4.699   9.603  0.6880 -0.1286  1.4458
   69SLPC   H7S 5883   2.460   4.559   9.562  1.5754  0.2126 -1.5617
   69SLPC   C28 5884   2.555   4.748   9.519 -0.0958  0.1961  0.3805
   69SLPC   H8R 5885   2.659   4.710   9.520  0.3161  1.2805  0.2312
   69SLPC   H8S 5886   2.549   4.856   9.543 -0.4317  0.9526 -2.6602
   69SLPC   C29 5887   2.498   4.738   9.380 -0.2235 -0.7674  0.8882
   69SLPC   H9R 5888   2.404   4.795   9.368  1.4237  1.7383 -1.0752
   69SLPC  C210 5889   2.556   4.683   9.267  0.2084 -0.5436 -0.5433
   69SLPC  H10R 5890   2.498   4.684   9.173 -0.6290  0.6120 -0.0263
   69SLPC  C211 5891   2.695   4.613   9.262  0.5374  0.6404 -0.0766
   69SLPC  H11R 5892   2.737   4.574   9.357 -0.8994  0.1871  0.3942
   69SLPC  H11S 5893   2.768   4.687   9.224  2.2545 -0.5082  0.8215
   69SLPC  C212 5894   2.693   4.488   9.170  0.6161 -0.3475 -0.2163
   69SLPC  H12R 5895   2.636   4.398   9.197 -1.6840 -0.0927 -3.6368
   69SLPC  C213 5896   2.714   4.486   9.043 -0.2946  0.1216  0.3602
   69SLPC  H13R 5897   2.683   4.390   9.001 -1.8075  0.7165  0.0500
   69SLPC  C214 5898   2.757   4.592   8.944 -0.6435  0.7175 -0.0851
   69SLPC  H14R 5899   2.857   4.575   8.900  0.1340  0.6328  1.6190
   69SLPC  H14S 5900   2.772   4.691   8.993 -0.0299  0.0650  1.0854
   69SLPC  C215 5901   2.654   4.616   8.827  1.0854 -0.0323  0.4900
   69SLPC  H15R 5902   2.563   4.557   8.850  0.8251  0.6881  1.3919
   69SLPC  H15S 5903   2.697   4.588   8.728 -1.4249 -1.1198 -0.3776
   69SLPC  C216 5904   2.612   4.768   8.822  0.5821 -0.3875 -0.4141
   69SLPC  H16R 5905   2.701   4.829   8.795  0.0079  0.3658 -0.6555
   69SLPC  H16S 5906   2.580   4.799   8.924 -1.2425  1.6171 -1.5044
   69SLPC  C217 5907   2.512   4.796   8.708  0.1709  0.4815 -0.1107
   69SLPC  H17R 5908   2.415   4.748   8.735  0.0836  0.3113 -0.7183
   69SLPC  H17S 5909   2.555   4.745   8.619  2.2792  0.6878  0.7187
   69SLPC  C218 5910   2.482   4.947   8.676 -0.0664  1.2228  0.2870
   69SLPC  H18R 5911   2.566   5.016   8.652  0.3041  1.1450  1.3341
   69SLPC  H18S 5912   2.420   4.981   8.762  0.4568  0.9085  0.7895
   69SLPC  H18T 5913   2.409   4.954   8.593  1.9355  0.3406 -1.6416
   69SLPC   C33 5914   1.895   4.384  10.171  0.0164 -0.2136  0.1381
   69SLPC   H3X 5915   1.835   4.314  10.233 -0.5776  1.7851  1.9467
   69SLPC   H3Y 5916   2.005   4.367  10.173  0.3562  1.4936 -1.3650
   69SLPC   C34 5917   1.856   4.374  10.025 -0.3523  0.5963  0.4441
   69SLPC   H4X 5918   1.752   4.410  10.009 -0.4949 -0.4354 -1.2589
   69SLPC   H4Y 5919   1.858   4.274   9.977  0.3572  0.8320 -0.0443
   69SLPC   C35 5920   1.942   4.471   9.935  0.0340  0.0702 -0.2138
   69SLPC   H5X 5921   2.050   4.449   9.946  0.4726  2.9762  2.6945
   69SLPC   H5Y 5922   1.929   4.568   9.987 -1.3564 -0.4680  0.4945
   69SLPC   C36 5923   1.904   4.474   9.788  0.0118  0.0139  0.4314
   69SLPC   H6X 5924   1.962   4.556   9.741  1.3714 -0.8707  0.4978
   69SLPC   H6Y 5925   1.800   4.510   9.781  0.0858  0.7589  2.4149
   69SLPC   C37 5926   1.918   4.348   9.698  0.0387  0.2976  0.5741
   69SLPC   H7X 5927   1.844   4.274   9.737  0.7036  0.3015  1.8897
   69SLPC   H7Y 5928   2.020   4.308   9.715 -0.5385 -1.3288  0.4119
   69SLPC   C38 5929   1.890   4.368   9.540  0.3238  0.0005 -0.4159
   69SLPC   H8X 5930   1.910   4.476   9.526 -3.7966  1.2100  1.2185
   69SLPC   H8Y 5931   1.781   4.358   9.520  0.2040  3.2778 -2.0308
   69SLPC   C39 5932   1.961   4.270   9.449 -0.6040  0.1563  0.4549
   69SLPC   H9X 5933   1.922   4.169   9.475  1.2333 -1.2599 -1.8709
   69SLPC   H9Y 5934   2.071   4.280   9.461 -0.3667 -1.0203 -0.5418
   69SLPC  C310 5935   1.937   4.292   9.292  0.8567 -0.0055  0.2592
   69SLPC  H10X 5936   1.956   4.399   9.269 -0.1232  0.2710  0.6606
   69SLPC  H10Y 5937   1.827   4.279   9.279  1.0459 -1.7433  0.2525
   69SLPC  C311 5938   2.020   4.202   9.200 -0.7425  0.6386  0.2082
   69SLPC  H11X 5939   2.064   4.123   9.265  1.1502  3.0953  2.0832
   69SLPC  H11Y 5940   2.105   4.262   9.161  0.0567 -1.5307 -1.6729
   69SLPC  C312 5941   1.957   4.142   9.072  0.5327 -0.0824  0.1717
   69SLPC  H12X 5942   1.884   4.065   9.105 -0.0417  0.9175  1.3184
   69SLPC  H12Y 5943   2.033   4.085   9.014 -1.2002 -1.8116 -0.5146
   69SLPC  C313 5944   1.894   4.254   8.982  0.5017 -0.2740 -0.2241
   69SLPC  H13X 5945   1.977   4.326   8.965  0.0428  0.4243  0.4503
   69SLPC  H13Y 5946   1.808   4.286   9.044  1.2643 -1.6257  1.6519
   69SLPC  C314 5947   1.844   4.195   8.844  0.1164 -0.8070 -0.4007
   69SLPC  H14X 5948   1.758   4.129   8.866 -0.3571  1.2270  5.5112
   69SLPC  H14Y 5949   1.928   4.129   8.812  0.0283 -0.6718 -0.9231
   69SLPC  C315 5950   1.817   4.305   8.741 -0.0734 -0.0254 -0.1190
   69SLPC  H15X 5951   1.918   4.349   8.724  0.5313 -2.0080 -2.2373
   69SLPC  H15Y 5952   1.749   4.384   8.778 -0.1104 -0.4086  0.6496
   69SLPC  C316 5953   1.767   4.246   8.604  0.3328 -0.1342  0.2145
   69SLPC  H16X 5954   1.696   4.164   8.626 -1.3734  1.0853 -0.5745
   69SLPC  H16Y 5955   1.863   4.202   8.569 -0.2707 -2.0453  0.8713
   69SLPC  C317 5956   1.705   4.346   8.506  0.4786 -0.2061 -0.1378
   69SLPC  H17X 5957   1.620   4.393   8.560 -1.7589 -0.6456 -3.0313
   69SLPC  H17Y 5958   1.652   4.281   8.433 -0.2146  1.6915 -1.4160
   69SLPC  C318 5959   1.802   4.446   8.444 -0.7013  0.3051  0.2080
   69SLPC  H18X 5960   1.847   4.503   8.528 -0.5850  1.5090 -0.6631
   69SLPC  H18Y 5961   1.763   4.521   8.372 -0.2668 -0.5865 -0.9799
   69SLPC  H18Z 5962   1.873   4.388   8.382  0.1163  2.0683 -0.5525
   70SLPC     N 5963   3.905   6.243  10.977  0.4956 -0.6806 -0.0808
   70SLPC   C13 5964   3.759   6.228  10.942  0.5050 -0.8148  0.4980
   70SLPC  H13A 5965   3.749   6.156  10.863  1.0578 -1.2131  0.7903
   70SLPC  H13B 5966   3.707   6.200  11.033 -2.6669 -1.2823 -1.3061
   70SLPC  H13C 5967   3.722   6.322  10.902  0.8251 -1.6531 -1.8794
   70SLPC   C14 5968   3.960   6.111  11.028  0.5374 -0.2508 -0.5410
   70SLPC  H14A 5969   3.927   6.091  11.129 -0.0182 -1.4597 -0.9470
   70SLPC  H14B 5970   3.939   6.023  10.970 -1.8612  0.6363 -1.1041
   70SLPC  H14C 5971   4.066   6.125  11.043  0.6110 -0.5456 -0.7987
   70SLPC   C15 5972   3.909   6.341  11.090 -0.8950  0.1184  0.2727
   70SLPC  H15A 5973   3.874   6.292  11.179  0.3712  0.0897  0.7748
   70SLPC  H15B 5974   4.012   6.368  11.111 -0.7676 -0.9160  1.0485
   70SLPC  H15C 5975   3.855   6.434  11.076  1.6761  1.6335 -0.3299
   70SLPC   C12 5976   3.967   6.316  10.861  0.4720 -0.5519  0.0659
   70SLPC  H12A 5977   4.063   6.357  10.889 -0.9042  3.1125 -0.0786
   70SLPC  H12B 5978   3.909   6.404  10.835 -0.3447 -1.4622 -1.3311
   70SLPC   C11 5979   3.991   6.247  10.727 -0.0948 -0.2417 -0.2237
   70SLPC  H11A 5980   3.991   6.337  10.662 -3.2914 -0.3287 -0.4592
   70SLPC  H11B 5981   3.908   6.180  10.696  1.9606 -3.9358  1.5895
   70SLPC     P 5982   4.139   6.026  10.716 -0.1957 -0.1715  0.4162
   70SLPC   O13 5983   4.221   5.968  10.818  0.0996 -0.2915 -0.0979
   70SLPC   O14 5984   4.005   5.961  10.690 -0.1218 -0.0402  1.0719
   70SLPC   O12 5985   4.122   6.183  10.733 -0.1501 -0.3340 -0.1097
   70SLPC   O11 5986   4.221   6.010  10.575 -0.6697  0.3249  0.2360
   70SLPC    C1 5987   4.197   6.115  10.486  0.8282  0.3581  0.1450
   70SLPC    HA 5988   4.088   6.116  10.462  0.9181 -1.5964 -0.5863
   70SLPC    HB 5989   4.230   6.217  10.515  3.1242 -0.4384  0.5196
   70SLPC    C2 5990   4.253   6.074  10.348  0.4677  0.2128 -0.1722
   70SLPC    HS 5991   4.360   6.104  10.352  0.7936 -0.9179 -0.0667
   70SLPC   O21 5992   4.179   6.153  10.247  0.0793  0.0058 -0.0935
   70SLPC   C21 5993   4.258   6.213  10.164  0.6640 -0.4552  0.5074
   70SLPC   O22 5994   4.377   6.220  10.168  0.0264 -0.5681 -0.1341
   70SLPC   C22 5995   4.189   6.273  10.050 -0.1124  0.5766  0.4262
   70SLPC   H2R 5996   4.095   6.315  10.092  0.1717  0.5067  1.1426
   70SLPC   H2S 5997   4.244   6.360  10.010 -2.3877  1.7429 -0.3842
   70SLPC    C3 5998   4.240   5.926  10.305  0.3376 -0.3087 -0.3720
   70SLPC    HX 5999   4.134   5.897  10.314  0.6009 -1.0996  0.2377
   70SLPC    HY 6000   4.306   5.873  10.377  0.5186  0.3802 -0.0181
   70SLPC   O31 6001   4.272   5.911  10.171  0.0845 -0.5990  1.0208
   70SLPC   C31 6002   4.405   5.901  10.132  0.1972  0.8206 -0.1141
   70SLPC   O32 6003   4.492   5.882  10.209 -0.3322 -0.2052 -0.1836
   70SLPC   C32 6004   4.428   5.912   9.982  0.2256 -0.5465 -0.6515
   70SLPC   H2X 6005   4.374   6.006   9.958 -3.3013 -2.7575 -2.3689
   70SLPC   H2Y 6006   4.368   5.830   9.936 -1.9598  0.5540  0.0642
   70SLPC   C23 6007   4.153   6.170   9.930  0.7907  0.2587 -0.5929
   70SLPC   H3R 6008   4.100   6.084   9.976 -0.5228  0.8337 -0.9585
   70SLPC   H3S 6009   4.244   6.140   9.874  1.6789  1.5959  0.0887
   70SLPC   C24 6010   4.038   6.212   9.837 -0.9735 -0.8149  0.0543
   70SLPC   H4R 6011   3.953   6.249   9.898 -1.4334 -0.1354 -0.9725
   70SLPC   H4S 6012   3.999   6.122   9.784 -0.6929 -0.8120 -0.1554
   70SLPC   C25 6013   4.085   6.318   9.732 -0.2636  0.6904 -0.7041
   70SLPC   H5R 6014   4.129   6.405   9.786  0.0436  0.8881 -1.2661
   70SLPC   H5S 6015   3.995   6.358   9.682 -0.1179  1.5469 -0.3009
   70SLPC   C26 6016   4.193   6.262   9.637  0.7373 -0.2658 -0.6757
   70SLPC   H6R 6017   4.284   6.226   9.689  0.2655 -1.0851 -0.3980
   70SLPC   H6S 6018   4.219   6.350   9.574 -0.9038  1.1901  0.5812
   70SLPC   C27 6019   4.139   6.151   9.549 -0.0748  0.1527 -0.1274
   70SLPC   H7R 6020   4.029   6.164   9.549 -0.5687 -3.1841  0.4218
   70SLPC   H7S 6021   4.157   6.063   9.614  1.4727  0.8919  0.5021
   70SLPC   C28 6022   4.194   6.133   9.402 -0.1826 -0.8298 -0.3186
   70SLPC   H8R 6023   4.150   6.033   9.386 -0.8224 -0.3666 -1.6054
   70SLPC   H8S 6024   4.301   6.106   9.410 -0.7819 -3.7602 -1.0511
   70SLPC   C29 6025   4.166   6.230   9.291  0.0304  0.0695 -0.2401
   70SLPC   H9R 6026   4.180   6.330   9.335 -0.1210  0.6601 -1.4805
   70SLPC  C210 6027   4.136   6.210   9.165  0.3433  0.3605 -0.4975
   70SLPC  H10R 6028   4.117   6.298   9.102  0.1639 -0.7465 -2.0515
   70SLPC  C211 6029   4.115   6.084   9.084 -0.4538  0.0949 -0.2796
   70SLPC  H11R 6030   4.067   6.014   9.156  0.1467  2.3893  2.5575
   70SLPC  H11S 6031   4.220   6.051   9.066 -0.1410  1.8573 -2.0275
   70SLPC  C212 6032   4.037   6.093   8.957 -0.1492 -0.1788 -0.3530
   70SLPC  H12R 6033   3.929   6.081   8.971 -0.0674  0.1328  0.5991
   70SLPC  C213 6034   4.088   6.138   8.845 -0.0617  0.3382  0.8580
   70SLPC  H13R 6035   4.029   6.140   8.752  1.1807  0.6910  0.0565
   70SLPC  C214 6036   4.236   6.161   8.812 -0.6034 -0.8196 -0.3989
   70SLPC  H14R 6037   4.264   6.093   8.728  0.7248 -1.6274  0.6554
   70SLPC  H14S 6038   4.300   6.132   8.899  2.2244  1.6588 -1.4899
   70SLPC  C215 6039   4.261   6.312   8.775 -1.0381 -0.2001  0.2620
   70SLPC  H15R 6040   4.227   6.382   8.854  0.6123  0.5482  0.3618
   70SLPC  H15S 6041   4.190   6.319   8.690 -1.6021 -0.4930  0.7022
   70SLPC  C216 6042   4.404   6.354   8.732 -0.3150  0.3392 -0.0581
   70SLPC  H16R 6043   4.445   6.285   8.655 -3.2216 -1.7713  0.0906
   70SLPC  H16S 6044   4.462   6.339   8.825 -3.7617 -1.4861  2.0401
   70SLPC  C217 6045   4.410   6.493   8.670  0.4442 -0.4598  0.2603
   70SLPC  H17R 6046   4.321   6.551   8.703 -0.5193 -0.6185 -1.8784
   70SLPC  H17S 6047   4.373   6.489   8.565 -1.5875 -2.3399  0.9771
   70SLPC  C218 6048   4.545   6.572   8.681  0.2537  0.3917 -0.3751
   70SLPC  H18R 6049   4.514   6.678   8.692  3.4392  1.4379 -0.3990
   70SLPC  H18S 6050   4.616   6.558   8.597 -0.5551  2.7881 -1.5336
   70SLPC  H18T 6051   4.587   6.543   8.780  0.4540  0.5308 -0.4189
   70SLPC   C33 6052   4.582   5.908   9.948 -0.0131  0.3032  0.8556
   70SLPC   H3X 6053   4.625   5.807   9.962 -1.3026 -0.2036  1.3852
   70SLPC   H3Y 6054   4.636   5.981  10.011  0.3297 -0.4862  1.5045
   70SLPC   C34 6055   4.600   5.946   9.798 -0.2782 -0.3195 -0.0844
   70SLPC   H4X 6056   4.705   5.968   9.767 -0.6570  1.9759  0.0765
   70SLPC   H4Y 6057   4.543   6.036   9.768 -0.4693  0.4129  2.2993
   70SLPC   C35 6058   4.546   5.840   9.696 -0.7174  0.0085 -0.4460
   70SLPC   H5X 6059   4.576   5.740   9.732 -1.1205  0.2967  0.7383
   70SLPC   H5Y 6060   4.596   5.844   9.597 -1.0507 -0.6877 -0.6518
   70SLPC   C36 6061   4.401   5.853   9.660  0.1984 -0.4913  0.2140
   70SLPC   H6X 6062   4.372   5.955   9.624  0.0425 -0.2754  0.9467
   70SLPC   H6Y 6063   4.343   5.850   9.754 -0.4952  0.3028 -0.1700
   70SLPC   C37 6064   4.363   5.734   9.565 -0.3293  0.5640 -0.5704
   70SLPC   H7X 6065   4.254   5.741   9.586 -0.1882 -1.7700  1.2295
   70SLPC   H7Y 6066   4.404   5.636   9.596  0.7211  0.9599 -0.6764
   70SLPC   C38 6067   4.397   5.762   9.421 -1.1085 -0.4647 -0.0833
   70SLPC   H8X 6068   4.500   5.736   9.387 -0.2991 -0.6898  2.2917
   70SLPC   H8Y 6069   4.406   5.872   9.410 -2.2890 -0.5535 -2.5594
   70SLPC   C39 6070   4.283   5.712   9.331  0.2491  0.5273  0.3118
   70SLPC   H9X 6071   4.192   5.767   9.364 -1.2632  1.0845 -4.1422
   70SLPC   H9Y 6072   4.260   5.603   9.334  0.4264  0.4593 -0.4927
   70SLPC  C310 6073   4.297   5.751   9.178  0.0781  0.1164 -0.3541
   70SLPC  H10X 6074   4.392   5.709   9.137 -0.4905 -0.8521 -0.7108
   70SLPC  H10Y 6075   4.286   5.859   9.155 -0.2142  0.0174 -0.6814
   70SLPC  C311 6076   4.190   5.673   9.097 -0.2993  0.1914  0.2338
   70SLPC  H11X 6077   4.089   5.702   9.131 -0.4784  0.0420 -0.1669
   70SLPC  H11Y 6078   4.210   5.567   9.123  1.6207  0.2985 -0.5875
   70SLPC  C312 6079   4.208   5.705   8.947 -0.1879 -0.0995 -0.3345
   70SLPC  H12X 6080   4.312   5.715   8.910 -0.1914 -0.6478 -0.5132
   70SLPC  H12Y 6081   4.145   5.796   8.937  1.4304  1.1030 -0.0221
   70SLPC  C313 6082   4.130   5.601   8.860 -0.1097  0.2264 -0.4539
   70SLPC  H13X 6083   4.030   5.581   8.902 -0.0027 -1.9383 -1.0888
   70SLPC  H13Y 6084   4.175   5.500   8.868 -0.4464 -0.1541 -2.7067
   70SLPC  C314 6085   4.122   5.624   8.714  0.8003 -0.0708  0.3673
   70SLPC  H14X 6086   4.217   5.637   8.658 -0.8054  2.5616 -1.9690
   70SLPC  H14Y 6087   4.073   5.722   8.702 -0.3591 -0.6114  0.5311
   70SLPC  C315 6088   4.034   5.521   8.643 -0.2110  0.1620  0.8522
   70SLPC  H15X 6089   4.069   5.417   8.660  0.6104  0.2613 -0.0628
   70SLPC  H15Y 6090   4.049   5.533   8.533 -0.5995  1.2513  0.9077
   70SLPC  C316 6091   3.885   5.528   8.676 -0.2695  0.2637 -0.4176
   70SLPC  H16X 6092   3.848   5.633   8.673 -1.1103  0.0181  0.8928
   70SLPC  H16Y 6093   3.866   5.499   8.781 -1.3514 -0.8005 -0.8782
   70SLPC  C317 6094   3.791   5.435   8.590 -0.7527  0.1996 -0.5665
   70SLPC  H17X 6095   3.783   5.476   8.487  1.7226  0.2405 -0.7893
   70SLPC  H17Y 6096   3.693   5.426   8.642 -0.7244 -0.0688 -0.5569
   70SLPC  C318 6097   3.848   5.296   8.582  0.4261  0.0897  0.0981
   70SLPC  H18X 6098   3.770   5.217   8.576  2.0775 -1.7198  1.1288
   70SLPC  H18Y 6099   3.887   5.270   8.683 -0.5203  0.2354  0.5151
   70SLPC  H18Z 6100   3.932   5.285   8.510  0.6343 -0.6233  0.4354
   71SLPC     N 6101   3.984   1.132  10.888  0.7402  0.8571 -0.3131
   71SLPC   C13 6102   4.042   1.270  10.880 -0.3740 -0.6388 -0.8297
   71SLPC  H13A 6103   3.980   1.330  10.815 -1.1267  0.2007  0.6157
   71SLPC  H13B 6104   4.045   1.324  10.973  0.7602 -2.1167  0.0427
   71SLPC  H13C 6105   4.144   1.272  10.842 -0.4955 -1.3332 -1.2121
   71SLPC   C14 6106   3.853   1.137  10.960 -0.3840  0.3275 -0.2439
   71SLPC  H14A 6107   3.792   1.219  10.925 -0.1958  0.4831 -0.2046
   71SLPC  H14B 6108   3.803   1.046  10.930  0.8639 -0.0197 -1.3634
   71SLPC  H14C 6109   3.867   1.135  11.067 -1.2521 -2.4924 -0.1048
   71SLPC   C15 6110   4.090   1.055  10.957  0.0570 -0.3068 -0.1540
   71SLPC  H15A 6111   4.086   0.948  10.945  1.6020 -0.5121  0.7981
   71SLPC  H15B 6112   4.182   1.077  10.906 -0.8882 -0.2040 -1.8943
   71SLPC  H15C 6113   4.084   1.081  11.062 -2.8521  0.2456 -0.3767
   71SLPC   C12 6114   3.975   1.075  10.749 -0.0562  0.3311 -0.1464
   71SLPC  H12A 6115   3.962   0.967  10.750  3.0336 -0.3499 -4.3884
   71SLPC  H12B 6116   4.067   1.084  10.693  0.3537  0.7817  0.5920
   71SLPC   C11 6117   3.854   1.125  10.657 -1.5978 -0.2382 -0.0159
   71SLPC  H11A 6118   3.867   1.096  10.551 -2.9771 -0.6609 -0.0896
   71SLPC  H11B 6119   3.845   1.235  10.669 -0.4873 -0.3424  2.5904
   71SLPC     P 6120   3.702   0.912  10.670 -0.1350 -0.1995  0.0309
   71SLPC   O13 6121   3.822   0.833  10.682 -0.6147  0.3452  0.3176
   71SLPC   O14 6122   3.586   0.886  10.755  0.0848  0.3388 -0.3118
   71SLPC   O12 6123   3.731   1.069  10.698  0.0267  0.0340  0.7746
   71SLPC   O11 6124   3.661   0.898  10.513  0.8266 -0.2965  0.2321
   71SLPC    C1 6125   3.620   1.010  10.439  0.0775  0.5535 -0.5106
   71SLPC    HA 6126   3.509   1.010  10.434  0.0712 -0.9028 -0.6384
   71SLPC    HB 6127   3.656   1.108  10.478  0.1728  0.1753  0.3885
   71SLPC    C2 6128   3.673   0.987  10.291  0.1131 -0.0330 -0.2777
   71SLPC    HS 6129   3.699   1.086  10.249 -0.0890 -0.3839 -1.2562
   71SLPC   O21 6130   3.581   0.924  10.208  0.0342  0.3651  0.0214
   71SLPC   C21 6131   3.469   0.982  10.178  0.0359  0.1688 -0.1517
   71SLPC   O22 6132   3.430   1.091  10.211 -0.2549 -0.2034 -0.3754
   71SLPC   C22 6133   3.410   0.905  10.065  0.6552  0.4573  0.4083
   71SLPC   H2R 6134   3.401   0.797  10.094  2.4860 -0.2778 -1.5376
   71SLPC   H2S 6135   3.309   0.942  10.038  0.8056  1.2996  0.9659
   71SLPC    C3 6136   3.790   0.900  10.288  0.0933  1.2316 -0.2225
   71SLPC    HX 6137   3.757   0.800  10.321 -2.1522  1.6349 -1.0689
   71SLPC    HY 6138   3.870   0.934  10.357  0.8752 -1.9171  0.5645
   71SLPC   O31 6139   3.842   0.898  10.153  0.0425  0.1634 -0.3075
   71SLPC   C31 6140   3.902   0.783  10.125  0.3752  0.1147 -0.0705
   71SLPC   O32 6141   3.903   0.686  10.196 -0.6405 -0.2546  0.4698
   71SLPC   C32 6142   3.961   0.794   9.985 -0.3353  0.2570  0.6345
   71SLPC   H2X 6143   4.022   0.886   9.976  1.5135 -0.9392  0.4405
   71SLPC   H2Y 6144   3.870   0.798   9.920 -1.1286  2.2246  1.7961
   71SLPC   C23 6145   3.495   0.902   9.932  0.1796  0.0692 -0.1745
   71SLPC   H3R 6146   3.475   0.804   9.883 -0.6560 -0.4144  1.0678
   71SLPC   H3S 6147   3.602   0.879   9.950  0.4669  0.3646 -1.3875
   71SLPC   C24 6148   3.491   1.027   9.839 -0.2909 -0.0477 -0.5807
   71SLPC   H4R 6149   3.500   1.118   9.902  2.4740 -0.0527 -0.8468
   71SLPC   H4S 6150   3.396   1.030   9.783 -1.1293 -0.0648  0.7824
   71SLPC   C25 6151   3.608   1.032   9.747  0.4441  0.5083  1.0955
   71SLPC   H5R 6152   3.698   1.019   9.811  0.0177 -0.3564  1.5405
   71SLPC   H5S 6153   3.612   1.124   9.685 -0.8480 -0.1716 -0.0448
   71SLPC   C26 6154   3.613   0.918   9.640  0.1106  0.2284 -0.4015
   71SLPC   H6R 6155   3.555   0.935   9.547  2.8071 -0.1948 -2.2537
   71SLPC   H6S 6156   3.560   0.830   9.684  1.2805 -1.1925 -1.7293
   71SLPC   C27 6157   3.754   0.865   9.599 -0.2905  0.2389 -0.6236
   71SLPC   H7R 6158   3.756   0.767   9.546  2.0481 -0.3496  0.4135
   71SLPC   H7S 6159   3.823   0.854   9.686  1.5504 -3.3183 -2.3145
   71SLPC   C28 6160   3.825   0.981   9.513  0.0283 -0.5756  0.0691
   71SLPC   H8R 6161   3.935   0.967   9.504  0.1858  0.4178  0.3594
   71SLPC   H8S 6162   3.834   1.071   9.578  0.6586 -0.2844 -0.4092
   71SLPC   C29 6163   3.748   1.021   9.381  0.4968 -0.0156 -0.6038
   71SLPC   H9R 6164   3.663   1.090   9.395  1.5875  0.8384  3.0908
   71SLPC  C210 6165   3.775   0.964   9.266 -0.7363  0.4211  0.1662
   71SLPC  H10R 6166   3.725   1.003   9.176 -0.8895 -1.5754 -0.6419
   71SLPC  C211 6167   3.886   0.866   9.249  0.3097 -0.0296  0.0598
   71SLPC  H11R 6168   3.858   0.795   9.168 -0.1333 -0.1176  0.2891
   71SLPC  H11S 6169   3.904   0.808   9.341  0.7775  0.8035  0.5079
   71SLPC  C212 6170   4.020   0.931   9.213  0.7591 -0.0707 -0.1454
   71SLPC  H12R 6171   4.039   1.020   9.275  0.1973 -0.4561  0.5904
   71SLPC  C213 6172   4.101   0.898   9.109  0.5450 -0.1417  1.5250
   71SLPC  H13R 6173   4.199   0.948   9.108  0.1240  0.7330 -0.1778
   71SLPC  C214 6174   4.090   0.797   8.996  0.2513 -0.1028 -0.1797
   71SLPC  H14R 6175   4.036   0.708   9.033 -0.1027 -0.3841 -1.3279
   71SLPC  H14S 6176   4.190   0.765   8.960  0.9325  0.5234  1.0835
   71SLPC  C215 6177   4.003   0.855   8.881  0.3710  0.5638  0.4856
   71SLPC  H15R 6178   3.899   0.874   8.917  0.1526  2.0485 -0.8481
   71SLPC  H15S 6179   3.992   0.770   8.810 -1.1264  1.2443 -0.1368
   71SLPC  C216 6180   4.070   0.974   8.816  0.8722 -0.4176 -0.1822
   71SLPC  H16R 6181   4.166   0.945   8.770  1.3293 -0.7226  0.9250
   71SLPC  H16S 6182   4.084   1.056   8.890  0.2414 -1.0373  0.6471
   71SLPC  C217 6183   3.986   1.033   8.704  0.4254 -0.6896 -0.1513
   71SLPC  H17R 6184   4.022   1.136   8.683 -0.3409 -0.4113 -0.1306
   71SLPC  H17S 6185   3.883   1.041   8.746 -0.9859 -0.3248 -3.3695
   71SLPC  C218 6186   3.985   0.962   8.560  0.1495 -0.0131 -0.8558
   71SLPC  H18R 6187   3.913   1.026   8.505 -0.8147  0.4342  0.8388
   71SLPC  H18S 6188   3.947   0.858   8.568 -3.1658  1.2153  2.1881
   71SLPC  H18T 6189   4.088   0.960   8.518  0.3440  1.7014 -0.5662
   71SLPC   C33 6190   4.045   0.671   9.934  0.1250 -0.2151 -0.3765
   71SLPC   H3X 6191   3.999   0.577   9.970 -1.8680  0.9932  0.3826
   71SLPC   H3Y 6192   4.137   0.673   9.995 -0.2964 -0.2962  0.2671
   71SLPC   C34 6193   4.085   0.689   9.789 -0.0705  0.1182  0.6393
   71SLPC   H4X 6194   4.165   0.765   9.795  0.1890 -0.2442  2.1541
   71SLPC   H4Y 6195   4.003   0.735   9.730  0.5497 -1.3137 -1.4503
   71SLPC   C35 6196   4.115   0.561   9.713  0.5959  0.1621  0.5357
   71SLPC   H5X 6197   4.026   0.505   9.675  0.6012 -0.2018  1.0536
   71SLPC   H5Y 6198   4.169   0.490   9.779 -0.5836  1.3651  2.9064
   71SLPC   C36 6199   4.211   0.581   9.588 -0.3528  0.0285  0.5766
   71SLPC   H6X 6200   4.265   0.486   9.567 -0.8961  0.0294 -0.9543
   71SLPC   H6Y 6201   4.299   0.641   9.617 -0.6022 -0.2134  1.9023
   71SLPC   C37 6202   4.137   0.633   9.467 -0.7534 -0.3778  0.5530
   71SLPC   H7X 6203   4.188   0.728   9.437 -0.6167 -1.0384 -1.4430
   71SLPC   H7Y 6204   4.033   0.665   9.491  0.0491  3.4238 -0.2991
   71SLPC   C38 6205   4.152   0.543   9.344  0.0063 -0.3818 -0.8827
   71SLPC   H8X 6206   4.100   0.591   9.258 -0.2146  2.9270  0.9409
   71SLPC   H8Y 6207   4.102   0.446   9.363 -1.1332  0.7153  2.3578
   71SLPC   C39 6208   4.299   0.520   9.307 -0.7354  0.1794  0.6342
   71SLPC   H9X 6209   4.350   0.435   9.356 -1.5855 -0.6515  0.1244
   71SLPC   H9Y 6210   4.346   0.618   9.330 -1.3407  0.5743  0.2411
   71SLPC  C310 6211   4.327   0.509   9.150 -0.0218  0.0281  0.1395
   71SLPC  H10X 6212   4.438   0.502   9.149 -0.0085  0.2995 -0.8043
   71SLPC  H10Y 6213   4.282   0.600   9.105 -1.6870 -0.5175  0.5946
   71SLPC  C311 6214   4.272   0.386   9.080 -0.1060 -0.1832  0.2312
   71SLPC  H11X 6215   4.162   0.379   9.091 -0.0046 -2.5560  0.1959
   71SLPC  H11Y 6216   4.311   0.296   9.132  2.4392  0.9972  0.5401
   71SLPC  C312 6217   4.313   0.372   8.929  0.6744 -0.5062 -0.2621
   71SLPC  H12X 6218   4.256   0.285   8.890  0.3481 -0.3179 -0.2038
   71SLPC  H12Y 6219   4.423   0.361   8.917  0.8176  1.7531 -1.4627
   71SLPC  C313 6220   4.265   0.496   8.847  0.3466 -0.1894  0.3584
   71SLPC  H13X 6221   4.297   0.590   8.896  1.2772 -1.9374  3.3909
   71SLPC  H13Y 6222   4.154   0.501   8.856  0.2394 -0.8705 -0.3875
   71SLPC  C314 6223   4.314   0.475   8.704  0.7113 -0.1369 -0.3332
   71SLPC  H14X 6224   4.280   0.375   8.667  1.1052 -0.3819 -0.0441
   71SLPC  H14Y 6225   4.425   0.478   8.712  0.6391  0.5360  0.5430
   71SLPC  C315 6226   4.260   0.582   8.613 -0.0491 -0.2428 -0.4044
   71SLPC  H15X 6227   4.283   0.689   8.633 -1.6466  0.3050 -1.2805
   71SLPC  H15Y 6228   4.153   0.571   8.643 -0.2229  0.5241 -0.7125
   71SLPC  C316 6229   4.275   0.551   8.466 -0.4425 -0.4424  1.0083
   71SLPC  H16X 6230   4.212   0.610   8.397 -1.4418 -1.9490  0.5901
   71SLPC  H16Y 6231   4.234   0.450   8.445 -0.2109 -0.0715 -1.6410
   71SLPC  C317 6232   4.424   0.560   8.414 -0.1104  0.1665 -0.0133
   71SLPC  H17X 6233   4.485   0.515   8.495  0.5342  2.5862  0.9085
   71SLPC  H17Y 6234   4.446   0.668   8.409 -1.4814  0.5129  0.9291
   71SLPC  C318 6235   4.463   0.484   8.287 -0.4182 -0.0992  0.2389
   71SLPC  H18X 6236   4.395   0.504   8.201  1.6082  1.6962 -1.0405
   71SLPC  H18Y 6237   4.452   0.376   8.306 -1.5092  0.1797  1.3063
   71SLPC  H18Z 6238   4.565   0.515   8.256 -0.5312 -1.1485 -1.3192
   72SLPC     N 6239   4.159   0.366  10.592 -0.0711  0.6485 -0.5391
   72SLPC   C13 6240   4.056   0.268  10.548  0.9527 -0.6040  0.0838
   72SLPC  H13A 6241   4.088   0.170  10.516 -0.5430 -0.7520 -1.1346
   72SLPC  H13B 6242   3.989   0.249  10.631  0.3015 -0.3030 -0.3618
   72SLPC  H13C 6243   3.991   0.311  10.473 -2.3840 -2.1474  1.8670
   72SLPC   C14 6244   4.228   0.304  10.712 -0.0052  0.4648  0.2409
   72SLPC  H14A 6245   4.263   0.205  10.690 -0.8731  0.5985 -1.9660
   72SLPC  H14B 6246   4.312   0.368  10.736  0.1941 -0.1653  1.3230
   72SLPC  H14C 6247   4.168   0.293  10.801 -1.6804 -0.4829 -0.9454
   72SLPC   C15 6248   4.103   0.492  10.640 -0.4784  0.3228 -0.1247
   72SLPC  H15A 6249   4.036   0.466  10.720 -0.6214  1.2079  0.0544
   72SLPC  H15B 6250   4.184   0.553  10.677 -0.9012  1.5488 -1.1383
   72SLPC  H15C 6251   4.046   0.549  10.568 -1.5196  0.7394  1.0154
   72SLPC   C12 6252   4.260   0.397  10.483  0.0587  0.2458  0.4859
   72SLPC  H12A 6253   4.343   0.455  10.520  0.1052 -1.6839  3.7727
   72SLPC  H12B 6254   4.200   0.445  10.407  1.6360  0.8627 -0.4216
   72SLPC   C11 6255   4.332   0.274  10.416 -0.4603 -0.0349  0.0545
   72SLPC  H11A 6256   4.398   0.316  10.337 -0.6585 -1.5421 -0.9525
   72SLPC  H11B 6257   4.254   0.209  10.372  1.6582 -2.3692 -0.4717
   72SLPC     P 6258   4.562   0.261  10.557 -0.1610  0.3960  0.3834
   72SLPC   O13 6259   4.540   0.403  10.578  0.3598  0.2485 -0.2511
   72SLPC   O14 6260   4.618   0.180  10.668  0.3765  0.7237 -0.2729
   72SLPC   O12 6261   4.419   0.197  10.511 -0.2213  0.6519  0.1281
   72SLPC   O11 6262   4.647   0.240  10.424  0.3379  0.0941  0.1038
   72SLPC    C1 6263   4.784   0.287  10.414  0.4521  0.2533 -0.6898
   72SLPC    HA 6264   4.791   0.394  10.386  0.3793  0.5489  0.3573
   72SLPC    HB 6265   4.836   0.275  10.512 -1.4623 -0.8837  0.2412
   72SLPC    C2 6266   4.869   0.206  10.305  0.2457  0.3262 -0.4024
   72SLPC    HS 6267   4.954   0.273  10.278  0.0496  0.5311 -0.5105
   72SLPC   O21 6268   4.789   0.162  10.192  0.2648 -0.1931  0.3573
   72SLPC   C21 6269   4.720   0.252  10.137  0.3443  0.7660 -0.2379
   72SLPC   O22 6270   4.713   0.373  10.168  0.0375  0.3946 -0.0464
   72SLPC   C22 6271   4.650   0.193  10.011  0.0413 -0.4334  0.6547
   72SLPC   H2R 6272   4.710   0.107   9.972  0.6827 -0.1181  0.9322
   72SLPC   H2S 6273   4.548   0.167  10.045  0.3556  0.2835  2.2161
   72SLPC    C3 6274   4.915   0.074  10.389  0.1858  0.7291 -0.0763
   72SLPC    HX 6275   4.815   0.026  10.402 -0.7102  1.9952 -1.8399
   72SLPC    HY 6276   4.956   0.097  10.490  0.9102  0.5069 -0.3170
   72SLPC   O31 6277   5.004  -0.019  10.325 -0.5377 -0.2814 -0.1325
   72SLPC   C31 6278   5.129   0.018  10.325 -1.0061 -0.2853 -0.0195
   72SLPC   O32 6279   5.179   0.115  10.386 -0.0844  0.1302  0.1626
   72SLPC   C32 6280   5.198  -0.069  10.217 -0.2876 -0.0022 -0.2221
   72SLPC   H2X 6281   5.148  -0.050  10.120 -0.4281 -0.6639 -0.2847
   72SLPC   H2Y 6282   5.195  -0.175  10.249 -1.1669 -0.6168 -2.2184
   72SLPC   C23 6283   4.626   0.299   9.899 -0.1611 -0.5103 -0.1200
   72SLPC   H3R 6284   4.581   0.389   9.945  2.8585  0.4555  1.2255
   72SLPC   H3S 6285   4.548   0.266   9.827  1.6087 -1.9203 -1.4888
   72SLPC   C24 6286   4.750   0.324   9.811  0.4950 -0.4366  0.2561
   72SLPC   H4R 6287   4.802   0.228   9.787  0.9369  0.2924 -1.8928
   72SLPC   H4S 6288   4.822   0.381   9.874 -0.0912 -1.2840  1.7722
   72SLPC   C25 6289   4.720   0.410   9.688 -0.4087 -1.2521 -0.7106
   72SLPC   H5R 6290   4.820   0.454   9.671 -0.4866 -0.7575  0.0545
   72SLPC   H5S 6291   4.646   0.483   9.727  2.6516  2.3282 -0.9741
   72SLPC   C26 6292   4.682   0.333   9.561 -0.2408  0.2892 -0.3387
   72SLPC   H6R 6293   4.599   0.264   9.588  1.2317 -0.8022  1.7323
   72SLPC   H6S 6294   4.756   0.251   9.547  0.0741  0.7468 -1.4473
   72SLPC   C27 6295   4.683   0.407   9.425  0.3138  0.7711 -0.6799
   72SLPC   H7R 6296   4.779   0.462   9.422 -0.0877  1.5352  0.0135
   72SLPC   H7S 6297   4.609   0.489   9.425  0.4593  0.9617  1.3610
   72SLPC   C28 6298   4.657   0.315   9.305 -0.8054  0.2512 -0.5258
   72SLPC   H8R 6299   4.628   0.377   9.218 -1.2812 -0.7992 -1.1334
   72SLPC   H8S 6300   4.563   0.264   9.334 -0.4252 -0.0364  0.2280
   72SLPC   C29 6301   4.767   0.215   9.265 -0.1441 -0.3338  0.3729
   72SLPC   H9R 6302   4.813   0.171   9.355  0.6378 -0.8916 -0.2915
   72SLPC  C210 6303   4.822   0.188   9.149 -0.1831  0.1912 -0.0174
   72SLPC  H10R 6304   4.899   0.110   9.145 -0.4464 -0.0923  0.3992
   72SLPC  C211 6305   4.777   0.253   9.020 -0.1733 -0.4267  0.3944
   72SLPC  H11R 6306   4.754   0.362   9.021  0.1805 -0.3437 -0.1919
   72SLPC  H11S 6307   4.682   0.208   8.984 -0.5973  1.2587 -0.7107
   72SLPC  C212 6308   4.886   0.220   8.914  0.0704  0.6249 -1.5706
   72SLPC  H12R 6309   4.992   0.237   8.937 -0.4685  0.4805  1.4711
   72SLPC  C213 6310   4.863   0.178   8.785 -0.1591 -0.1763 -0.6854
   72SLPC  H13R 6311   4.946   0.175   8.713  0.9065  0.9972  0.4281
   72SLPC  C214 6312   4.725   0.157   8.735 -0.6135 -0.3284 -0.1606
   72SLPC  H14R 6313   4.661   0.245   8.755 -1.3856 -1.0673  0.6925
   72SLPC  H14S 6314   4.676   0.078   8.795  1.4538 -1.4617  0.1442
   72SLPC  C215 6315   4.723   0.116   8.589  0.5082  0.0638  0.1705
   72SLPC  H15R 6316   4.745   0.007   8.588  1.3529  0.2103  1.1320
   72SLPC  H15S 6317   4.795   0.175   8.527 -1.6837  1.8697 -0.7694
   72SLPC  C216 6318   4.578   0.136   8.533 -0.7175 -0.9031 -0.0301
   72SLPC  H16R 6319   4.567   0.246   8.517  2.0613 -0.5452  0.0232
   72SLPC  H16S 6320   4.495   0.092   8.592 -0.2346 -3.0277 -0.8722
   72SLPC  C217 6321   4.573   0.091   8.385 -0.0890 -0.8398  0.4700
   72SLPC  H17R 6322   4.669   0.123   8.341 -0.6837  0.0928 -0.1924
   72SLPC  H17S 6323   4.487   0.138   8.332 -1.2897 -2.6796  0.6988
   72SLPC  C218 6324   4.544  -0.055   8.370  0.1853  0.4748  0.1998
   72SLPC  H18R 6325   4.445  -0.077   8.414 -0.4918  0.0951 -1.4164
   72SLPC  H18S 6326   4.611  -0.123   8.426 -1.2252 -0.0720  1.2838
   72SLPC  H18T 6327   4.539  -0.088   8.264  1.7909  1.6163 -0.2716
   72SLPC   C33 6328   5.348  -0.033  10.212 -0.2577 -0.0446 -0.2922
   72SLPC   H3X 6329   5.389  -0.044  10.314  1.6903  0.1772 -1.0093
   72SLPC   H3Y 6330   5.359   0.073  10.180 -0.4882  0.3622  0.9190
   72SLPC   C34 6331   5.426  -0.121  10.116 -0.0500  0.0556  0.0593
   72SLPC   H4X 6332   5.415  -0.227  10.148  1.1423 -0.0928  0.0452
   72SLPC   H4Y 6333   5.532  -0.092  10.132  0.3253 -0.1672 -1.8239
   72SLPC   C35 6334   5.383  -0.093   9.974  0.2026 -0.6391  0.0258
   72SLPC   H5X 6335   5.381   0.017   9.959 -0.9265 -0.8444 -1.7504
   72SLPC   H5Y 6336   5.276  -0.121   9.962  0.4027 -1.0544 -0.9156
   72SLPC   C36 6337   5.469  -0.155   9.869 -0.0830 -0.0720 -0.4442
   72SLPC   H6X 6338   5.454  -0.265   9.864 -0.1131 -0.0628 -0.5601
   72SLPC   H6Y 6339   5.576  -0.139   9.895 -0.2874  0.5154  0.0776
   72SLPC   C37 6340   5.450  -0.105   9.728 -0.2674 -0.2143  0.2984
   72SLPC   H7X 6341   5.482   0.001   9.721  1.4968 -0.7638 -0.6869
   72SLPC   H7Y 6342   5.340  -0.100   9.712 -0.6181  1.4374  2.8216
   72SLPC   C38 6343   5.525  -0.197   9.633  0.8732  0.5618 -0.4252
   72SLPC   H8X 6344   5.502  -0.305   9.637  0.6122  0.5208 -2.2985
   72SLPC   H8Y 6345   5.631  -0.180   9.663  1.0050 -0.9881  0.0562
   72SLPC   C39 6346   5.516  -0.159   9.484  0.0862 -0.4688 -0.2178
   72SLPC   H9X 6347   5.619  -0.164   9.444  0.7386  3.3864  0.5587
   72SLPC   H9Y 6348   5.491  -0.051   9.474  2.7799  0.4126  1.5874
   72SLPC  C310 6349   5.429  -0.242   9.398  0.3830 -0.1661 -1.1369
   72SLPC  H10X 6350   5.334  -0.184   9.399  2.7457  4.1478 -0.0986
   72SLPC  H10Y 6351   5.411  -0.345   9.435  0.4242  0.0997 -0.3672
   72SLPC  C311 6352   5.495  -0.241   9.262  0.3331 -0.2558  0.9581
   72SLPC  H11X 6353   5.592  -0.294   9.271  0.1810 -0.4395  1.5297
   72SLPC  H11Y 6354   5.516  -0.133   9.245  0.6311 -0.1704  1.8338
   72SLPC  C312 6355   5.406  -0.285   9.152  0.0365  0.5355  0.7558
   72SLPC  H12X 6356   5.303  -0.244   9.148 -0.2876 -0.2628  0.6760
   72SLPC  H12Y 6357   5.391  -0.395   9.167 -1.7258  0.3026 -1.9311
   72SLPC  C313 6358   5.473  -0.258   9.018  0.3473 -0.3082  0.4795
   72SLPC  H13X 6359   5.560  -0.325   9.001  2.3836  2.3877 -0.3579
   72SLPC  H13Y 6360   5.515  -0.156   9.028 -0.7478  0.0671  1.5075
   72SLPC  C314 6361   5.360  -0.248   8.905  0.0931  0.4496 -0.5563
   72SLPC  H14X 6362   5.267  -0.192   8.927  0.9769  1.8506 -0.2856
   72SLPC  H14Y 6363   5.334  -0.355   8.887 -1.3709  1.0731 -2.2827
   72SLPC  C315 6364   5.411  -0.194   8.773 -0.7228  0.2024  0.6574
   72SLPC  H15X 6365   5.343  -0.221   8.689 -0.1499  0.3616  0.1322
   72SLPC  H15Y 6366   5.509  -0.238   8.748 -1.2217 -0.2847 -0.5097
   72SLPC  C316 6367   5.424  -0.037   8.776  0.1970 -0.2014  0.3783
   72SLPC  H16X 6368   5.477  -0.000   8.686  1.4347  1.2860  1.6347
   72SLPC  H16Y 6369   5.482  -0.016   8.869 -0.2971  2.4262  0.1905
   72SLPC  C317 6370   5.293   0.043   8.785 -0.0235 -0.5239  0.2019
   72SLPC  H17X 6371   5.321   0.150   8.775 -1.2477 -0.3215 -1.5374
   72SLPC  H17Y 6372   5.240   0.029   8.882 -2.5802 -0.2780 -1.0733
   72SLPC  C318 6373   5.196   0.017   8.662 -0.6104 -0.1835 -0.2643
   72SLPC  H18X 6374   5.245   0.008   8.563 -1.0880 -1.8394 -0.3670
   72SLPC  H18Y 6375   5.138   0.111   8.673  1.0745  0.5899  3.5209
   72SLPC  H18Z 6376   5.131  -0.070   8.681  0.5166 -1.1097 -0.5583
   73SLPC     N 6377   4.615   4.719  10.636 -0.2621 -0.4272 -0.3897
   73SLPC   C13 6378   4.639   4.786  10.503 -0.4514  0.2337 -0.2456
   73SLPC  H13A 6379   4.580   4.737  10.427 -3.4323 -0.5210  2.3003
   73SLPC  H13B 6380   4.633   4.892  10.520 -1.1512  0.0178  1.0390
   73SLPC  H13C 6381   4.739   4.756  10.474 -0.3646 -1.5673  1.6440
   73SLPC   C14 6382   4.713   4.752  10.749 -0.6363  0.4042 -0.3341
   73SLPC  H14A 6383   4.814   4.723  10.727 -0.7348  0.6554 -1.1626
   73SLPC  H14B 6384   4.696   4.857  10.769  2.6118  0.8045  0.8681
   73SLPC  H14C 6385   4.685   4.689  10.832  0.5224  0.3039 -0.0098
   73SLPC   C15 6386   4.625   4.573  10.609 -0.2471  0.3390 -0.6438
   73SLPC  H15A 6387   4.531   4.541  10.567 -0.7446  0.6621  0.2041
   73SLPC  H15B 6388   4.699   4.549  10.534  0.5444 -0.2997  0.3019
   73SLPC  H15C 6389   4.658   4.514  10.693 -0.1593 -0.5336 -1.2792
   73SLPC   C12 6390   4.466   4.743  10.669 -0.8879  0.1607  0.0253
   73SLPC  H12A 6391   4.405   4.703  10.589 -0.8486 -2.7930  1.3297
   73SLPC  H12B 6392   4.453   4.850  10.678 -0.1483  0.6129 -3.0223
   73SLPC   C11 6393   4.413   4.681  10.800 -0.8731  0.4453  0.0981
   73SLPC  H11A 6394   4.322   4.736  10.831  0.0218  3.1426 -1.7221
   73SLPC  H11B 6395   4.487   4.703  10.880 -2.3520  1.8925  1.1399
   73SLPC     P 6396   4.259   4.468  10.762  0.0951 -0.7690 -0.2849
   73SLPC   O13 6397   4.291   4.332  10.712 -0.2386  0.1182 -0.0985
   73SLPC   O14 6398   4.164   4.484  10.876  0.4265 -0.1705  0.0450
   73SLPC   O12 6399   4.396   4.539  10.801  0.1622  0.0951 -0.2654
   73SLPC   O11 6400   4.212   4.554  10.636 -0.1520 -0.4998  0.3793
   73SLPC    C1 6401   4.074   4.576  10.606  0.3830 -0.1953  0.5255
   73SLPC    HA 6402   4.019   4.605  10.698  0.0828  1.4671 -0.1345
   73SLPC    HB 6403   4.077   4.662  10.536  1.4845 -1.7234 -1.4170
   73SLPC    C2 6404   4.016   4.460  10.511  0.7199  1.1706 -0.3118
   73SLPC    HS 6405   4.003   4.363  10.564 -1.9088  2.5922  1.9602
   73SLPC   O21 6406   4.089   4.456  10.392 -0.7251 -0.1462 -0.2072
   73SLPC   C21 6407   4.084   4.340  10.323  0.1791 -0.7095 -0.4154
   73SLPC   O22 6408   4.057   4.232  10.369 -0.0112  0.1001  0.6252
   73SLPC   C22 6409   4.124   4.371  10.178 -0.0180  0.1475  0.2332
   73SLPC   H2R 6410   4.229   4.403  10.192 -0.1083 -0.4363  2.6688
   73SLPC   H2S 6411   4.119   4.281  10.112  0.8854  1.9476 -2.4579
   73SLPC    C3 6412   3.865   4.496  10.493  0.6282 -0.1815  0.5667
   73SLPC    HX 6413   3.868   4.597  10.446  0.2082 -1.4684 -2.4466
   73SLPC    HY 6414   3.823   4.515  10.594  0.0127  0.3482  0.2248
   73SLPC   O31 6415   3.784   4.407  10.406  0.2705  0.0569 -0.0131
   73SLPC   C31 6416   3.748   4.296  10.452 -0.4598  0.3749 -0.0095
   73SLPC   O32 6417   3.772   4.256  10.566  0.0422  0.0254  0.3118
   73SLPC   C32 6418   3.669   4.208  10.349 -0.3265 -0.5891 -0.1650
   73SLPC   H2X 6419   3.566   4.249  10.347 -0.7724 -1.6158  0.8112
   73SLPC   H2Y 6420   3.665   4.104  10.389  1.2898 -0.9918 -0.9289
   73SLPC   C23 6421   4.035   4.484  10.112  0.0022  0.3478 -0.0220
   73SLPC   H3R 6422   4.039   4.580  10.168 -0.4205  0.2038  0.2586
   73SLPC   H3S 6423   3.927   4.458  10.105 -0.5227  1.8672  1.6218
   73SLPC   C24 6424   4.061   4.524   9.965  0.2072  0.0278  0.4728
   73SLPC   H4R 6425   4.162   4.566   9.947 -1.2361  3.2454 -1.0364
   73SLPC   H4S 6426   4.004   4.617   9.945  0.8926  0.8958  2.2540
   73SLPC   C25 6427   4.032   4.417   9.862 -0.5696  0.5120  0.3883
   73SLPC   H5R 6428   3.923   4.400   9.853 -0.9848  1.8236  2.4338
   73SLPC   H5S 6429   4.083   4.320   9.881 -1.5705 -0.0710  0.1950
   73SLPC   C26 6430   4.077   4.448   9.719  0.1141  0.2019 -0.4218
   73SLPC   H6R 6431   4.186   4.433   9.732  0.1637  1.1178  0.2865
   73SLPC   H6S 6432   4.058   4.551   9.684 -0.2233 -0.0549 -1.0108
   73SLPC   C27 6433   3.989   4.360   9.629 -0.0937 -0.3689  0.8686
   73SLPC   H7R 6434   3.883   4.393   9.635 -0.8541 -2.8330  3.0122
   73SLPC   H7S 6435   4.000   4.256   9.666  0.1939 -0.9941 -0.9058
   73SLPC   C28 6436   4.042   4.378   9.487 -0.0352  0.5659  0.7084
   73SLPC   H8R 6437   4.022   4.286   9.429  3.0117 -0.1859  0.6774
   73SLPC   H8S 6438   4.153   4.386   9.497  0.0084 -0.3827  1.0773
   73SLPC   C29 6439   3.982   4.491   9.413 -0.1137 -0.4268 -0.4552
   73SLPC   H9R 6440   3.954   4.575   9.478  0.3121 -1.3220  0.9280
   73SLPC  C210 6441   3.933   4.497   9.290  0.0981  0.0713 -0.0617
   73SLPC  H10R 6442   3.891   4.589   9.248  1.5690 -0.3652 -2.7487
   73SLPC  C211 6443   3.942   4.386   9.188 -0.4618 -0.4191  0.4786
   73SLPC  H11R 6444   3.843   4.339   9.171  0.2452 -1.5804 -0.6659
   73SLPC  H11S 6445   4.009   4.304   9.225 -0.0535  0.3104  1.3947
   73SLPC  C212 6446   3.993   4.426   9.050 -0.2537 -0.2267  0.1027
   73SLPC  H12R 6447   3.990   4.532   9.020  0.5667  0.0498  0.9326
   73SLPC  C213 6448   4.041   4.340   8.959 -0.2789 -0.2825 -0.2272
   73SLPC  H13R 6449   4.063   4.382   8.860 -1.3443  0.9583  0.0377
   73SLPC  C214 6450   4.049   4.187   8.973  0.9538 -0.1969  0.0381
   73SLPC  H14R 6451   4.036   4.145   8.871  1.8311  1.3405 -0.7558
   73SLPC  H14S 6452   3.969   4.154   9.043  0.1095  1.1961 -0.2253
   73SLPC  C215 6453   4.179   4.133   9.032  0.1732 -0.0596 -0.3699
   73SLPC  H15R 6454   4.209   4.177   9.129 -0.2817 -0.0157 -0.2466
   73SLPC  H15S 6455   4.267   4.156   8.969 -0.0189  1.3487 -0.1456
   73SLPC  C216 6456   4.187   3.977   9.046  0.2155  0.5555 -0.1395
   73SLPC  H16R 6457   4.211   3.931   8.948  1.1710 -0.6330  0.6249
   73SLPC  H16S 6458   4.087   3.939   9.076  0.5094 -0.4688 -0.4195
   73SLPC  C217 6459   4.301   3.928   9.138 -0.2540 -0.2700  0.4302
   73SLPC  H17R 6460   4.273   3.934   9.245  0.7149 -0.7224  0.7205
   73SLPC  H17S 6461   4.398   3.979   9.118 -0.0485  0.0348  2.1129
   73SLPC  C218 6462   4.323   3.783   9.111  0.8729 -0.2081 -0.4076
   73SLPC  H18R 6463   4.396   3.744   9.186 -0.8670 -1.3994  0.7409
   73SLPC  H18S 6464   4.345   3.749   9.008 -0.8922  0.3002 -0.9800
   73SLPC  H18T 6465   4.224   3.734   9.126  0.3777  0.6824 -0.7212
   73SLPC   C33 6466   3.719   4.209  10.203  0.5145  0.1182 -0.2193
   73SLPC   H3X 6467   3.769   4.304  10.177  1.0702  0.3078  1.4668
   73SLPC   H3Y 6468   3.631   4.208  10.136 -1.2727 -0.5026  2.0182
   73SLPC   C34 6469   3.820   4.100  10.162  0.0539  0.7186  0.5268
   73SLPC   H4X 6470   3.778   4.008  10.207  0.3580 -0.9202 -2.3253
   73SLPC   H4Y 6471   3.915   4.126  10.214  0.0084  2.6519 -0.2602
   73SLPC   C35 6472   3.826   4.074  10.006  0.6445 -0.5535 -0.3372
   73SLPC   H5X 6473   3.912   4.004   9.999 -0.1251 -1.5925  0.3332
   73SLPC   H5Y 6474   3.847   4.175   9.964  3.3648  0.0595  2.1295
   73SLPC   C36 6475   3.695   4.014   9.951  0.8319  0.0602 -0.0274
   73SLPC   H6X 6476   3.618   4.092   9.969 -0.1253 -0.6115 -1.0559
   73SLPC   H6Y 6477   3.662   3.931  10.017 -0.8897  0.1258 -0.7504
   73SLPC   C37 6478   3.708   3.961   9.813 -0.8804  0.4345  0.4196
   73SLPC   H7X 6479   3.628   3.890   9.782  0.4822 -0.9135 -0.1372
   73SLPC   H7Y 6480   3.805   3.906   9.810 -0.4590  1.1917 -0.0467
   73SLPC   C38 6481   3.711   4.069   9.715  0.0769 -0.2316  0.1372
   73SLPC   H8X 6482   3.785   4.145   9.746  0.2490 -0.0572 -0.6974
   73SLPC   H8Y 6483   3.615   4.124   9.708  0.4310  0.2754 -0.9512
   73SLPC   C39 6484   3.745   4.009   9.581 -0.1060  0.7576  0.8578
   73SLPC   H9X 6485   3.681   3.923   9.553  0.8098  0.2952  0.1219
   73SLPC   H9Y 6486   3.852   3.979   9.579 -0.4625 -0.6417  1.4833
   73SLPC  C310 6487   3.735   4.117   9.469  0.1300 -0.0382 -0.3390
   73SLPC  H10X 6488   3.789   4.205   9.512  0.4685 -1.8877  3.4814
   73SLPC  H10Y 6489   3.631   4.156   9.465 -0.6922 -2.0293  0.4284
   73SLPC  C311 6490   3.788   4.064   9.338  0.3522 -0.2370  0.1098
   73SLPC  H11X 6491   3.886   4.015   9.358  0.6999  0.9051  1.3301
   73SLPC  H11Y 6492   3.835   4.144   9.277  1.7057 -1.2061 -0.1551
   73SLPC  C312 6493   3.699   3.984   9.253  0.5222 -0.6962 -0.2141
   73SLPC  H12X 6494   3.611   4.050   9.242  1.3128  0.1373 -1.9508
   73SLPC  H12Y 6495   3.678   3.892   9.311 -0.3135 -0.6432 -0.4208
   73SLPC  C313 6496   3.748   3.965   9.111  1.0603 -0.3243  0.1679
   73SLPC  H13X 6497   3.839   3.901   9.121 -0.0289 -1.8885  0.4273
   73SLPC  H13Y 6498   3.760   4.068   9.072 -1.5204 -0.2947 -0.7740
   73SLPC  C314 6499   3.642   3.900   9.028  0.3058  0.3635  0.0880
   73SLPC  H14X 6500   3.544   3.951   9.019 -0.9227 -1.7277  0.9902
   73SLPC  H14Y 6501   3.624   3.797   9.066 -0.8283  1.1241  1.6884
   73SLPC  C315 6502   3.682   3.908   8.874 -0.6701  0.5946  0.5716
   73SLPC  H15X 6503   3.767   3.843   8.845  0.7333  2.6317 -0.0718
   73SLPC  H15Y 6504   3.692   4.016   8.850 -0.2652  0.7462  1.3729
   73SLPC  C316 6505   3.565   3.864   8.783 -0.7325  0.4787 -0.4431
   73SLPC  H16X 6506   3.477   3.932   8.784 -3.2421 -2.5491  0.1683
   73SLPC  H16Y 6507   3.526   3.772   8.831  0.0348 -1.2745 -2.9547
   73SLPC  C317 6508   3.608   3.823   8.640  0.6387  0.2303 -0.2312
   73SLPC  H17X 6509   3.674   3.734   8.638 -1.0050 -1.0386 -0.4726
   73SLPC  H17Y 6510   3.657   3.906   8.585 -0.8695  0.6708 -0.9910
   73SLPC  C318 6511   3.482   3.788   8.557 -0.1797 -0.1225 -0.3216
   73SLPC  H18X 6512   3.447   3.889   8.526  3.3788  0.8417 -1.7447
   73SLPC  H18Y 6513   3.398   3.745   8.616 -2.0017  0.1436 -2.5902
   73SLPC  H18Z 6514   3.499   3.724   8.467  0.2025 -2.1612  1.1211
   74SLPC     N 6515   6.203   4.706  10.365 -0.4109 -0.0716  0.0185
   74SLPC   C13 6516   6.191   4.785  10.237  0.5929  0.3450  0.4181
   74SLPC  H13A 6517   6.164   4.718  10.157 -1.0238  0.4274  0.8656
   74SLPC  H13B 6518   6.105   4.848  10.256 -0.8595 -1.4752  0.1289
   74SLPC  H13C 6519   6.282   4.840  10.218  0.7629 -0.5454 -1.5562
   74SLPC   C14 6520   6.323   4.621  10.340 -0.8458  0.0524  0.3697
   74SLPC  H14A 6521   6.356   4.559  10.422 -2.7640 -1.3386  0.1532
   74SLPC  H14B 6522   6.318   4.539  10.270  2.4179 -1.2792  1.4717
   74SLPC  H14C 6523   6.410   4.679  10.311 -0.3269 -0.1329  1.4850
   74SLPC   C15 6524   6.078   4.630  10.381  0.1739 -0.2352  0.1202
   74SLPC  H15A 6525   6.062   4.587  10.478  0.9075 -1.7594 -0.4045
   74SLPC  H15B 6526   5.989   4.684  10.353  0.2784 -0.8391 -1.4803
   74SLPC  H15C 6527   6.076   4.545  10.314  2.7483  0.8916 -1.5661
   74SLPC   C12 6528   6.230   4.810  10.474  0.0752  0.6274  0.0956
   74SLPC  H12A 6529   6.334   4.839  10.461  0.3260 -0.0023  0.6698
   74SLPC  H12B 6530   6.226   4.755  10.566 -4.6364 -0.5691 -0.5603
   74SLPC   C11 6531   6.154   4.941  10.475  0.2507  0.2362  0.2905
   74SLPC  H11A 6532   6.185   5.003  10.387 -1.1172  2.1958  1.1210
   74SLPC  H11B 6533   6.190   4.997  10.564  0.1561  0.3821  0.2381
   74SLPC     P 6534   5.912   4.974  10.568  0.3180  0.0834  0.6818
   74SLPC   O13 6535   5.860   4.854  10.640 -0.4473  0.7266 -0.3518
   74SLPC   O14 6536   5.966   5.083  10.650 -0.0317  0.2546  0.4162
   74SLPC   O12 6537   6.015   4.922  10.465 -0.3251 -0.1791  0.1428
   74SLPC   O11 6538   5.796   5.036  10.478 -0.3878 -0.1339 -0.3377
   74SLPC    C1 6539   5.715   4.959  10.389  0.6028 -0.5509  0.1724
   74SLPC    HA 6540   5.719   4.851  10.412 -2.1144 -0.6161  0.6336
   74SLPC    HB 6541   5.606   4.980  10.393  0.4353 -0.8860 -1.7718
   74SLPC    C2 6542   5.769   4.990  10.245 -0.0690  0.2851  0.1052
   74SLPC    HS 6543   5.877   4.967  10.234  0.3265  1.4825  1.2759
   74SLPC   O21 6544   5.738   5.128  10.210  0.3979  0.0518 -0.1296
   74SLPC   C21 6545   5.824   5.183  10.120 -0.7204 -1.0357  0.5061
   74SLPC   O22 6546   5.932   5.139  10.086  0.5907  0.0408  0.0510
   74SLPC   C22 6547   5.766   5.319  10.078  0.1248 -0.0796  0.8009
   74SLPC   H2R 6548   5.666   5.297  10.035 -0.1108 -2.3061  2.3022
   74SLPC   H2S 6549   5.744   5.372  10.174 -0.1321 -0.8840  1.1953
   74SLPC    C3 6550   5.679   4.884  10.154  0.4257  0.2505 -0.5774
   74SLPC    HX 6551   5.571   4.899  10.175  0.8646  2.3387  0.3966
   74SLPC    HY 6552   5.693   4.780  10.190 -0.9623 -0.0840 -0.9440
   74SLPC   O31 6553   5.688   4.904  10.017 -0.5343 -0.1063  0.2571
   74SLPC   C31 6554   5.796   4.844   9.960 -0.2190 -0.0913  0.3124
   74SLPC   O32 6555   5.878   4.777  10.022  0.0319 -0.3864  0.1442
   74SLPC   C32 6556   5.810   4.908   9.820 -0.3599 -0.0988  0.3713
   74SLPC   H2X 6557   5.813   5.019   9.822  2.2866  0.1332 -3.9448
   74SLPC   H2Y 6558   5.722   4.873   9.762  0.9312 -2.9670 -0.0476
   74SLPC   C23 6559   5.859   5.414   9.996 -0.0337  0.0827  0.8239
   74SLPC   H3R 6560   5.954   5.437  10.049  0.8615  3.7995 -1.9530
   74SLPC   H3S 6561   5.812   5.514   9.989 -0.4003 -0.0618  1.1836
   74SLPC   C24 6562   5.902   5.362   9.854  0.3771  0.1567  0.3951
   74SLPC   H4R 6563   5.962   5.269   9.864  0.0723  0.0930  2.0416
   74SLPC   H4S 6564   5.976   5.430   9.808  2.2317 -0.4404  2.3188
   74SLPC   C25 6565   5.785   5.327   9.761  0.5739  0.1341  0.1085
   74SLPC   H5R 6566   5.703   5.403   9.767  0.2440 -0.0681 -1.4087
   74SLPC   H5S 6567   5.745   5.228   9.791  3.0229 -1.3788 -1.2598
   74SLPC   C26 6568   5.843   5.321   9.619  0.0552 -0.5622  0.3691
   74SLPC   H6R 6569   5.921   5.241   9.615 -0.7709 -1.3215 -2.9973
   74SLPC   H6S 6570   5.901   5.414   9.601 -1.8684  0.6457  0.2257
   74SLPC   C27 6571   5.745   5.300   9.506  0.4726 -0.4161 -0.2439
   74SLPC   H7R 6572   5.801   5.333   9.416  2.5195  0.0366  1.1256
   74SLPC   H7S 6573   5.656   5.365   9.524 -1.7160 -3.1582 -0.4448
   74SLPC   C28 6574   5.703   5.153   9.483  0.2184  0.0469 -0.5712
   74SLPC   H8R 6575   5.654   5.105   9.571  0.5806  0.2445 -0.2636
   74SLPC   H8S 6576   5.797   5.094   9.473  0.4441 -0.0636  1.7299
   74SLPC   C29 6577   5.621   5.133   9.365 -0.3605  0.0297 -0.4634
   74SLPC   H9R 6578   5.522   5.178   9.375 -0.8616 -0.9577 -0.8761
   74SLPC  C210 6579   5.638   5.049   9.262 -1.5938  0.6960  0.2531
   74SLPC  H10R 6580   5.579   5.051   9.170 -1.1772  2.0982 -0.0065
   74SLPC  C211 6581   5.755   4.958   9.235 -0.3199 -0.6819 -0.2760
   74SLPC  H11R 6582   5.712   4.872   9.180 -2.6631  0.1150  0.1760
   74SLPC  H11S 6583   5.800   4.910   9.324  0.4814 -0.8769 -0.7781
   74SLPC  C212 6584   5.850   5.037   9.148 -0.4482  0.1393  0.4240
   74SLPC  H12R 6585   5.935   5.078   9.205  0.4409 -0.2429 -0.5966
   74SLPC  C213 6586   5.849   5.055   9.016 -0.3075 -0.1721  0.1248
   74SLPC  H13R 6587   5.927   5.121   8.975  1.2972 -1.6441  0.6652
   74SLPC  C214 6588   5.748   5.011   8.917  0.5391 -0.0073  0.1047
   74SLPC  H14R 6589   5.761   5.063   8.819 -2.0299 -1.8328 -1.3309
   74SLPC  H14S 6590   5.643   5.038   8.944 -0.1196 -1.4052 -0.9258
   74SLPC  C215 6591   5.746   4.861   8.875 -0.0269 -0.5948 -0.2219
   74SLPC  H15R 6592   5.681   4.805   8.945  0.3685 -1.7978 -0.7862
   74SLPC  H15S 6593   5.845   4.811   8.887  2.5956  3.7944 -1.4132
   74SLPC  C216 6594   5.708   4.851   8.724  0.0918  0.2277  0.0802
   74SLPC  H16R 6595   5.777   4.922   8.675 -1.8971  1.8280 -0.5325
   74SLPC  H16S 6596   5.608   4.897   8.710 -0.0479 -0.2535 -0.5702
   74SLPC  C217 6597   5.715   4.713   8.661  0.3146 -0.5452 -0.1259
   74SLPC  H17R 6598   5.666   4.636   8.724  0.8569 -0.5382  0.3168
   74SLPC  H17S 6599   5.822   4.683   8.652 -0.0315 -2.9440  2.3085
   74SLPC  C218 6600   5.663   4.696   8.518 -0.3220  0.1461 -0.4694
   74SLPC  H18R 6601   5.701   4.780   8.456 -1.2823  0.0862 -1.1789
   74SLPC  H18S 6602   5.552   4.703   8.519 -0.4728 -1.8587 -0.5887
   74SLPC  H18T 6603   5.699   4.608   8.461  0.6629 -0.0226  0.3843
   74SLPC   C33 6604   5.937   4.852   9.750 -0.3614 -0.2666 -0.1459
   74SLPC   H3X 6605   5.947   4.742   9.758 -0.4232 -0.9502 -5.5222
   74SLPC   H3Y 6606   6.025   4.898   9.800 -0.8934  0.8019 -0.1489
   74SLPC   C34 6607   5.958   4.877   9.601  0.2085  0.3705 -0.0621
   74SLPC   H4X 6608   5.962   4.986   9.581 -3.2454  0.7083  0.3573
   74SLPC   H4Y 6609   5.875   4.837   9.538 -0.1448 -0.5417  0.9562
   74SLPC   C35 6610   6.090   4.818   9.542  0.4436  0.6930 -0.0144
   74SLPC   H5X 6611   6.107   4.713   9.574  2.6027  0.8276 -0.5571
   74SLPC   H5Y 6612   6.174   4.872   9.592 -0.7033  2.6857 -0.1606
   74SLPC   C36 6613   6.100   4.840   9.393  0.2667 -0.3402  0.6661
   74SLPC   H6X 6614   6.205   4.854   9.359 -0.8343 -0.7951 -3.4203
   74SLPC   H6Y 6615   6.035   4.922   9.357 -0.0106  0.0125  1.9456
   74SLPC   C37 6616   6.061   4.706   9.319  0.4304 -0.8001  0.4865
   74SLPC   H7X 6617   5.955   4.684   9.342  0.4257  1.3230  2.8656
   74SLPC   H7Y 6618   6.115   4.619   9.362  0.5171 -0.0853  1.8822
   74SLPC   C38 6619   6.100   4.714   9.165 -0.3327 -0.3227 -0.0318
   74SLPC   H8X 6620   6.208   4.690   9.168 -0.9191 -3.1071  1.6744
   74SLPC   H8Y 6621   6.088   4.817   9.125  0.8322 -1.0912 -2.5962
   74SLPC   C39 6622   6.019   4.618   9.077 -0.0896 -0.2627  0.1475
   74SLPC   H9X 6623   5.909   4.631   9.086 -0.0439  0.0372  0.2475
   74SLPC   H9Y 6624   6.031   4.517   9.122  1.5235 -0.0515  0.2429
   74SLPC  C310 6625   6.078   4.627   8.934  0.3981 -0.3578  0.9614
   74SLPC  H10X 6626   6.183   4.590   8.938  0.3558 -0.5594  0.3826
   74SLPC  H10Y 6627   6.080   4.733   8.903  1.8388 -1.1151 -1.9154
   74SLPC  C311 6628   6.007   4.545   8.823 -0.1535 -0.7387 -0.2648
   74SLPC  H11X 6629   5.905   4.585   8.806  0.5865  0.6077 -1.8468
   74SLPC  H11Y 6630   6.012   4.436   8.844 -3.0947 -0.8418  0.2079
   74SLPC  C312 6631   6.084   4.568   8.689 -0.7615 -0.0269 -0.5477
   74SLPC  H12X 6632   6.189   4.534   8.701 -0.6579  0.4409 -0.1056
   74SLPC  H12Y 6633   6.088   4.678   8.671 -2.2161  0.9610  3.9135
   74SLPC  C313 6634   6.012   4.484   8.574 -0.2145 -0.0311  0.0660
   74SLPC  H13X 6635   5.904   4.507   8.562  0.0743  0.2889 -2.2694
   74SLPC  H13Y 6636   6.010   4.380   8.614 -0.6115  0.0280  0.2032
   74SLPC  C314 6637   6.078   4.494   8.443  0.4257 -0.4349 -0.2422
   74SLPC  H14X 6638   6.005   4.449   8.372  0.4580 -0.9294  0.0390
   74SLPC  H14Y 6639   6.175   4.440   8.445  0.2591 -0.7100  0.5871
   74SLPC  C315 6640   6.108   4.638   8.395 -0.0753  0.0118  0.0772
   74SLPC  H15X 6641   6.166   4.632   8.300  0.4953  1.3432  0.3058
   74SLPC  H15Y 6642   6.175   4.683   8.471 -1.9038 -0.2138  1.9034
   74SLPC  C316 6643   5.990   4.735   8.392  0.3562  0.2841  0.8156
   74SLPC  H16X 6644   5.921   4.714   8.477 -0.7549 -1.3229 -0.4115
   74SLPC  H16Y 6645   5.931   4.703   8.304  1.5184  0.1666  0.0668
   74SLPC  C317 6646   6.032   4.880   8.382  0.1884  0.1476 -0.1611
   74SLPC  H17X 6647   6.110   4.885   8.303 -0.4415  0.6429 -0.7630
   74SLPC  H17Y 6648   6.068   4.926   8.477 -2.0539  1.4500  0.1205
   74SLPC  C318 6649   5.921   4.971   8.351  0.7479  0.6149  0.0874
   74SLPC  H18X 6650   5.950   5.076   8.329  0.9879  0.2613 -1.3884
   74SLPC  H18Y 6651   5.838   4.960   8.424  1.9088  2.9563  1.9002
   74SLPC  H18Z 6652   5.888   4.940   8.249  1.4297 -0.0062  0.0479
   75SLPC     N 6653   3.001   1.124   6.139  0.3014 -0.1626  0.4201
   75SLPC   C13 6654   2.925   1.140   6.271  0.4599 -0.4118  0.0331
   75SLPC  H13A 6655   2.938   1.243   6.301 -2.0381  0.0399 -0.2390
   75SLPC  H13B 6656   2.820   1.116   6.269  0.6565 -1.7986  2.1827
   75SLPC  H13C 6657   2.972   1.078   6.346  2.7641 -0.2915 -1.2065
   75SLPC   C14 6658   2.961   1.235   6.045  0.5218  0.0120  0.6333
   75SLPC  H14A 6659   2.858   1.235   6.011  1.1800  2.4507 -1.7136
   75SLPC  H14B 6660   2.986   1.328   6.095  1.3388 -0.3835  0.9647
   75SLPC  H14C 6661   3.016   1.226   5.953  0.3868 -3.2662  0.7579
   75SLPC   C15 6662   2.973   0.987   6.083  0.4225  0.6498  0.0644
   75SLPC  H15A 6663   2.866   0.970   6.089  0.4694 -0.3350 -1.4635
   75SLPC  H15B 6664   2.995   0.983   5.978  0.4072 -0.5946  0.0993
   75SLPC  H15C 6665   3.027   0.909   6.134  0.3878  1.3516  1.2286
   75SLPC   C12 6666   3.148   1.127   6.167  0.7530  0.3325  0.3808
   75SLPC  H12A 6667   3.208   1.127   6.077 -0.9124 -1.7099 -0.8221
   75SLPC  H12B 6668   3.177   1.032   6.209  1.5413  0.8623  1.0524
   75SLPC   C11 6669   3.202   1.240   6.250  0.2559 -0.4449  0.2107
   75SLPC  H11A 6670   3.155   1.248   6.350  0.8084 -0.8069  0.5014
   75SLPC  H11B 6671   3.175   1.340   6.210 -1.2939 -0.0200  2.1957
   75SLPC     P 6672   3.414   1.112   6.334  0.0264 -0.2348  0.3864
   75SLPC   O13 6673   3.432   0.995   6.248  0.1402  0.1523  0.7310
   75SLPC   O14 6674   3.538   1.164   6.395 -0.2588 -0.0636 -0.0493
   75SLPC   O12 6675   3.345   1.225   6.256 -0.4867 -0.2139  0.2204
   75SLPC   O11 6676   3.309   1.089   6.445 -0.3391  0.2722  0.1575
   75SLPC    C1 6677   3.316   1.172   6.560 -0.0921 -0.4774  0.5020
   75SLPC    HA 6678   3.421   1.183   6.596  1.1129  1.5433 -3.0872
   75SLPC    HB 6679   3.274   1.274   6.550 -1.4710 -0.9299  1.3993
   75SLPC    C2 6680   3.228   1.111   6.677  0.6781 -0.2087 -0.2617
   75SLPC    HS 6681   3.120   1.134   6.659  0.8648 -0.2061 -1.4741
   75SLPC   O21 6682   3.274   1.151   6.810  0.7575  0.3082 -0.0493
   75SLPC   C21 6683   3.225   1.272   6.847  0.0434 -0.0479  0.1148
   75SLPC   O22 6684   3.156   1.348   6.780  0.2761 -0.7473 -0.1266
   75SLPC   C22 6685   3.268   1.293   6.992  0.1679 -0.2642  0.0916
   75SLPC   H2R 6686   3.334   1.206   7.014  1.7058  0.6776 -0.5963
   75SLPC   H2S 6687   3.321   1.390   6.988 -1.3431  0.5499 -2.7863
   75SLPC    C3 6688   3.219   0.952   6.663  0.7362 -0.2876 -0.2706
   75SLPC    HX 6689   3.324   0.928   6.634  0.8680  2.9057 -3.0113
   75SLPC    HY 6690   3.152   0.924   6.579 -0.6380 -2.8583  1.5290
   75SLPC   O31 6691   3.180   0.875   6.780  0.1246  0.6175  0.5574
   75SLPC   C31 6692   3.056   0.898   6.817  0.8935  0.3802  0.8198
   75SLPC   O32 6693   2.979   0.963   6.744  0.7942 -0.0905 -0.7360
   75SLPC   C32 6694   3.026   0.834   6.951 -0.1515  0.2889 -0.1150
   75SLPC   H2X 6695   3.103   0.872   7.022  0.6944  0.0327 -0.8725
   75SLPC   H2Y 6696   3.058   0.728   6.944  1.9519  0.9056 -0.9134
   75SLPC   C23 6697   3.150   1.288   7.092 -0.3096  1.3159 -0.6146
   75SLPC   H3R 6698   3.099   1.190   7.095  0.9803  0.6171 -0.8419
   75SLPC   H3S 6699   3.075   1.368   7.073 -0.1039  1.5570 -0.4292
   75SLPC   C24 6700   3.204   1.306   7.238 -0.5060 -0.5140  0.3109
   75SLPC   H4R 6701   3.131   1.344   7.312  1.6740  3.1890  0.7887
   75SLPC   H4S 6702   3.290   1.376   7.233 -0.6571 -0.0243  3.1859
   75SLPC   C25 6703   3.262   1.175   7.292 -0.6451 -0.4462 -0.4351
   75SLPC   H5R 6704   3.345   1.192   7.363 -1.4315  1.3634  0.1203
   75SLPC   H5S 6705   3.328   1.128   7.216  0.8156 -1.1471  1.2126
   75SLPC   C26 6706   3.160   1.080   7.351  0.3261  0.0767  0.7045
   75SLPC   H6R 6707   3.209   0.985   7.381 -1.6241 -1.3020 -0.2155
   75SLPC   H6S 6708   3.086   1.047   7.274  0.8506 -1.4680  0.8137
   75SLPC   C27 6709   3.077   1.127   7.476 -1.1438  0.3339 -0.7334
   75SLPC   H7R 6710   3.011   1.043   7.506  1.2073 -2.9531 -3.8237
   75SLPC   H7S 6711   3.018   1.219   7.456  1.3803  2.8538  2.3511
   75SLPC   C28 6712   3.176   1.169   7.587 -0.6654  0.2977  0.3474
   75SLPC   H8R 6713   3.258   1.231   7.545  1.1044  0.4809  3.7151
   75SLPC   H8S 6714   3.213   1.070   7.622  1.5465 -0.0092 -2.4865
   75SLPC   C29 6715   3.108   1.239   7.701 -0.4826  0.2858  0.3020
   75SLPC   H9R 6716   3.073   1.341   7.678  0.7927  1.0865  1.7112
   75SLPC  C210 6717   3.089   1.200   7.824  0.5492  0.1085  0.0543
   75SLPC  H10R 6718   3.031   1.265   7.891 -2.3159  0.2834 -2.3722
   75SLPC  C211 6719   3.126   1.062   7.881 -0.7094  0.1277  1.2754
   75SLPC  H11R 6720   3.234   1.061   7.909  0.4150 -2.8504 -2.4198
   75SLPC  H11S 6721   3.114   0.986   7.802  2.4297  1.0580 -0.2802
   75SLPC  C212 6722   3.040   1.037   8.003  0.1820  0.3095  0.8143
   75SLPC  H12R 6723   2.938   1.030   7.962  0.8687  2.4467 -1.4719
   75SLPC  C213 6724   3.075   0.997   8.127 -0.1651 -0.6378  0.0200
   75SLPC  H13R 6725   2.995   0.978   8.200  2.7293  0.8742  3.9074
   75SLPC  C214 6726   3.216   0.969   8.182  0.1389 -0.3225  0.3096
   75SLPC  H14R 6727   3.301   1.011   8.125  0.8758 -0.3284  1.3646
   75SLPC  H14S 6728   3.232   0.861   8.159 -1.2334 -1.0940  2.6026
   75SLPC  C215 6729   3.219   0.997   8.331  0.9358 -0.1650  0.9803
   75SLPC  H15R 6730   3.128   0.957   8.381 -0.9245  1.4234 -0.9009
   75SLPC  H15S 6731   3.202   1.106   8.341  1.1688  0.0211 -0.4168
   75SLPC  C216 6732   3.352   0.972   8.401 -0.3439 -0.1456  0.3177
   75SLPC  H16R 6733   3.431   1.029   8.348  0.0455 -0.3617  0.6637
   75SLPC  H16S 6734   3.381   0.865   8.392  1.0996  0.0979  1.7375
   75SLPC  C217 6735   3.365   1.016   8.550  0.7838  0.1819  0.3712
   75SLPC  H17R 6736   3.278   0.985   8.611  0.7351  2.3377  1.5242
   75SLPC  H17S 6737   3.370   1.127   8.556  2.0392  0.3443 -2.1718
   75SLPC  C218 6738   3.490   0.961   8.613 -0.2572 -0.1334  0.8476
   75SLPC  H18R 6739   3.481   0.971   8.724  0.4666 -2.2473  1.1437
   75SLPC  H18S 6740   3.587   1.000   8.575 -0.6727 -0.9781 -1.1792
   75SLPC  H18T 6741   3.494   0.851   8.596 -2.6560 -0.1702  0.2610
   75SLPC   C33 6742   2.876   0.851   6.988 -0.4706  0.3006  0.0599
   75SLPC   H3X 6743   2.847   0.956   6.965 -1.4048  0.6471  2.4497
   75SLPC   H3Y 6744   2.822   0.781   6.922  0.5103 -0.9257  0.5190
   75SLPC   C34 6745   2.836   0.815   7.132  0.2915  0.3662  0.0806
   75SLPC   H4X 6746   2.725   0.821   7.138  0.0412 -3.1776  1.4651
   75SLPC   H4Y 6747   2.870   0.892   7.204  0.9722  0.1285  0.0194
   75SLPC   C35 6748   2.873   0.674   7.185 -0.5129  0.2862  0.3374
   75SLPC   H5X 6749   2.983   0.683   7.198 -0.2878  2.1693 -2.0083
   75SLPC   H5Y 6750   2.839   0.597   7.112  0.1005 -1.1516  1.5323
   75SLPC   C36 6751   2.815   0.638   7.327 -0.1170 -0.9348 -0.6740
   75SLPC   H6X 6752   2.831   0.531   7.353  2.7245 -0.3288  0.3196
   75SLPC   H6Y 6753   2.707   0.664   7.321  0.8064  3.2874 -2.5894
   75SLPC   C37 6754   2.889   0.710   7.442 -0.2330 -0.1202  0.2936
   75SLPC   H7X 6755   2.880   0.821   7.439 -0.6867 -0.1719 -1.0757
   75SLPC   H7Y 6756   2.994   0.685   7.420 -0.4009 -0.3923 -0.2126
   75SLPC   C38 6757   2.870   0.656   7.579 -0.1274  0.5835 -0.4492
   75SLPC   H8X 6758   2.915   0.557   7.600  0.4166  1.0389  0.5984
   75SLPC   H8Y 6759   2.762   0.647   7.604 -0.2751 -0.0273 -1.2663
   75SLPC   C39 6760   2.916   0.755   7.692 -0.7473 -0.1171 -0.4756
   75SLPC   H9X 6761   2.849   0.843   7.693 -1.4644 -0.6462 -1.1689
   75SLPC   H9Y 6762   3.017   0.789   7.659 -0.3231  0.7352  1.5508
   75SLPC  C310 6763   2.917   0.701   7.835 -0.2925 -0.0822  0.2710
   75SLPC  H10X 6764   2.971   0.777   7.894 -0.7344  0.0983  0.4437
   75SLPC  H10Y 6765   2.975   0.606   7.838 -0.6076 -0.2697  0.5337
   75SLPC  C311 6766   2.773   0.677   7.888 -0.5867  0.1293 -0.0214
   75SLPC  H11X 6767   2.716   0.606   7.824  0.3669 -0.7937  0.1131
   75SLPC  H11Y 6768   2.720   0.774   7.885  0.7683  0.9774  1.5994
   75SLPC  C312 6769   2.786   0.612   8.027 -0.0460 -0.3708  0.0631
   75SLPC  H12X 6770   2.813   0.507   8.004  0.2366 -0.2308 -0.2539
   75SLPC  H12Y 6771   2.689   0.624   8.080  0.6665  2.2160  0.9328
   75SLPC  C313 6772   2.889   0.683   8.116  0.1716 -0.7006 -0.6480
   75SLPC  H13X 6773   2.861   0.790   8.127  1.3570 -0.5306  1.2669
   75SLPC  H13Y 6774   2.993   0.681   8.077  0.8099 -1.0276  0.9846
   75SLPC  C314 6775   2.888   0.617   8.251 -0.4334 -0.4149 -0.6912
   75SLPC  H14X 6776   2.893   0.506   8.248 -1.5271 -0.4477 -2.0615
   75SLPC  H14Y 6777   2.789   0.649   8.289 -0.7103  1.8487 -3.0649
   75SLPC  C315 6778   2.989   0.676   8.357 -0.2719  0.0426  0.0223
   75SLPC  H15X 6779   2.980   0.786   8.343  3.5222  0.2704 -2.0569
   75SLPC  H15Y 6780   3.094   0.654   8.327 -0.3792 -1.2036  0.5081
   75SLPC  C316 6781   2.962   0.630   8.499 -0.3343 -0.4519  0.0417
   75SLPC  H16X 6782   2.947   0.521   8.511 -0.2959 -0.3432  1.1344
   75SLPC  H16Y 6783   2.870   0.685   8.529  0.5071  0.3470  1.2304
   75SLPC  C317 6784   3.081   0.665   8.595 -0.4118 -0.4237  0.8017
   75SLPC  H17X 6785   3.133   0.759   8.566  1.3872 -1.0628  1.8096
   75SLPC  H17Y 6786   3.152   0.581   8.584 -1.5027 -1.4150  1.1111
   75SLPC  C318 6787   3.036   0.664   8.738 -0.2586 -0.6512  0.6126
   75SLPC  H18X 6788   3.125   0.685   8.801  0.2549 -0.9285 -0.0119
   75SLPC  H18Y 6789   2.997   0.567   8.774 -0.8630 -0.8396 -0.5027
   75SLPC  H18Z 6790   2.957   0.742   8.745 -0.4446 -0.5239 -2.0622
   76SLPC     N 6791   0.647   5.796   5.990  0.5978 -0.3488 -0.2610
   76SLPC   C13 6792   0.761   5.872   6.046 -0.1408 -0.3105 -0.0432
   76SLPC  H13A 6793   0.862   5.836   6.055  0.5436  1.2631 -1.0540
   76SLPC  H13B 6794   0.764   5.966   5.992 -1.9310  1.1849  2.2391
   76SLPC  H13C 6795   0.731   5.919   6.138  0.8124  2.5155 -1.0738
   76SLPC   C14 6796   0.624   5.675   6.078 -0.2625  0.5701 -0.3209
   76SLPC  H14A 6797   0.524   5.638   6.057  0.4946 -1.6349 -0.2867
   76SLPC  H14B 6798   0.698   5.597   6.070 -0.4583  0.3836 -0.3333
   76SLPC  H14C 6799   0.627   5.708   6.181 -1.1973 -0.6975  0.1315
   76SLPC   C15 6800   0.679   5.744   5.853 -0.2141  0.8777 -0.0721
   76SLPC  H15A 6801   0.595   5.712   5.793  0.6169  0.5153 -1.0864
   76SLPC  H15B 6802   0.747   5.811   5.801  0.2632  0.5082  0.0645
   76SLPC  H15C 6803   0.719   5.645   5.863 -1.0986  0.6226  1.0146
   76SLPC   C12 6804   0.513   5.870   6.005  0.3996  0.0368  0.3508
   76SLPC  H12A 6805   0.489   5.885   6.109 -0.1074  1.9607 -0.0051
   76SLPC  H12B 6806   0.435   5.806   5.969 -0.3360  0.0558  1.8247
   76SLPC   C11 6807   0.500   6.002   5.922  0.0575  0.6755 -0.1098
   76SLPC  H11A 6808   0.395   6.036   5.939  0.2397  0.1032  2.5053
   76SLPC  H11B 6809   0.517   5.971   5.817 -3.5525 -1.8536 -0.1432
   76SLPC     P 6810   0.573   6.186   6.090  0.0524 -0.0180 -0.3513
   76SLPC   O13 6811   0.689   6.284   6.089  0.0720 -0.1289  0.8485
   76SLPC   O14 6812   0.436   6.240   6.090  0.2244 -0.1497  0.3249
   76SLPC   O12 6813   0.590   6.094   5.968  0.1369  0.2050  0.1378
   76SLPC   O11 6814   0.591   6.087   6.217  0.0395 -0.4570  0.5154
   76SLPC    C1 6815   0.515   6.114   6.336 -0.6859 -0.1664 -0.3957
   76SLPC    HA 6816   0.573   6.182   6.403 -0.7202 -0.3741 -0.1547
   76SLPC    HB 6817   0.414   6.154   6.313  0.1383  2.0577 -0.4231
   76SLPC    C2 6818   0.484   5.987   6.413  0.7277 -0.0207  0.3108
   76SLPC    HS 6819   0.435   5.917   6.341  3.1579  1.6972 -3.3434
   76SLPC   O21 6820   0.382   6.023   6.506 -0.0384  0.0316  0.4126
   76SLPC   C21 6821   0.273   5.945   6.510 -0.0038  0.2291 -0.5161
   76SLPC   O22 6822   0.262   5.839   6.449 -0.5677  0.1046 -0.1410
   76SLPC   C22 6823   0.178   6.000   6.613 -0.1563  0.0628 -0.2083
   76SLPC   H2R 6824   0.229   6.020   6.709  0.2716 -2.0352  0.0428
   76SLPC   H2S 6825   0.145   6.099   6.575  0.7325  0.6526  0.5338
   76SLPC    C3 6826   0.609   5.927   6.482  0.7464  0.1526  0.0354
   76SLPC    HX 6827   0.692   5.900   6.413  0.1640 -0.1975 -0.5398
   76SLPC    HY 6828   0.562   5.831   6.511 -1.7191  2.1420  3.3426
   76SLPC   O31 6829   0.649   5.991   6.605  0.3136 -0.0403 -0.3798
   76SLPC   C31 6830   0.778   6.039   6.614 -0.0214 -0.5278  0.2224
   76SLPC   O32 6831   0.859   6.022   6.527 -0.2848  0.7385  0.2480
   76SLPC   C32 6832   0.800   6.112   6.745  0.2882 -0.0318 -0.3638
   76SLPC   H2X 6833   0.714   6.177   6.772  0.5470  0.8994 -1.6855
   76SLPC   H2Y 6834   0.890   6.177   6.735  1.0859 -1.0449 -0.0165
   76SLPC   C23 6835   0.061   5.904   6.645  0.1966 -0.2326 -0.0517
   76SLPC   H3R 6836   0.107   5.809   6.679 -1.2259  0.2730  3.7629
   76SLPC   H3S 6837   0.010   5.890   6.547  0.3942 -1.3946 -0.0091
   76SLPC   C24 6838  -0.042   5.959   6.747  0.2099  0.0038  1.3286
   76SLPC   H4R 6839  -0.055   6.070   6.740  1.8695  0.1485 -0.2639
   76SLPC   H4S 6840   0.011   5.936   6.842  0.7307  0.8840  1.2630
   76SLPC   C25 6841  -0.169   5.874   6.757 -0.5472  0.3612  0.5886
   76SLPC   H5R 6842  -0.151   5.765   6.763  1.2721  0.4471 -1.8314
   76SLPC   H5S 6843  -0.217   5.888   6.657  0.6945 -0.4801 -0.1568
   76SLPC   C26 6844  -0.271   5.905   6.862 -0.1855  0.3516  0.0942
   76SLPC   H6R 6845  -0.366   5.850   6.841  0.1946 -0.1658 -0.3174
   76SLPC   H6S 6846  -0.293   6.013   6.858  2.0771  0.8514 -0.3479
   76SLPC   C27 6847  -0.210   5.862   6.993  0.2720 -0.0933  0.3119
   76SLPC   H7R 6848  -0.106   5.898   7.006 -0.2164  1.6628 -0.3310
   76SLPC   H7S 6849  -0.202   5.751   6.987  1.2462  0.0233 -1.3167
   76SLPC   C28 6850  -0.297   5.911   7.105  0.7039  0.2051  0.5188
   76SLPC   H8R 6851  -0.286   6.021   7.095  2.8203 -0.0329 -0.2652
   76SLPC   H8S 6852  -0.402   5.880   7.082  0.8804  0.5680 -0.8414
   76SLPC   C29 6853  -0.248   5.852   7.241 -0.1008 -0.1133  0.4649
   76SLPC   H9R 6854  -0.214   5.747   7.243  2.4651  0.6227 -0.7498
   76SLPC  C210 6855  -0.235   5.916   7.354  0.1222  0.7056  0.3342
   76SLPC  H10R 6856  -0.195   5.861   7.440  2.2107  1.2549 -0.2489
   76SLPC  C211 6857  -0.262   6.061   7.381 -0.2929  0.2202 -0.2412
   76SLPC  H11R 6858  -0.256   6.115   7.285  1.3913 -1.2015 -0.9998
   76SLPC  H11S 6859  -0.180   6.098   7.446  0.1601  1.8250 -1.6571
   76SLPC  C212 6860  -0.401   6.089   7.434 -0.6816 -0.2756  0.2711
   76SLPC  H12R 6861  -0.474   6.115   7.356  2.3408 -0.3987 -2.8081
   76SLPC  C213 6862  -0.439   6.076   7.560 -1.0548  0.0553 -0.1688
   76SLPC  H13R 6863  -0.539   6.097   7.600 -0.6980 -0.8776  1.2672
   76SLPC  C214 6864  -0.343   6.042   7.671  0.4762 -0.5386  0.3360
   76SLPC  H14R 6865  -0.298   6.135   7.712 -1.0704  0.6755 -0.6225
   76SLPC  H14S 6866  -0.261   5.976   7.635 -0.5919  0.0227 -3.5824
   76SLPC  C215 6867  -0.410   5.961   7.792  0.0594 -0.1552  0.5316
   76SLPC  H15R 6868  -0.440   5.864   7.748 -0.0833 -0.2460  0.8293
   76SLPC  H15S 6869  -0.505   6.018   7.800  0.6598  1.0132 -0.3882
   76SLPC  C216 6870  -0.325   5.962   7.921 -0.1403  0.0792  0.5096
   76SLPC  H16R 6871  -0.223   5.958   7.877  0.0831 -0.1119  1.0333
   76SLPC  H16S 6872  -0.352   5.873   7.982 -0.8273 -0.1703 -0.1537
   76SLPC  C217 6873  -0.364   6.090   7.987 -0.1479  0.3918  0.1218
   76SLPC  H17R 6874  -0.471   6.077   8.014  0.4945 -0.8689  2.2575
   76SLPC  H17S 6875  -0.348   6.174   7.916  0.9333  0.6475  0.6460
   76SLPC  C218 6876  -0.284   6.110   8.113 -0.1268 -0.3906 -0.3018
   76SLPC  H18R 6877  -0.327   6.199   8.164 -1.4654 -1.5732  0.7346
   76SLPC  H18S 6878  -0.178   6.131   8.089 -0.8054  1.3258 -2.0062
   76SLPC  H18T 6879  -0.301   6.026   8.183 -3.1693 -2.7933 -3.5310
   76SLPC   C33 6880   0.845   6.016   6.858  0.4919  0.7044  0.5211
   76SLPC   H3X 6881   0.948   5.980   6.839  0.0573 -2.1114  2.8019
   76SLPC   H3Y 6882   0.788   5.922   6.873 -1.2398  1.7332  0.7821
   76SLPC   C34 6883   0.849   6.079   6.987 -0.4522 -0.1653  0.1696
   76SLPC   H4X 6884   0.876   6.187   6.989 -0.1382 -0.2600  1.6231
   76SLPC   H4Y 6885   0.925   6.023   7.046 -1.5967 -1.2567  0.6599
   76SLPC   C35 6886   0.721   6.074   7.083 -0.0238  0.2479  0.3393
   76SLPC   H5X 6887   0.714   5.966   7.109  0.8413  0.0500 -0.2195
   76SLPC   H5Y 6888   0.646   6.119   7.015  0.3427 -1.3569 -1.1820
   76SLPC   C36 6889   0.729   6.147   7.215 -0.2523 -0.3157 -0.1459
   76SLPC   H6X 6890   0.624   6.160   7.249  0.4204  1.4456  1.3740
   76SLPC   H6Y 6891   0.775   6.247   7.198  0.2709 -0.6616 -0.8056
   76SLPC   C37 6892   0.808   6.086   7.332  0.0083 -1.0089 -0.1083
   76SLPC   H7X 6893   0.917   6.099   7.312 -0.6124  1.0312 -2.6646
   76SLPC   H7Y 6894   0.779   5.979   7.342 -0.2427 -1.1154 -1.6711
   76SLPC   C38 6895   0.776   6.160   7.467  0.1028  0.2589 -0.5149
   76SLPC   H8X 6896   0.667   6.150   7.487  0.2867  0.1109  0.4784
   76SLPC   H8Y 6897   0.796   6.270   7.462  1.2505  0.1378  0.7729
   76SLPC   C39 6898   0.837   6.090   7.582 -0.9537  0.5551 -0.2468
   76SLPC   H9X 6899   0.947   6.082   7.570 -0.6907  0.5134  1.7323
   76SLPC   H9Y 6900   0.800   5.985   7.579 -0.9574  0.5771 -1.8620
   76SLPC  C310 6901   0.811   6.160   7.719  0.2804  0.3671 -0.2622
   76SLPC  H10X 6902   0.702   6.148   7.733  0.0321 -0.1253 -2.2066
   76SLPC  H10Y 6903   0.841   6.266   7.706 -0.1458  0.4567 -0.5427
   76SLPC  C311 6904   0.887   6.081   7.829 -0.5038 -0.3973 -0.0074
   76SLPC  H11X 6905   0.998   6.095   7.829 -0.5146  0.1372  2.2911
   76SLPC  H11Y 6906   0.860   5.974   7.820 -3.1739  0.2787 -0.7467
   76SLPC  C312 6907   0.845   6.130   7.966 -0.5169 -0.1931  0.3130
   76SLPC  H12X 6908   0.739   6.105   7.989 -0.9010  1.5396  0.5514
   76SLPC  H12Y 6909   0.858   6.240   7.973  1.2134 -0.2883 -0.8544
   76SLPC  C313 6910   0.931   6.059   8.073 -0.2980  0.3858  0.3355
   76SLPC  H13X 6911   1.039   6.071   8.053 -0.1510 -0.4806  0.5736
   76SLPC  H13Y 6912   0.919   5.949   8.063 -0.2810  0.5432 -2.1559
   76SLPC  C314 6913   0.907   6.101   8.222 -0.3301  0.6097 -0.0601
   76SLPC  H14X 6914   0.803   6.136   8.243  0.4210  2.8627  0.2225
   76SLPC  H14Y 6915   0.966   6.195   8.227 -0.6598  0.9311 -1.6148
   76SLPC  C315 6916   0.950   5.997   8.328 -0.7772 -0.5406 -0.5699
   76SLPC  H15X 6917   1.060   5.986   8.319 -0.3466 -0.0301  2.7461
   76SLPC  H15Y 6918   0.895   5.901   8.317 -1.5393 -0.1503 -0.1935
   76SLPC  C316 6919   0.934   6.055   8.470 -0.4215 -0.7535  0.5107
   76SLPC  H16X 6920   0.840   6.115   8.479  0.9706  1.3805  1.5609
   76SLPC  H16Y 6921   1.013   6.130   8.491 -0.7896  0.8454 -2.9849
   76SLPC  C317 6922   0.948   5.943   8.581  0.0401 -0.5797  1.0885
   76SLPC  H17X 6923   0.889   5.853   8.553 -1.2857  0.8988 -1.1429
   76SLPC  H17Y 6924   0.912   5.984   8.678 -1.6984  0.9637 -0.1442
   76SLPC  C318 6925   1.099   5.905   8.582  0.2300 -0.0626  0.0401
   76SLPC  H18X 6926   1.155   5.996   8.614 -0.6930  0.2497  0.8236
   76SLPC  H18Y 6927   1.145   5.893   8.482 -1.0441  0.1684 -0.5945
   76SLPC  H18Z 6928   1.120   5.814   8.642 -0.0738 -1.3921 -1.8140
   77SLPC     N 6929   2.838   5.441   6.131 -0.2173 -0.6120  0.2432
   77SLPC   C13 6930   2.900   5.542   6.225 -0.2826 -0.1956  0.0966
   77SLPC  H13A 6931   2.986   5.581   6.172 -1.6447  2.6326 -0.2346
   77SLPC  H13B 6932   2.832   5.624   6.242 -0.3649 -0.1250 -0.5527
   77SLPC  H13C 6933   2.936   5.505   6.319 -0.8088 -0.3836  0.2290
   77SLPC   C14 6934   2.951   5.371   6.067 -0.0780 -0.3184 -0.3054
   77SLPC  H14A 6935   2.910   5.310   5.987 -1.6093 -1.5673  1.3624
   77SLPC  H14B 6936   3.004   5.447   6.010 -1.7281  0.5500 -0.7500
   77SLPC  H14C 6937   3.020   5.317   6.130  0.9546  0.1437 -0.9953
   77SLPC   C15 6938   2.765   5.506   6.018 -0.3159 -0.4826  0.0697
   77SLPC  H15A 6939   2.835   5.569   5.966  0.3208 -1.1921  0.0680
   77SLPC  H15B 6940   2.723   5.435   5.948 -3.3351  1.5524 -0.4183
   77SLPC  H15C 6941   2.688   5.574   6.054  0.8129  0.3898  0.9292
   77SLPC   C12 6942   2.741   5.352   6.200 -0.5224  0.3122  0.6781
   77SLPC  H12A 6943   2.785   5.322   6.294 -2.5239 -0.5528  1.3890
   77SLPC  H12B 6944   2.726   5.266   6.137 -2.4736  2.4033 -1.9294
   77SLPC   C11 6945   2.603   5.398   6.235 -0.1685  0.1247  0.0410
   77SLPC  H11A 6946   2.566   5.319   6.304  1.7682  0.8604  2.0328
   77SLPC  H11B 6947   2.544   5.411   6.142  2.1437  0.9826 -1.3960
   77SLPC     P 6948   2.537   5.650   6.283 -0.3248 -0.2040 -0.2552
   77SLPC   O13 6949   2.639   5.729   6.213 -0.6619  0.2390 -0.1907
   77SLPC   O14 6950   2.408   5.622   6.211  0.3839 -0.5287  0.4261
   77SLPC   O12 6951   2.597   5.507   6.319  0.1217 -0.3235  0.1924
   77SLPC   O11 6952   2.509   5.725   6.419 -0.4676 -0.0036  0.4607
   77SLPC    C1 6953   2.430   5.685   6.523 -0.4303 -0.0017 -0.0808
   77SLPC    HA 6954   2.326   5.673   6.488 -0.9191 -2.2205  1.8739
   77SLPC    HB 6955   2.456   5.584   6.561 -0.0124  0.6218  1.3684
   77SLPC    C2 6956   2.434   5.773   6.648 -0.3674 -0.0293 -0.4830
   77SLPC    HS 6957   2.414   5.880   6.628  0.6076  1.0144  3.3404
   77SLPC   O21 6958   2.568   5.758   6.713 -0.9314 -0.4855  0.2888
   77SLPC   C21 6959   2.611   5.851   6.794 -0.8229  0.4890  1.0611
   77SLPC   O22 6960   2.558   5.957   6.818 -0.1498 -0.1681 -0.7756
   77SLPC   C22 6961   2.752   5.807   6.837 -0.0555  0.1305  0.0018
   77SLPC   H2R 6962   2.755   5.697   6.828 -2.7113 -0.2991  2.5282
   77SLPC   H2S 6963   2.827   5.843   6.764  0.2263 -1.7012 -0.6640
   77SLPC    C3 6964   2.325   5.736   6.758  0.1348  0.0758  0.3679
   77SLPC    HX 6965   2.320   5.626   6.768 -0.9389  0.2132  1.6162
   77SLPC    HY 6966   2.225   5.762   6.717 -0.1378 -2.0153 -0.4291
   77SLPC   O31 6967   2.347   5.791   6.892 -0.1878  0.1646  0.4083
   77SLPC   C31 6968   2.285   5.900   6.930 -0.3520 -0.1226  0.2900
   77SLPC   O32 6969   2.200   5.955   6.866 -0.0886 -0.6993  0.0405
   77SLPC   C32 6970   2.355   5.951   7.056  0.0327  0.1549 -0.0714
   77SLPC   H2X 6971   2.359   6.061   7.044 -0.7002  0.3566  1.3333
   77SLPC   H2Y 6972   2.459   5.915   7.071 -0.5859 -1.8615 -0.3340
   77SLPC   C23 6973   2.778   5.841   6.985 -0.6277 -0.4516 -0.2481
   77SLPC   H3R 6974   2.686   5.824   7.044 -2.6828  2.1856 -2.4514
   77SLPC   H3S 6975   2.797   5.950   6.989 -1.5566 -0.2968  0.1028
   77SLPC   C24 6976   2.899   5.768   7.041 -0.1444  0.9729 -0.1079
   77SLPC   H4R 6977   2.988   5.791   6.978 -1.6682  0.7270 -2.4721
   77SLPC   H4S 6978   2.887   5.659   7.027  0.9243  0.6062  1.5529
   77SLPC   C25 6979   2.930   5.789   7.194  0.0319  0.2817  0.1044
   77SLPC   H5R 6980   2.955   5.894   7.222  0.6658  0.4161 -0.9013
   77SLPC   H5S 6981   3.031   5.749   7.214  0.1782  0.1698 -0.8251
   77SLPC   C26 6982   2.830   5.722   7.287  0.5228  0.0800 -0.5620
   77SLPC   H6R 6983   2.800   5.632   7.229  1.7226 -0.0943 -0.9469
   77SLPC   H6S 6984   2.738   5.784   7.294  0.8292  0.4772 -0.0207
   77SLPC   C27 6985   2.893   5.687   7.421 -0.3735 -0.4369  0.4616
   77SLPC   H7R 6986   2.996   5.649   7.411 -0.7599 -1.4639  0.3153
   77SLPC   H7S 6987   2.822   5.614   7.465 -0.9434 -0.2890 -0.2039
   77SLPC   C28 6988   2.897   5.809   7.513 -0.2497  0.1216  0.2638
   77SLPC   H8R 6989   2.952   5.888   7.457 -2.3291  2.6534  1.5768
   77SLPC   H8S 6990   2.971   5.794   7.595  2.1519 -2.2267 -2.1182
   77SLPC   C29 6991   2.766   5.865   7.561  0.4197  0.2297  0.0340
   77SLPC   H9R 6992   2.689   5.894   7.488  1.3531  0.3815 -0.9110
   77SLPC  C210 6993   2.727   5.865   7.687  0.7753 -0.1130 -0.5151
   77SLPC  H10R 6994   2.622   5.887   7.711  1.3530  1.0472  1.1064
   77SLPC  C211 6995   2.810   5.812   7.800 -0.2624  0.0414  0.1353
   77SLPC  H11R 6996   2.916   5.845   7.801 -0.0693 -0.3239 -2.1469
   77SLPC  H11S 6997   2.815   5.701   7.788 -1.9358  0.0812 -1.3795
   77SLPC  C212 6998   2.764   5.841   7.941 -0.2705 -0.2994  0.2373
   77SLPC  H12R 6999   2.722   5.756   7.996 -2.4033 -0.9589 -2.2100
   77SLPC  C213 7000   2.779   5.957   8.004  0.5182  0.1758 -0.4133
   77SLPC  H13R 7001   2.734   5.959   8.104 -1.9602 -0.6950 -1.4526
   77SLPC  C214 7002   2.843   6.080   7.947  0.2589 -0.1141  0.0660
   77SLPC  H14R 7003   2.762   6.151   7.971 -1.0131 -1.2528 -0.7522
   77SLPC  H14S 7004   2.856   6.077   7.837 -4.1686 -1.0872 -0.5959
   77SLPC  C215 7005   2.965   6.120   8.032 -0.2087  1.1932 -0.6091
   77SLPC  H15R 7006   3.003   6.217   7.994 -1.8622  1.3947 -1.8471
   77SLPC  H15S 7007   3.035   6.035   8.020 -0.6589  0.5055  1.2606
   77SLPC  C216 7008   2.937   6.142   8.180  0.2008 -0.1081 -0.6358
   77SLPC  H16R 7009   2.877   6.056   8.218  3.1227 -2.0024 -0.0204
   77SLPC  H16S 7010   2.876   6.234   8.187 -0.8135 -0.6994 -1.3693
   77SLPC  C217 7011   3.062   6.186   8.259  0.3438 -0.6148 -0.1381
   77SLPC  H17R 7012   3.117   6.090   8.272  0.1685 -0.5892  0.8946
   77SLPC  H17S 7013   3.030   6.219   8.360 -0.2466  1.9575 -1.1034
   77SLPC  C218 7014   3.146   6.296   8.200  0.0995 -0.3709 -0.1050
   77SLPC  H18R 7015   3.216   6.340   8.275  0.9590 -0.0095 -1.0944
   77SLPC  H18S 7016   3.100   6.394   8.176  0.1816 -0.2018  0.4086
   77SLPC  H18T 7017   3.206   6.256   8.115 -0.0623 -2.3321  0.6456
   77SLPC   C33 7018   2.277   5.912   7.189  0.7637  0.2389  0.2003
   77SLPC   H3X 7019   2.353   5.927   7.269  1.1772 -0.1887 -0.1091
   77SLPC   H3Y 7020   2.262   5.802   7.185  1.8390  0.1269 -1.6589
   77SLPC   C34 7021   2.142   5.979   7.214  0.8091 -0.8375 -0.4093
   77SLPC   H4X 7022   2.095   5.959   7.313 -1.6951  4.3319 -0.2485
   77SLPC   H4Y 7023   2.075   5.940   7.135 -3.1685  1.3992  1.5330
   77SLPC   C35 7024   2.152   6.127   7.204 -0.1141  0.2112 -0.4312
   77SLPC   H5X 7025   2.192   6.153   7.104  1.2929  0.9292  0.2977
   77SLPC   H5Y 7026   2.230   6.156   7.277 -0.4636 -0.2888  0.1467
   77SLPC   C36 7027   2.026   6.209   7.231 -0.2379 -0.1719  0.2029
   77SLPC   H6X 7028   1.943   6.170   7.169 -1.5309 -1.4705  2.6182
   77SLPC   H6Y 7029   2.039   6.315   7.200 -1.8350  0.3513  1.2067
   77SLPC   C37 7030   1.982   6.215   7.381 -0.3658  0.6165 -0.4231
   77SLPC   H7X 7031   1.980   6.113   7.424 -0.5938  0.2801 -1.2270
   77SLPC   H7Y 7032   1.876   6.249   7.387 -0.3921  0.3713  1.1056
   77SLPC   C38 7033   2.083   6.297   7.476  0.1024  0.3788 -0.0978
   77SLPC   H8X 7034   2.088   6.400   7.433 -1.7277  1.1880  1.4485
   77SLPC   H8Y 7035   2.185   6.255   7.477 -0.1980 -0.5217  3.3550
   77SLPC   C39 7036   2.027   6.328   7.613  0.1762  0.1344  0.5846
   77SLPC   H9X 7037   1.955   6.410   7.598  2.1726  2.0004  0.6920
   77SLPC   H9Y 7038   2.112   6.362   7.676 -0.2740 -0.6923  1.6615
   77SLPC  C310 7039   1.960   6.214   7.688  0.3747  0.1547  0.1268
   77SLPC  H10X 7040   2.034   6.133   7.706 -0.6276 -0.5458  1.2749
   77SLPC  H10Y 7041   1.869   6.188   7.630  0.5987  0.2806 -0.2871
   77SLPC  C311 7042   1.901   6.262   7.831 -0.0534 -0.7217 -0.0332
   77SLPC  H11X 7043   1.985   6.300   7.893 -2.4932  0.1680  3.0014
   77SLPC  H11Y 7044   1.863   6.176   7.890  1.2533 -1.3846 -0.1206
   77SLPC  C312 7045   1.794   6.378   7.824  0.1439  0.4672  0.7984
   77SLPC  H12X 7046   1.718   6.335   7.756 -0.2645  2.3163  0.0350
   77SLPC  H12Y 7047   1.841   6.474   7.794 -1.3959  1.0373  0.1319
   77SLPC  C313 7048   1.731   6.405   7.965  0.0113  0.5311 -0.4449
   77SLPC  H13X 7049   1.692   6.509   7.957 -0.1455  0.3571 -2.1996
   77SLPC  H13Y 7050   1.809   6.399   8.044  0.4781  0.7016 -0.8875
   77SLPC  C314 7051   1.610   6.313   7.994 -0.2540  0.1589 -0.0585
   77SLPC  H14X 7052   1.651   6.211   8.004  1.1757  0.7309  0.0790
   77SLPC  H14Y 7053   1.534   6.319   7.913  1.3723 -0.7494 -1.7007
   77SLPC  C315 7054   1.529   6.345   8.125 -0.0629  0.6624  0.3553
   77SLPC  H15X 7055   1.481   6.442   8.101  1.2257  0.8117 -1.8812
   77SLPC  H15Y 7056   1.610   6.341   8.201 -0.8246 -0.7692  1.1322
   77SLPC  C316 7057   1.430   6.231   8.145  0.3814  0.1234  0.0502
   77SLPC  H16X 7058   1.486   6.135   8.148 -0.6942 -0.6527 -2.4230
   77SLPC  H16Y 7059   1.353   6.226   8.066  1.6688 -1.4424 -1.1664
   77SLPC  C317 7060   1.372   6.241   8.295  0.0253  0.1866  0.2642
   77SLPC  H17X 7061   1.280   6.303   8.301 -1.2365 -1.7645  4.0158
   77SLPC  H17Y 7062   1.452   6.295   8.350  2.7051 -2.1272 -1.0759
   77SLPC  C318 7063   1.346   6.102   8.357  0.0153  0.1625  0.1104
   77SLPC  H18X 7064   1.349   6.106   8.468  2.5595  0.7273  0.0739
   77SLPC  H18Y 7065   1.420   6.025   8.329 -0.6224 -1.3008  2.2041
   77SLPC  H18Z 7066   1.248   6.064   8.321  0.2801  0.2905 -0.7783
   78SLPC     N 7067   4.718   6.706   5.930  0.1028  0.0022  0.0975
   78SLPC   C13 7068   4.794   6.827   5.979 -0.2257 -0.0866 -0.8350
   78SLPC  H13A 7069   4.752   6.861   6.073 -1.0123 -0.1022 -1.1720
   78SLPC  H13B 7070   4.896   6.799   5.997 -0.7694 -1.7490 -0.1329
   78SLPC  H13C 7071   4.785   6.904   5.903 -0.0823  1.1430  0.3533
   78SLPC   C14 7072   4.795   6.648   5.817 -0.1483  0.3715 -0.4802
   78SLPC  H14A 7073   4.732   6.569   5.779  0.6700 -0.9030  0.7095
   78SLPC  H14B 7074   4.793   6.726   5.742 -0.1135  1.2161  0.3869
   78SLPC  H14C 7075   4.892   6.610   5.846 -0.1940  1.1320  0.7405
   78SLPC   C15 7076   4.585   6.753   5.878 -0.5609  0.3128  0.5717
   78SLPC  H15A 7077   4.543   6.809   5.960  0.1883 -1.3608  2.1899
   78SLPC  H15B 7078   4.612   6.812   5.792  1.1332 -0.3208  0.6244
   78SLPC  H15C 7079   4.530   6.663   5.854  1.7600 -0.7531 -1.1155
   78SLPC   C12 7080   4.695   6.607   6.044 -0.1710 -0.4082  0.0832
   78SLPC  H12A 7081   4.623   6.653   6.111 -0.0166 -1.7173  1.1855
   78SLPC  H12B 7082   4.792   6.591   6.089  0.6061  0.1517 -1.3128
   78SLPC   C11 7083   4.623   6.473   6.014 -0.1799  0.1114  0.3447
   78SLPC  H11A 7084   4.520   6.488   5.975  1.0371  0.8259 -2.9104
   78SLPC  H11B 7085   4.612   6.429   6.116 -0.8198 -1.8052 -0.5201
   78SLPC     P 7086   4.795   6.279   5.970  0.2338  0.0341  0.0648
   78SLPC   O13 7087   4.811   6.181   5.859  0.6112  1.2979 -0.0829
   78SLPC   O14 7088   4.910   6.351   6.026 -0.1217 -0.2873 -0.5714
   78SLPC   O12 7089   4.691   6.387   5.923  0.4553 -0.0031 -0.5480
   78SLPC   O11 7090   4.719   6.216   6.100 -0.1081  0.7879  0.8258
   78SLPC    C1 7091   4.621   6.121   6.083  0.1805 -0.4334 -0.3681
   78SLPC    HA 7092   4.529   6.159   6.036  0.1776 -1.5196 -1.2730
   78SLPC    HB 7093   4.650   6.038   6.015  0.2354 -0.3508 -0.4438
   78SLPC    C2 7094   4.579   6.080   6.224 -0.0701  0.1224  0.4382
   78SLPC    HS 7095   4.485   6.019   6.224  0.2879 -0.4368  0.8131
   78SLPC   O21 7096   4.574   6.186   6.317  0.1466 -0.4195 -0.0359
   78SLPC   C21 7097   4.465   6.260   6.325  0.2129 -0.7607  0.4504
   78SLPC   O22 7098   4.362   6.257   6.259 -0.3849 -1.0015 -0.5998
   78SLPC   C22 7099   4.485   6.366   6.425  0.1725  0.0400 -0.3589
   78SLPC   H2R 7100   4.582   6.417   6.404 -0.6620  1.6200 -0.5728
   78SLPC   H2S 7101   4.409   6.447   6.426  0.3391  0.2399  2.2698
   78SLPC    C3 7102   4.679   5.984   6.285  0.0779  0.3990 -0.3166
   78SLPC    HX 7103   4.779   6.031   6.292  1.0852 -1.7466  0.2713
   78SLPC    HY 7104   4.689   5.905   6.207 -1.7511  0.6180 -0.8379
   78SLPC   O31 7105   4.635   5.917   6.401  0.1870 -0.0993 -0.0860
   78SLPC   C31 7106   4.730   5.884   6.483 -0.4567 -0.0394  0.6052
   78SLPC   O32 7107   4.844   5.928   6.480 -0.0678  0.4532  0.4685
   78SLPC   C32 7108   4.670   5.774   6.567  0.6550  0.4266  0.7350
   78SLPC   H2X 7109   4.686   5.684   6.505  4.4718  1.1271  0.4577
   78SLPC   H2Y 7110   4.560   5.783   6.575  0.7146 -0.5735  3.9984
   78SLPC   C23 7111   4.495   6.304   6.570 -0.2206  0.7362  0.0642
   78SLPC   H3R 7112   4.540   6.202   6.574 -2.5151 -0.3643 -0.6193
   78SLPC   H3S 7113   4.396   6.281   6.613  1.1205  0.4212  3.2292
   78SLPC   C24 7114   4.577   6.383   6.662 -0.6108 -0.5596  0.2521
   78SLPC   H4R 7115   4.534   6.485   6.663  1.6672  0.4635  0.6270
   78SLPC   H4S 7116   4.679   6.397   6.619 -1.2682  3.1229 -0.4615
   78SLPC   C25 7117   4.571   6.332   6.809  0.0882 -0.4851 -0.1010
   78SLPC   H5R 7118   4.590   6.225   6.828  1.7952 -0.2450 -0.3565
   78SLPC   H5S 7119   4.470   6.358   6.849  1.3690  1.3867  2.2537
   78SLPC   C26 7120   4.678   6.410   6.887 -0.4619 -0.2287 -0.2043
   78SLPC   H6R 7121   4.685   6.515   6.851  2.8250 -0.8441 -1.6759
   78SLPC   H6S 7122   4.768   6.356   6.849 -1.7482 -1.2665 -1.9315
   78SLPC   C27 7123   4.674   6.403   7.046  0.1305  0.1345  0.2083
   78SLPC   H7R 7124   4.673   6.300   7.087 -0.1725  0.0902  0.0971
   78SLPC   H7S 7125   4.576   6.441   7.081 -1.0504 -3.0232  0.6274
   78SLPC   C28 7126   4.804   6.474   7.094  0.3988  0.1343  0.2710
   78SLPC   H8R 7127   4.885   6.434   7.031  0.8590 -1.6494  1.8961
   78SLPC   H8S 7128   4.829   6.448   7.199  2.7674  2.4158  0.3581
   78SLPC   C29 7129   4.791   6.626   7.080  0.1023 -0.1531 -0.0540
   78SLPC   H9R 7130   4.778   6.651   6.974 -1.5703  0.1781  0.1877
   78SLPC  C210 7131   4.786   6.724   7.177  0.1949 -0.3109  0.0401
   78SLPC  H10R 7132   4.775   6.822   7.129 -2.6483 -1.1230 -1.1831
   78SLPC  C211 7133   4.791   6.714   7.330  0.3896  0.7433 -0.0579
   78SLPC  H11R 7134   4.894   6.750   7.351  1.7202 -2.5343 -0.3218
   78SLPC  H11S 7135   4.791   6.611   7.370 -2.5747  0.1065 -1.4233
   78SLPC  C212 7136   4.681   6.804   7.388 -0.3005  0.2172  0.1635
   78SLPC  H12R 7137   4.656   6.894   7.330 -1.6250 -1.4227 -1.9939
   78SLPC  C213 7138   4.629   6.789   7.508 -0.1455  0.5134 -0.9441
   78SLPC  H13R 7139   4.549   6.856   7.544  0.3463  0.1899  0.8726
   78SLPC  C214 7140   4.651   6.686   7.610 -0.5699  1.0217 -0.3380
   78SLPC  H14R 7141   4.703   6.594   7.577  1.1408  1.4096  1.0736
   78SLPC  H14S 7142   4.557   6.657   7.662 -0.9776  0.9060 -1.1380
   78SLPC  C215 7143   4.748   6.721   7.723 -0.3849  0.3638  0.3466
   78SLPC  H15R 7144   4.846   6.736   7.673 -0.3033  0.2623  0.4725
   78SLPC  H15S 7145   4.766   6.638   7.795  1.0030  0.5783  0.2829
   78SLPC  C216 7146   4.717   6.848   7.803 -0.1368  0.0493 -0.8337
   78SLPC  H16R 7147   4.702   6.933   7.734  1.7460  0.1925 -1.0951
   78SLPC  H16S 7148   4.809   6.863   7.863 -1.3503 -0.5043  1.2935
   78SLPC  C217 7149   4.603   6.827   7.906  0.5638 -0.2521 -0.2138
   78SLPC  H17R 7150   4.619   6.731   7.961  1.7685 -1.1480 -2.0217
   78SLPC  H17S 7151   4.512   6.811   7.844  0.6397  0.6736 -0.5742
   78SLPC  C218 7152   4.589   6.954   7.997 -0.0151  0.7943  0.9532
   78SLPC  H18R 7153   4.686   6.984   8.041  0.8686 -0.9315  0.3135
   78SLPC  H18S 7154   4.517   6.936   8.079 -1.3491 -0.0925 -0.3551
   78SLPC  H18T 7155   4.562   7.042   7.935 -3.0370 -0.3956  0.4340
   78SLPC   C33 7156   4.741   5.762   6.700  0.3462  0.1142 -0.2981
   78SLPC   H3X 7157   4.852   5.764   6.697  0.4310  0.1041  1.5119
   78SLPC   H3Y 7158   4.715   5.668   6.754 -1.6181  1.1551  0.6434
   78SLPC   C34 7159   4.690   5.867   6.796 -0.5941  0.4554 -0.4704
   78SLPC   H4X 7160   4.581   5.844   6.801 -0.0212 -2.7770 -0.6964
   78SLPC   H4Y 7161   4.687   5.973   6.763 -3.2736  0.1402 -1.5731
   78SLPC   C35 7162   4.753   5.859   6.937  0.2429 -0.0039  0.1372
   78SLPC   H5X 7163   4.864   5.856   6.939  0.2820  1.0925  0.1037
   78SLPC   H5Y 7164   4.705   5.767   6.978 -1.5202  1.1162  0.6966
   78SLPC   C36 7165   4.697   5.976   7.018 -0.1350  0.1161 -0.4823
   78SLPC   H6X 7166   4.587   5.972   7.029  0.0531 -1.3223  1.3154
   78SLPC   H6Y 7167   4.710   6.072   6.963  0.8834  0.1018 -0.2759
   78SLPC   C37 7168   4.775   5.978   7.153 -0.5589  0.1956 -0.0886
   78SLPC   H7X 7169   4.742   6.058   7.223  0.5859 -0.0610  0.7821
   78SLPC   H7Y 7170   4.881   6.001   7.129 -0.0216 -0.5854  1.3722
   78SLPC   C38 7171   4.751   5.859   7.246 -0.6925  0.4666  0.3901
   78SLPC   H8X 7172   4.783   5.765   7.196 -0.3573  0.8268 -0.0878
   78SLPC   H8Y 7173   4.643   5.836   7.258 -0.6740  0.3860  0.3995
   78SLPC   C39 7174   4.816   5.884   7.384  0.2921  0.4422 -0.2270
   78SLPC   H9X 7175   4.774   5.980   7.421 -1.8494 -2.1836  5.5087
   78SLPC   H9Y 7176   4.927   5.877   7.385  0.2457 -0.4501 -0.3197
   78SLPC  C310 7177   4.779   5.776   7.487 -0.2642 -0.1619  0.0542
   78SLPC  H10X 7178   4.837   5.683   7.466 -0.6956 -1.3231  3.4529
   78SLPC  H10Y 7179   4.673   5.744   7.478 -0.6969  1.3250 -0.4102
   78SLPC  C311 7180   4.810   5.791   7.643 -0.6216  0.6472 -0.7833
   78SLPC  H11X 7181   4.920   5.805   7.650 -0.7417  0.8143  1.3296
   78SLPC  H11Y 7182   4.785   5.698   7.699  0.2979  0.4355 -0.6995
   78SLPC  C312 7183   4.742   5.914   7.710  0.0251  0.1466  0.9636
   78SLPC  H12X 7184   4.636   5.891   7.736  0.4270 -0.3277  2.3151
   78SLPC  H12Y 7185   4.745   6.003   7.644 -1.6573 -1.7982 -1.9422
   78SLPC  C313 7186   4.820   5.951   7.842 -0.0125  0.4125 -0.1289
   78SLPC  H13X 7187   4.805   6.059   7.861 -0.7003  0.5343 -1.2630
   78SLPC  H13Y 7188   4.926   5.950   7.807  0.2618  0.6330  0.6801
   78SLPC  C314 7189   4.795   5.857   7.960 -0.0198 -0.5122 -0.0437
   78SLPC  H14X 7190   4.852   5.766   7.934  0.8557 -0.7267  2.3851
   78SLPC  H14Y 7191   4.690   5.820   7.957  0.0120 -0.5455 -2.2940
   78SLPC  C315 7192   4.849   5.909   8.095 -0.5492 -0.1501  0.1514
   78SLPC  H15X 7193   4.795   5.990   8.149  1.0403  0.3658  1.0116
   78SLPC  H15Y 7194   4.940   5.968   8.072 -0.2151 -0.6596  0.1531
   78SLPC  C316 7195   4.872   5.793   8.192 -0.5956  0.7575  0.8663
   78SLPC  H16X 7196   4.912   5.715   8.123 -1.2379  0.3954  0.8952
   78SLPC  H16Y 7197   4.777   5.757   8.238 -0.5066  0.7013  1.0059
   78SLPC  C317 7198   4.976   5.827   8.300  0.0187 -0.0324 -0.4937
   78SLPC  H17X 7199   5.070   5.848   8.245  0.5058  1.8115  0.9289
   78SLPC  H17Y 7200   4.990   5.735   8.361 -0.5634  2.2576  3.4686
   78SLPC  C318 7201   4.928   5.936   8.403  0.5274  0.0538  0.2698
   78SLPC  H18X 7202   4.831   5.903   8.446  1.2498 -0.5603  1.4728
   78SLPC  H18Y 7203   4.903   6.032   8.353 -1.3216 -0.1971  0.6132
   78SLPC  H18Z 7204   4.998   5.959   8.486  2.2453  0.4137 -1.2253
   79SLPC     N 7205   4.827   1.902   6.218 -0.5660 -0.3759  0.1505
   79SLPC   C13 7206   4.799   2.041   6.266  0.5542  0.4695  0.3526
   79SLPC  H13A 7207   4.731   2.046   6.350  0.0733  1.4918 -0.0832
   79SLPC  H13B 7208   4.896   2.080   6.292  1.1610 -1.4306  1.1277
   79SLPC  H13C 7209   4.755   2.105   6.191  0.3296 -0.6858 -0.5467
   79SLPC   C14 7210   4.904   1.826   6.314 -0.0944  0.2938 -1.2992
   79SLPC  H14A 7211   4.947   1.736   6.272 -1.8328 -2.3663  2.1198
   79SLPC  H14B 7212   4.990   1.876   6.356  1.5483 -3.1728 -0.2002
   79SLPC  H14C 7213   4.846   1.794   6.399 -1.6036 -0.3219 -2.5134
   79SLPC   C15 7214   4.917   1.894   6.102  0.5831 -1.0527  0.3377
   79SLPC  H15A 7215   5.006   1.950   6.128  0.4323 -1.6190  2.2656
   79SLPC  H15B 7216   4.941   1.794   6.068 -0.0146 -1.0641 -0.0532
   79SLPC  H15C 7217   4.869   1.941   6.018  2.2793 -0.9281 -0.6081
   79SLPC   C12 7218   4.704   1.826   6.180  0.2763 -0.4532 -0.2458
   79SLPC  H12A 7219   4.735   1.723   6.171  0.9186 -0.4093  1.1364
   79SLPC  H12B 7220   4.670   1.863   6.085 -0.7348 -0.6326  0.0288
   79SLPC   C11 7221   4.581   1.831   6.278 -0.1706 -0.2401 -0.0002
   79SLPC  H11A 7222   4.609   1.786   6.375  0.9824 -2.8217 -1.4510
   79SLPC  H11B 7223   4.510   1.765   6.223  0.7465 -0.7360 -0.6066
   79SLPC     P 7224   4.398   2.008   6.230 -0.2785  0.2475 -0.0678
   79SLPC   O13 7225   4.398   2.160   6.228 -0.0216  0.4339 -0.2303
   79SLPC   O14 7226   4.397   1.950   6.097 -0.5279 -0.0918 -0.0777
   79SLPC   O12 7227   4.528   1.959   6.308  0.6922 -0.0174  1.3304
   79SLPC   O11 7228   4.284   1.957   6.321 -0.6722  0.2916  0.4547
   79SLPC    C1 7229   4.219   2.038   6.418  0.1718 -0.9198  0.4744
   79SLPC    HA 7230   4.276   2.128   6.449 -1.6232  0.7803 -0.9020
   79SLPC    HB 7231   4.128   2.081   6.370 -0.3234 -1.9926  0.4338
   79SLPC    C2 7232   4.165   1.965   6.543  0.7423  0.0849  0.2877
   79SLPC    HS 7233   4.111   2.035   6.610  0.6359 -0.8521  1.1929
   79SLPC   O21 7234   4.273   1.900   6.606 -0.2633 -0.1479  0.4822
   79SLPC   C21 7235   4.308   1.939   6.729  1.1591 -0.0627  0.4765
   79SLPC   O22 7236   4.242   2.024   6.791  0.2027  0.4657 -0.1052
   79SLPC   C22 7237   4.428   1.862   6.765  0.1786 -0.9172 -0.9464
   79SLPC   H2R 7238   4.416   1.756   6.735 -1.5517 -0.7813 -0.8286
   79SLPC   H2S 7239   4.507   1.908   6.702  0.0265  0.6265 -0.0530
   79SLPC    C3 7240   4.069   1.848   6.507 -0.3665 -0.5723 -0.0117
   79SLPC    HX 7241   4.128   1.794   6.430  0.5865  1.2855 -0.6506
   79SLPC    HY 7242   3.984   1.895   6.453 -0.3709  1.6102  1.7737
   79SLPC   O31 7243   4.016   1.777   6.624  0.1912 -0.2460  0.0305
   79SLPC   C31 7244   4.073   1.663   6.639 -0.5687  0.9377  0.0542
   79SLPC   O32 7245   4.161   1.609   6.567 -0.2332  0.6920 -0.2714
   79SLPC   C32 7246   4.015   1.604   6.762 -0.1481 -0.0068  0.0997
   79SLPC   H2X 7247   3.945   1.521   6.738 -1.4471  0.2751  2.6070
   79SLPC   H2Y 7248   3.956   1.675   6.822  1.1834  1.8795 -0.7349
   79SLPC   C23 7249   4.478   1.884   6.920 -0.1360 -0.7450 -0.0204
   79SLPC   H3R 7250   4.495   1.990   6.949  0.7886 -1.6947  3.3088
   79SLPC   H3S 7251   4.581   1.841   6.925  0.5439  0.9811  2.5346
   79SLPC   C24 7252   4.399   1.805   7.022 -0.3970 -0.2814 -0.0957
   79SLPC   H4R 7253   4.439   1.702   7.019 -0.9379 -0.6783  2.9114
   79SLPC   H4S 7254   4.289   1.813   7.005 -0.3721  3.9714  0.4876
   79SLPC   C25 7255   4.414   1.866   7.160  0.3154 -0.0184  0.1136
   79SLPC   H5R 7256   4.385   1.972   7.152  0.0531 -0.1551 -0.8725
   79SLPC   H5S 7257   4.524   1.869   7.178  0.4379 -0.2726 -0.5689
   79SLPC   C26 7258   4.353   1.784   7.274 -0.3024  0.9768  0.1725
   79SLPC   H6R 7259   4.395   1.681   7.269  2.7932  2.0939  0.9706
   79SLPC   H6S 7260   4.244   1.775   7.257 -0.4821  2.9946  0.0007
   79SLPC   C27 7261   4.379   1.834   7.415  0.1752  0.1089  0.2065
   79SLPC   H7R 7262   4.479   1.798   7.450 -0.6952  0.2650  3.1787
   79SLPC   H7S 7263   4.302   1.783   7.477 -0.1894  0.9761  0.4806
   79SLPC   C28 7264   4.377   1.987   7.450  0.1668  0.5318  0.0096
   79SLPC   H8R 7265   4.399   2.039   7.353 -1.6253  2.0975  0.3736
   79SLPC   H8S 7266   4.466   2.008   7.513  1.0332 -0.8462 -0.7116
   79SLPC   C29 7267   4.252   2.029   7.523  0.2002 -0.5257  0.1180
   79SLPC   H9R 7268   4.172   2.047   7.450 -1.6015  1.4418  2.4088
   79SLPC  C210 7269   4.238   2.043   7.657  0.1669 -0.6072 -0.3752
   79SLPC  H10R 7270   4.140   2.069   7.699  0.2994 -0.1569 -0.3401
   79SLPC  C211 7271   4.345   2.017   7.757  0.3001 -0.3972 -0.1349
   79SLPC  H11R 7272   4.417   1.936   7.733  0.2388 -0.2643 -0.7672
   79SLPC  H11S 7273   4.296   1.966   7.843  2.9929 -0.8657  1.2234
   79SLPC  C212 7274   4.423   2.147   7.793  0.5764 -0.0961 -0.0876
   79SLPC  H12R 7275   4.500   2.161   7.716 -1.5591  1.7968 -2.0428
   79SLPC  C213 7276   4.410   2.238   7.889 -0.1271  0.2336 -0.0278
   79SLPC  H13R 7277   4.482   2.318   7.914  0.0231 -0.4123  1.7304
   79SLPC  C214 7278   4.302   2.241   7.994  0.0649 -1.1726 -0.1480
   79SLPC  H14R 7279   4.223   2.169   7.965 -0.0437 -0.9630 -0.3803
   79SLPC  H14S 7280   4.260   2.344   7.998  3.2065  0.2380  0.0900
   79SLPC  C215 7281   4.346   2.205   8.138  0.7441  0.0712 -0.5096
   79SLPC  H15R 7282   4.406   2.111   8.132  2.0235  0.7594  0.7023
   79SLPC  H15S 7283   4.256   2.189   8.200  1.9854  1.3731  1.7445
   79SLPC  C216 7284   4.416   2.325   8.206 -0.3593  0.1666 -0.5422
   79SLPC  H16R 7285   4.433   2.401   8.126 -1.1251 -0.3568 -1.2193
   79SLPC  H16S 7286   4.512   2.295   8.252 -0.6615  2.6496  1.9791
   79SLPC  C217 7287   4.331   2.385   8.319  0.1981  0.2522  1.1896
   79SLPC  H17R 7288   4.308   2.302   8.389 -2.8360  0.6306  0.7480
   79SLPC  H17S 7289   4.233   2.425   8.285  1.2145  3.5203  1.7850
   79SLPC  C218 7290   4.407   2.490   8.401 -0.5232  0.6483 -0.9468
   79SLPC  H18R 7291   4.430   2.576   8.335 -0.5397  0.2456 -1.4823
   79SLPC  H18S 7292   4.498   2.459   8.456 -1.1749  0.5391  0.0973
   79SLPC  H18T 7293   4.346   2.519   8.490 -0.0355 -1.1953  0.0514
   79SLPC   C33 7294   4.125   1.551   6.857 -0.7111  0.4705 -0.8314
   79SLPC   H3X 7295   4.201   1.632   6.862 -0.6985  0.4126  0.2445
   79SLPC   H3Y 7296   4.165   1.460   6.806  1.6178  0.5749  0.6534
   79SLPC   C34 7297   4.090   1.512   6.999 -0.0664  0.4030 -0.2382
   79SLPC   H4X 7298   4.184   1.472   7.042 -1.3099 -1.8837  0.5035
   79SLPC   H4Y 7299   4.023   1.423   6.991  0.7657 -0.2052 -0.5690
   79SLPC   C35 7300   4.042   1.625   7.091 -0.0782 -0.2203  0.0566
   79SLPC   H5X 7301   3.948   1.659   7.042 -0.4323 -1.3584 -0.1010
   79SLPC   H5Y 7302   4.106   1.715   7.099 -0.5579  0.0754  0.5628
   79SLPC   C36 7303   4.009   1.577   7.231  0.2563  0.8031 -0.1657
   79SLPC   H6X 7304   4.102   1.540   7.278 -1.4469 -0.9916  2.0101
   79SLPC   H6Y 7305   3.928   1.502   7.240  1.7846 -0.7967  0.6303
   79SLPC   C37 7306   3.963   1.686   7.336  0.4379 -0.1531 -0.5107
   79SLPC   H7X 7307   3.875   1.745   7.303  0.0202  0.4194  1.4976
   79SLPC   H7Y 7308   4.040   1.763   7.355 -2.2489  2.5361  0.2433
   79SLPC   C38 7309   3.938   1.630   7.481  0.1581  0.1720  0.5082
   79SLPC   H8X 7310   4.030   1.633   7.544 -1.3330  1.5894  2.7439
   79SLPC   H8Y 7311   3.915   1.527   7.445 -0.7745  0.3850  0.4635
   79SLPC   C39 7312   3.825   1.681   7.571  0.2907  0.2611 -0.9460
   79SLPC   H9X 7313   3.820   1.618   7.663  0.7834  2.4227  0.6351
   79SLPC   H9Y 7314   3.730   1.664   7.516 -1.6661 -0.7488  2.4356
   79SLPC  C310 7315   3.833   1.830   7.612 -0.5005 -0.1707 -0.3500
   79SLPC  H10X 7316   3.779   1.874   7.526 -3.5564  0.4023  1.7134
   79SLPC  H10Y 7317   3.937   1.870   7.611 -0.0544 -1.3147 -0.7296
   79SLPC  C311 7318   3.761   1.868   7.747 -0.7572  0.7852  0.5898
   79SLPC  H11X 7319   3.663   1.816   7.756 -0.7297  0.2714 -1.5841
   79SLPC  H11Y 7320   3.749   1.978   7.749  1.1003  1.0749  3.9801
   79SLPC  C312 7321   3.848   1.841   7.873  0.0586  0.0749 -0.0701
   79SLPC  H12X 7322   3.955   1.866   7.856  0.1361 -0.0106  0.2944
   79SLPC  H12Y 7323   3.834   1.734   7.901 -2.6139  0.7072  1.3210
   79SLPC  C313 7324   3.801   1.920   7.995  0.0958 -0.0980  0.2929
   79SLPC  H13X 7325   3.755   1.855   8.072  0.7388  1.5258  2.1275
   79SLPC  H13Y 7326   3.730   1.997   7.959  2.1335  1.4723 -0.5982
   79SLPC  C314 7327   3.910   2.001   8.058 -0.6173  0.4381  0.1569
   79SLPC  H14X 7328   3.956   2.075   7.989 -1.2102  1.9092  1.2697
   79SLPC  H14Y 7329   3.983   1.919   8.075 -3.0868 -1.3698  2.9687
   79SLPC  C315 7330   3.882   2.071   8.191 -0.0193  0.8267 -0.3965
   79SLPC  H15X 7331   3.834   1.998   8.259  0.8589 -0.6925 -1.3653
   79SLPC  H15Y 7332   3.806   2.150   8.172 -1.0248  0.0840  0.4425
   79SLPC  C316 7333   3.997   2.124   8.274 -0.2621 -0.2638 -0.6632
   79SLPC  H16X 7334   4.032   2.217   8.225 -0.1839  0.8945  1.4646
   79SLPC  H16Y 7335   4.086   2.057   8.275 -0.0633 -0.0380 -2.0527
   79SLPC  C317 7336   3.959   2.170   8.414 -0.4399  0.0381  0.2180
   79SLPC  H17X 7337   3.941   2.077   8.474 -3.2790 -0.6836 -1.5509
   79SLPC  H17Y 7338   3.864   2.227   8.406 -1.3502 -1.6254 -1.7559
   79SLPC  C318 7339   4.065   2.249   8.500  0.0348  0.7795 -0.3486
   79SLPC  H18X 7340   4.160   2.192   8.487 -0.4754  0.3446 -2.3879
   79SLPC  H18Y 7341   4.039   2.236   8.608  0.3894  1.2327 -0.2037
   79SLPC  H18Z 7342   4.058   2.357   8.473 -0.7204  0.7907 -0.1217
   80SLPC     N 7343   3.163   6.774   6.226 -0.6238 -0.5030  0.8170
   80SLPC   C13 7344   3.230   6.657   6.168 -0.3997  0.0405  0.2224
   80SLPC  H13A 7345   3.186   6.619   6.077  0.2144  2.0445 -0.9780
   80SLPC  H13B 7346   3.334   6.673   6.146 -0.5089  1.2889  0.5640
   80SLPC  H13C 7347   3.236   6.583   6.247  0.1004  0.5078  0.6356
   80SLPC   C14 7348   3.020   6.738   6.254 -0.8623 -0.2278  0.5906
   80SLPC  H14A 7349   3.022   6.648   6.315  2.0315  0.1122  1.1622
   80SLPC  H14B 7350   2.972   6.820   6.305  0.6544 -0.5919  2.7486
   80SLPC  H14C 7351   2.970   6.710   6.163  1.9949 -0.2404 -1.0964
   80SLPC   C15 7352   3.174   6.885   6.130  0.2751 -0.1293  0.1563
   80SLPC  H15A 7353   3.273   6.930   6.130 -0.6437  2.1436  2.7184
   80SLPC  H15B 7354   3.138   6.865   6.031 -0.0127  2.1375 -0.2605
   80SLPC  H15C 7355   3.110   6.967   6.160  0.9285  1.2843 -2.0912
   80SLPC   C12 7356   3.229   6.809   6.354 -0.4098  0.0313  0.3294
   80SLPC  H12A 7357   3.212   6.737   6.433  2.1361  1.7787  2.6618
   80SLPC  H12B 7358   3.188   6.903   6.389  1.8323  1.8478 -1.5986
   80SLPC   C11 7359   3.386   6.839   6.352 -0.2840  0.1675  0.6157
   80SLPC  H11A 7360   3.440   6.746   6.323  0.1880  0.9411 -1.1049
   80SLPC  H11B 7361   3.410   6.856   6.459 -1.1740 -2.1081  1.2594
   80SLPC     P 7362   3.413   7.088   6.336  0.2542  0.3287 -0.2254
   80SLPC   O13 7363   3.529   7.090   6.422  0.0403 -1.1232 -0.1904
   80SLPC   O14 7364   3.404   7.197   6.235 -0.2099  0.0415 -0.2811
   80SLPC   O12 7365   3.412   6.947   6.273  0.5808 -0.3166 -0.0973
   80SLPC   O11 7366   3.277   7.079   6.425 -0.0596 -0.9086  0.2113
   80SLPC    C1 7367   3.166   7.152   6.380 -0.1999  0.4959 -0.5041
   80SLPC    HA 7368   3.147   7.152   6.271 -0.5225  1.2336 -0.4535
   80SLPC    HB 7369   3.078   7.104   6.429  1.4787 -1.0782  1.1715
   80SLPC    C2 7370   3.175   7.301   6.416 -0.4231  0.1344  0.1145
   80SLPC    HS 7371   3.255   7.344   6.352  0.3821  0.4515  1.2995
   80SLPC   O21 7372   3.216   7.311   6.554 -0.2788 -0.0660  0.4904
   80SLPC   C21 7373   3.272   7.411   6.595 -0.5314  0.4067 -0.5948
   80SLPC   O22 7374   3.307   7.511   6.530 -0.4936 -0.9883  0.3578
   80SLPC   C22 7375   3.302   7.385   6.746 -0.3421  0.2559 -0.0024
   80SLPC   H2R 7376   3.221   7.432   6.805 -1.6203 -0.4710 -1.0983
   80SLPC   H2S 7377   3.293   7.276   6.769  2.0572 -0.2930 -1.2655
   80SLPC    C3 7378   3.038   7.373   6.395 -0.1764 -0.1659  0.1069
   80SLPC    HX 7379   2.999   7.356   6.292 -1.1223  0.9133  0.2638
   80SLPC    HY 7380   3.036   7.483   6.408 -0.0005 -0.1938  0.3746
   80SLPC   O31 7381   2.939   7.305   6.474  0.8538  0.8480  0.0215
   80SLPC   C31 7382   2.915   7.345   6.592  0.8882  0.7226 -0.2011
   80SLPC   O32 7383   2.937   7.459   6.634 -0.0449 -0.1255  0.1299
   80SLPC   C32 7384   2.848   7.241   6.674  0.0802 -0.7817  0.0728
   80SLPC   H2X 7385   2.794   7.169   6.608 -2.4668  0.5030  0.6011
   80SLPC   H2Y 7386   2.764   7.287   6.730 -1.7535 -2.3382 -1.2557
   80SLPC   C23 7387   3.443   7.430   6.790  0.3880  0.3621 -0.2006
   80SLPC   H3R 7388   3.459   7.539   6.782  2.1015  0.3118  1.6669
   80SLPC   H3S 7389   3.527   7.376   6.742 -0.8473 -0.5379 -1.4356
   80SLPC   C24 7390   3.467   7.389   6.939  0.1850 -0.1538 -0.0439
   80SLPC   H4R 7391   3.574   7.407   6.962 -0.1931  1.8242  0.3334
   80SLPC   H4S 7392   3.430   7.287   6.961 -1.1746  0.3854  0.3308
   80SLPC   C25 7393   3.390   7.483   7.038  0.1854 -0.5470  0.2851
   80SLPC   H5R 7394   3.284   7.459   7.011  0.3062 -1.3909  0.5345
   80SLPC   H5S 7395   3.416   7.589   7.018 -2.1560  0.4747  2.1812
   80SLPC   C26 7396   3.420   7.454   7.184 -0.2223  0.1465 -0.6830
   80SLPC   H6R 7397   3.529   7.442   7.197 -0.1520  1.6364  0.3011
   80SLPC   H6S 7398   3.374   7.353   7.195  1.5522 -0.7382 -1.0151
   80SLPC   C27 7399   3.359   7.546   7.278  1.0445 -0.3454 -0.9969
   80SLPC   H7R 7400   3.249   7.538   7.269  0.8804  1.2191 -0.5917
   80SLPC   H7S 7401   3.397   7.650   7.267 -1.3924  0.6366 -0.6482
   80SLPC   C28 7402   3.386   7.504   7.428  0.0909  0.2618  0.2535
   80SLPC   H8R 7403   3.494   7.516   7.450  0.0524  2.3954 -0.4664
   80SLPC   H8S 7404   3.357   7.396   7.427 -2.1897  0.8142  0.5053
   80SLPC   C29 7405   3.306   7.580   7.533  0.1255 -0.5022 -0.3457
   80SLPC   H9R 7406   3.200   7.599   7.512  0.2142 -0.3911 -0.6856
   80SLPC  C210 7407   3.347   7.638   7.644 -0.0107 -0.0495 -0.3489
   80SLPC  H10R 7408   3.272   7.680   7.713 -0.1479  1.5065 -1.4013
   80SLPC  C211 7409   3.488   7.628   7.695 -0.2180 -0.5312  0.5828
   80SLPC  H11R 7410   3.554   7.691   7.630  1.4380 -2.3735  0.3777
   80SLPC  H11S 7411   3.534   7.528   7.684  3.1148  0.8840  0.2757
   80SLPC  C212 7412   3.496   7.663   7.839  0.1564 -0.4515  0.8209
   80SLPC  H12R 7413   3.550   7.759   7.849 -0.6036 -0.0088  0.7429
   80SLPC  C213 7414   3.469   7.592   7.949 -0.7257 -0.2584  0.4835
   80SLPC  H13R 7415   3.500   7.635   8.045 -0.7977  1.4110 -0.2041
   80SLPC  C214 7416   3.410   7.455   7.943  0.5786  0.2529  0.0267
   80SLPC  H14R 7417   3.407   7.418   7.839 -4.3002  3.1148 -1.1856
   80SLPC  H14S 7418   3.300   7.466   7.956  0.1253 -1.2363 -2.0266
   80SLPC  C215 7419   3.463   7.356   8.046  0.4296 -0.0857  0.7730
   80SLPC  H15R 7420   3.574   7.348   8.049  0.5388  1.3103  0.7650
   80SLPC  H15S 7421   3.417   7.260   8.012 -2.2677  1.7963 -1.2905
   80SLPC  C216 7422   3.429   7.393   8.187  0.5614  0.6664 -0.0169
   80SLPC  H16R 7423   3.322   7.422   8.189  0.1458 -0.7983  0.9821
   80SLPC  H16S 7424   3.480   7.486   8.220 -3.3605  2.6218  1.1102
   80SLPC  C217 7425   3.445   7.288   8.289  0.1925 -0.4221 -0.2145
   80SLPC  H17R 7426   3.551   7.259   8.301 -0.2222 -2.1829 -0.5760
   80SLPC  H17S 7427   3.385   7.199   8.260  0.4839 -1.3124  1.7500
   80SLPC  C218 7428   3.384   7.337   8.423  0.3183 -0.1881  1.0143
   80SLPC  H18R 7429   3.273   7.339   8.420  0.2815 -1.4037  1.0276
   80SLPC  H18S 7430   3.426   7.435   8.451  0.5177 -0.2682  0.9972
   80SLPC  H18T 7431   3.405   7.267   8.507  4.0843  0.0355  0.4392
   80SLPC   C33 7432   2.945   7.167   6.768 -0.2516  0.1334 -0.1846
   80SLPC   H3X 7433   3.035   7.150   6.705 -1.3990  3.4828 -3.0945
   80SLPC   H3Y 7434   2.905   7.069   6.801  0.0696 -0.1489 -0.6243
   80SLPC   C34 7435   2.950   7.241   6.902 -0.9817 -0.3647 -1.4532
   80SLPC   H4X 7436   2.852   7.258   6.952 -1.0570  1.4954 -2.1497
   80SLPC   H4Y 7437   2.995   7.343   6.897  0.8977 -1.0042  0.5318
   80SLPC   C35 7438   3.043   7.156   7.002  0.2565  0.0787  0.0274
   80SLPC   H5X 7439   3.144   7.151   6.956  0.1429  0.1916 -0.2349
   80SLPC   H5Y 7440   3.011   7.050   7.006 -2.0770  0.7750  1.4526
   80SLPC   C36 7441   3.045   7.198   7.141 -0.4013 -0.6856 -0.0210
   80SLPC   H6X 7442   2.949   7.190   7.196 -0.4984 -2.4485 -0.4098
   80SLPC   H6Y 7443   3.074   7.305   7.151 -1.6674 -0.3761  0.5289
   80SLPC   C37 7444   3.149   7.108   7.221  0.5975 -0.5117  0.2745
   80SLPC   H7X 7445   3.250   7.134   7.182  0.0549  2.8180  0.7230
   80SLPC   H7Y 7446   3.131   7.005   7.187  0.6516 -0.0014 -1.3758
   80SLPC   C38 7447   3.153   7.126   7.368 -0.6519  0.1432 -0.2596
   80SLPC   H8X 7448   3.054   7.095   7.408 -0.7599 -1.3877 -1.6280
   80SLPC   H8Y 7449   3.166   7.231   7.402 -0.4638 -0.4647  1.7260
   80SLPC   C39 7450   3.249   7.036   7.436 -0.8878 -0.9901  0.7198
   80SLPC   H9X 7451   3.338   7.035   7.370 -2.3840 -1.8176 -1.4030
   80SLPC   H9Y 7452   3.220   6.929   7.427  0.8927 -1.4600  0.1641
   80SLPC  C310 7453   3.275   7.085   7.585  0.1471 -0.3888 -0.9810
   80SLPC  H10X 7454   3.295   7.194   7.575  0.9234 -0.2383  1.5888
   80SLPC  H10Y 7455   3.350   7.023   7.638  1.3229  1.7803  0.0317
   80SLPC  C311 7456   3.154   7.077   7.684 -1.2843  0.1639 -0.6617
   80SLPC  H11X 7457   3.106   6.977   7.681  0.2041 -0.5892 -0.3619
   80SLPC  H11Y 7458   3.075   7.137   7.635 -0.7042  1.5312  0.0193
   80SLPC  C312 7459   3.198   7.128   7.827  0.1720  0.4507  0.1043
   80SLPC  H12X 7460   3.196   7.239   7.826 -0.3949  0.4425 -1.2719
   80SLPC  H12Y 7461   3.301   7.105   7.862 -1.0619 -0.9858  3.1766
   80SLPC  C313 7462   3.115   7.064   7.935 -0.6482 -0.0953  0.1079
   80SLPC  H13X 7463   3.140   6.957   7.950  0.3212 -0.1246 -1.5275
   80SLPC  H13Y 7464   3.012   7.082   7.897  0.1126 -0.0532 -2.0040
   80SLPC  C314 7465   3.137   7.132   8.069 -0.8869  0.5289  0.4181
   80SLPC  H14X 7466   3.132   7.243   8.063  1.4146  0.6410 -0.6192
   80SLPC  H14Y 7467   3.242   7.126   8.105 -0.6082 -0.1187 -0.4569
   80SLPC  C315 7468   3.035   7.075   8.168 -0.3459 -0.6492 -0.5292
   80SLPC  H15X 7469   3.017   6.968   8.146  0.3034 -1.2465  1.6079
   80SLPC  H15Y 7470   2.936   7.122   8.149 -1.2717 -0.7279  3.3038
   80SLPC  C316 7471   3.087   7.098   8.311  0.0743  0.3041  0.0422
   80SLPC  H16X 7472   3.110   7.204   8.331 -1.7812  0.5378  1.1593
   80SLPC  H16Y 7473   3.177   7.033   8.317  0.3055  0.4490 -1.4856
   80SLPC  C317 7474   2.987   7.050   8.416 -0.2758 -0.8931 -0.3175
   80SLPC  H17X 7475   2.939   6.954   8.388 -0.6351 -0.7350 -0.2541
   80SLPC  H17Y 7476   2.904   7.124   8.413  0.4825  0.0122  0.4103
   80SLPC  C318 7477   3.039   7.043   8.560  0.3759  0.4011  0.0303
   80SLPC  H18X 7478   2.953   7.013   8.624  0.0642 -1.8981 -1.3710
   80SLPC  H18Y 7479   3.086   7.135   8.602  1.4778 -0.3567  0.5140
   80SLPC  H18Z 7480   3.106   6.955   8.573  0.5117  0.3837 -0.7531
   81SAPS     N 7481   5.275   4.341  11.029  0.0669 -0.0892  0.2013
   81SAPS   HN1 7482   5.353   4.398  11.065  0.3477 -0.0067 -0.5163
   81SAPS   HN2 7483   5.251   4.256  11.085  1.0245  1.9822  4.0400
   81SAPS   HN3 7484   5.298   4.297  10.937 -0.2196 -0.2290  0.1941
   81SAPS   C12 7485   5.152   4.427  11.027  0.5346  0.3796  0.1784
   81SAPS  H12A 7486   5.063   4.366  11.034  0.1579  0.7655 -1.0069
   81SAPS   C13 7487   5.147   4.508  11.163  0.1129 -0.0605 -0.2909
   81SAPS  O13A 7488   5.220   4.475  11.262 -0.4597  0.2712 -0.4344
   81SAPS  O13B 7489   5.082   4.617  11.156 -0.3459 -0.0126 -0.5454
   81SAPS   C11 7490   5.156   4.525  10.905 -0.0761 -0.3550  0.1197
   81SAPS  H11A 7491   5.249   4.587  10.908 -0.9328  0.9716  2.8335
   81SAPS  H11B 7492   5.070   4.594  10.914 -0.5700 -0.8103 -0.9869
   81SAPS     P 7493   5.076   4.511  10.656  0.1677 -0.0366  0.2938
   81SAPS   O13 7494   5.091   4.411  10.551  0.1939  0.0824 -0.4752
   81SAPS   O14 7495   4.935   4.554  10.704  0.0745 -0.6811 -0.2530
   81SAPS   O12 7496   5.145   4.446  10.785 -0.9136 -0.0718  0.0074
   81SAPS   O11 7497   5.168   4.638  10.621 -0.0418 -0.1806  0.1979
   81SAPS    C1 7498   5.110   4.772  10.619  0.2767  0.0774 -0.0544
   81SAPS    HA 7499   5.050   4.788  10.711  0.6413 -0.4465  0.2746
   81SAPS    HB 7500   5.198   4.837  10.636 -0.4315  1.2718 -0.8030
   81SAPS    C2 7501   5.025   4.788  10.491  0.1982  0.4277  0.2517
   81SAPS    HS 7502   4.931   4.730  10.504  0.0854  0.1375 -1.5094
   81SAPS   O21 7503   5.099   4.743  10.373 -0.5067  0.0439 -0.2382
   81SAPS   C21 7504   5.044   4.650  10.302 -0.0756  0.3403  0.0991
   81SAPS   O22 7505   4.929   4.616  10.313  0.1188  0.6051  0.3668
   81SAPS   C22 7506   5.137   4.595  10.192  0.2421  0.3361 -0.0858
   81SAPS   H2R 7507   5.220   4.668  10.184  2.0287 -1.5994  0.1415
   81SAPS   H2S 7508   5.178   4.504  10.241  0.4522  0.4037 -0.1367
   81SAPS    C3 7509   4.963   4.926  10.469 -0.2462  0.6787 -0.3796
   81SAPS    HX 7510   5.051   4.989  10.444 -0.7798  1.0978 -1.2497
   81SAPS    HY 7511   4.926   4.951  10.571 -1.9274  1.9116 -1.2374
   81SAPS   O31 7512   4.850   4.921  10.379 -0.8491 -0.6695  0.4449
   81SAPS   C31 7513   4.821   5.042  10.333  0.4206  0.6216 -0.1465
   81SAPS   O32 7514   4.886   5.140  10.360 -0.2789 -0.0254 -0.2210
   81SAPS   C32 7515   4.689   5.042  10.245  0.4970 -0.3428  0.5836
   81SAPS   H2X 7516   4.617   5.107  10.299  0.7972 -1.9815  3.1184
   81SAPS   H2Y 7517   4.645   4.941  10.237 -0.8214  0.0937  1.9388
   81SAPS   C23 7518   5.056   4.553  10.070  0.6256 -0.7933 -0.3308
   81SAPS   H3R 7519   4.991   4.637  10.037 -1.0042 -2.4240 -1.4033
   81SAPS   H3S 7520   4.986   4.475  10.106  0.5752  0.5501  2.8752
   81SAPS   C24 7521   5.133   4.501   9.944  0.3560 -0.0129  0.2864
   81SAPS   H4R 7522   5.218   4.565   9.912  0.6152 -0.1108  0.7723
   81SAPS   H4S 7523   5.064   4.503   9.857  2.0533 -1.3625 -1.1709
   81SAPS   C25 7524   5.186   4.359   9.972 -0.0529 -0.6579 -0.3771
   81SAPS   H5R 7525   5.229   4.334  10.070 -0.4288 -0.1117 -0.0681
   81SAPS   C26 7526   5.195   4.261   9.872 -0.4003 -0.4093  0.4749
   81SAPS   H6R 7527   5.238   4.168   9.912  0.1994  0.3798  1.7547
   81SAPS   C27 7528   5.153   4.270   9.728 -0.5784 -0.1628  0.2029
   81SAPS   H7R 7529   5.234   4.322   9.672 -0.4038 -1.2221 -0.5499
   81SAPS   H7S 7530   5.060   4.331   9.722  0.2459  1.3863  1.9690
   81SAPS   C28 7531   5.134   4.130   9.666  0.0317 -0.2557  0.3986
   81SAPS   H8R 7532   5.047   4.072   9.699 -0.8553  0.6128 -0.3582
   81SAPS   C29 7533   5.199   4.071   9.567 -0.4434 -0.6731  0.5580
   81SAPS   H9R 7534   5.169   3.972   9.530 -1.2772  0.4171 -1.9306
   81SAPS  C210 7535   5.311   4.143   9.486  0.0500 -0.4146  0.8635
   81SAPS  H10R 7536   5.381   4.076   9.431  1.8282  0.9372  1.3522
   81SAPS  H10S 7537   5.385   4.189   9.556  1.6764 -0.7280 -0.5735
   81SAPS  C211 7538   5.269   4.237   9.369  0.9434  0.7353 -0.3729
   81SAPS  H11R 7539   5.276   4.346   9.383 -3.8439  1.1539  0.5147
   81SAPS  C212 7540   5.250   4.200   9.245  0.2697 -0.9823 -0.0378
   81SAPS  H12R 7541   5.237   4.270   9.160  0.3274 -0.0939  0.6736
   81SAPS  C213 7542   5.253   4.058   9.193  0.1402 -0.5270 -0.2260
   81SAPS  H13R 7543   5.282   3.987   9.274 -0.4141 -0.8716 -0.3288
   81SAPS  H13S 7544   5.318   4.045   9.104  0.4285  1.2338 -0.2989
   81SAPS  C214 7545   5.110   4.037   9.152  0.7356  0.2324  0.6474
   81SAPS  H14R 7546   5.039   4.059   9.233  2.5625  0.8811  2.1437
   81SAPS  C215 7547   5.052   4.005   9.035 -0.2077  0.0889  0.4093
   81SAPS  H15R 7548   4.942   4.006   9.027 -0.1395  1.2013 -0.7339
   81SAPS  C216 7549   5.144   3.968   8.915 -0.5824  0.2917  0.2435
   81SAPS  H16R 7550   5.099   3.883   8.859  1.8646 -0.1054 -1.2654
   81SAPS  H16S 7551   5.247   3.933   8.933 -1.5084 -1.6348  2.3546
   81SAPS  C217 7552   5.160   4.078   8.805 -0.1850 -0.7042 -0.7294
   81SAPS  H17R 7553   5.235   4.147   8.848  0.0645 -1.3840 -0.0315
   81SAPS  H17S 7554   5.066   4.134   8.787  0.7869  0.8606 -1.1355
   81SAPS  C218 7555   5.223   4.042   8.672  0.1384  0.1863 -0.3400
   81SAPS  H18R 7556   5.305   3.970   8.697  0.0541  0.2332  0.0878
   81SAPS  H18S 7557   5.274   4.125   8.620  2.8217  0.4333  2.3857
   81SAPS  C219 7558   5.124   3.970   8.586  0.8557 -0.3410  0.5480
   81SAPS  H19R 7559   5.039   4.037   8.559  1.8382  1.0907  0.9137
   81SAPS  H19S 7560   5.075   3.894   8.651 -0.3840  0.8030  1.0071
   81SAPS  C220 7561   5.179   3.901   8.462 -0.3010 -0.2846 -0.0842
   81SAPS  H20R 7562   5.257   3.833   8.502 -0.9469 -0.5458  0.7803
   81SAPS  H20S 7563   5.221   3.975   8.391 -0.9944  1.7460  1.5130
   81SAPS  H20T 7564   5.094   3.851   8.411 -2.5131  1.2746  1.8436
   81SAPS   C33 7565   4.712   5.090  10.099 -0.3368 -0.3888  0.0894
   81SAPS   H3X 7566   4.755   5.193  10.100 -1.4928  0.1082 -0.1592
   81SAPS   H3Y 7567   4.617   5.100  10.043  0.7319  2.1349 -1.4591
   81SAPS   C34 7568   4.812   4.994  10.038  0.3233 -0.0634 -0.2500
   81SAPS   H4X 7569   4.765   4.893  10.036  0.1200  0.0183 -2.3983
   81SAPS   H4Y 7570   4.907   4.995  10.095 -0.4718  0.0439  1.0973
   81SAPS   C35 7571   4.838   5.030   9.892  0.0167  0.0822 -0.2489
   81SAPS   H5X 7572   4.895   5.125   9.899 -1.6875  1.0829  0.6662
   81SAPS   H5Y 7573   4.742   5.054   9.844 -1.2621  0.9628  2.5292
   81SAPS   C36 7574   4.928   4.926   9.815  0.1735 -0.4972  0.4213
   81SAPS   H6X 7575   5.000   4.875   9.882 -0.3224 -0.0483  1.3106
   81SAPS   H6Y 7576   4.989   4.984   9.742  1.4559  0.6723  2.3418
   81SAPS   C37 7577   4.836   4.821   9.749 -0.4832  0.3868  0.0157
   81SAPS   H7X 7578   4.738   4.852   9.706 -0.8817 -0.0370  0.6020
   81SAPS   H7Y 7579   4.814   4.749   9.830  0.7993 -0.6193 -0.5027
   81SAPS   C38 7580   4.920   4.748   9.642 -0.7130 -0.0606  0.6478
   81SAPS   H8X 7581   5.024   4.732   9.675 -1.0726 -1.0801  1.3142
   81SAPS   H8Y 7582   4.921   4.808   9.548 -0.8197 -1.9147 -0.5761
   81SAPS   C39 7583   4.878   4.603   9.624  0.4388  0.0507  0.3505
   81SAPS   H9X 7584   4.772   4.602   9.591  0.6342  1.6628 -0.4604
   81SAPS   H9Y 7585   4.878   4.550   9.722  1.2027  1.9179  1.4414
   81SAPS  C310 7586   4.976   4.539   9.518 -0.1940 -0.0536 -0.4157
   81SAPS  H10X 7587   4.957   4.430   9.528 -1.1789  0.1223 -0.3162
   81SAPS  H10Y 7588   5.080   4.565   9.547 -0.3425  1.4363 -1.1785
   81SAPS  C311 7589   4.958   4.586   9.380  0.2386 -0.1402  0.5450
   81SAPS  H11X 7590   5.048   4.630   9.333 -0.5113 -0.9863 -1.8160
   81SAPS  H11Y 7591   4.879   4.665   9.385  2.5269  2.4287 -0.7271
   81SAPS  C312 7592   4.915   4.478   9.278  0.7412 -0.0063 -0.0263
   81SAPS  H12X 7593   4.824   4.433   9.324 -0.4816 -0.5210 -2.7001
   81SAPS  H12Y 7594   4.990   4.396   9.288  0.9688 -0.3038 -3.1255
   81SAPS  C313 7595   4.916   4.518   9.126  0.4374 -0.3909 -0.5382
   81SAPS  H13X 7596   5.014   4.564   9.103  0.7642 -1.4886 -1.4418
   81SAPS  H13Y 7597   4.839   4.597   9.117 -0.0059 -0.8489 -0.8128
   81SAPS  C314 7598   4.864   4.400   9.038  0.3211  0.1729  0.8781
   81SAPS  H14X 7599   4.769   4.364   9.083 -0.5519 -0.8409 -1.5826
   81SAPS  H14Y 7600   4.949   4.328   9.040 -0.2242 -0.5840 -1.1470
   81SAPS  C315 7601   4.847   4.433   8.888  0.3998  0.4437 -0.7011
   81SAPS  H15X 7602   4.942   4.472   8.848  1.8528  0.2854  2.3452
   81SAPS  H15Y 7603   4.775   4.516   8.867  0.8974  0.9083 -0.5915
   81SAPS  C316 7604   4.792   4.309   8.820  0.5189 -0.3367 -0.4325
   81SAPS  H16X 7605   4.688   4.285   8.852  1.1126  0.5554  2.5116
   81SAPS  H16Y 7606   4.856   4.222   8.848  0.8674 -0.0511 -0.3390
   81SAPS  C317 7607   4.799   4.326   8.673  0.5406 -0.2250  0.0805
   81SAPS  H17X 7608   4.898   4.363   8.639 -0.4582  2.2682 -0.3113
   81SAPS  H17Y 7609   4.729   4.410   8.655 -1.3915 -1.5376  1.1307
   81SAPS  C318 7610   4.774   4.201   8.586 -0.6487 -0.2293 -0.2350
   81SAPS  H18X 7611   4.667   4.172   8.602 -0.4816 -0.1278  1.1722
   81SAPS  H18Y 7612   4.838   4.118   8.622 -0.5449  0.0384  0.1932
   81SAPS  H18Z 7613   4.793   4.218   8.478 -1.9062 -0.9418 -0.5892
   82SAPS     N 7614   4.128   2.123  10.593 -0.2251 -0.1508 -0.3657
   82SAPS   HN1 7615   4.121   2.224  10.614 -0.9731 -0.6736  2.3325
   82SAPS   HN2 7616   4.228   2.103  10.615 -0.7943 -1.9899  0.8373
   82SAPS   HN3 7617   4.098   2.106  10.496  0.5269 -0.7155 -0.5101
   82SAPS   C12 7618   4.047   2.040  10.682 -0.0440  0.8635  0.4228
   82SAPS  H12A 7619   3.947   2.050  10.644  0.8219 -0.9393 -2.6922
   82SAPS   C13 7620   4.076   1.892  10.681 -0.4119  0.9710 -0.1663
   82SAPS  O13A 7621   4.180   1.844  10.625 -0.3208 -0.3107  0.3830
   82SAPS  O13B 7622   3.994   1.821  10.748 -0.2369  0.1691  1.2100
   82SAPS   C11 7623   4.057   2.104  10.823  0.3562 -0.6059  0.1161
   82SAPS  H11A 7624   4.160   2.093  10.862  0.8479  3.9341  0.6017
   82SAPS  H11B 7625   3.992   2.043  10.890  0.1348 -1.0178 -0.4622
   82SAPS     P 7626   3.875   2.306  10.802 -0.3493  0.2032  0.3124
   82SAPS   O13 7627   3.779   2.205  10.833  0.4513  0.6194  0.7171
   82SAPS   O14 7628   3.855   2.437  10.867 -0.3323 -0.4784  0.3385
   82SAPS   O12 7629   4.018   2.244  10.835  0.3615  0.2541 -0.4393
   82SAPS   O11 7630   3.897   2.329  10.645  0.6613  0.6193  0.4500
   82SAPS    C1 7631   3.881   2.461  10.591 -0.1594 -0.4934  0.1179
   82SAPS    HA 7632   3.792   2.517  10.627 -0.7361 -1.2243 -0.1605
   82SAPS    HB 7633   3.974   2.519  10.611 -0.5134  0.9523 -2.0567
   82SAPS    C2 7634   3.885   2.455  10.433  0.0820 -0.6571 -0.1719
   82SAPS    HS 7635   3.787   2.408  10.407 -0.4008  1.9111 -3.7813
   82SAPS   O21 7636   3.991   2.371  10.390  0.6269 -0.0776  0.1491
   82SAPS   C21 7637   3.978   2.323  10.268  0.4757  0.2990  0.0498
   82SAPS   O22 7638   3.875   2.305  10.207 -0.7506 -0.5720  0.0413
   82SAPS   C22 7639   4.113   2.269  10.219  0.8246  0.1200  0.1386
   82SAPS   H2R 7640   4.204   2.326  10.248  1.0975  0.3621 -1.1031
   82SAPS   H2S 7641   4.121   2.162  10.248 -1.4116 -0.4161 -0.9668
   82SAPS    C3 7642   3.888   2.592  10.364 -0.3145  0.0973  0.4279
   82SAPS    HX 7643   3.985   2.646  10.371 -0.9736  1.4382 -0.2848
   82SAPS    HY 7644   3.820   2.664  10.414  0.5239  1.1023  0.1651
   82SAPS   O31 7645   3.856   2.574  10.224  0.2303 -0.5410  0.4826
   82SAPS   C31 7646   3.737   2.611  10.184  0.3676 -0.2291 -0.1288
   82SAPS   O32 7647   3.651   2.673  10.247  0.6387 -0.6521 -0.5891
   82SAPS   C32 7648   3.721   2.565  10.039  0.1855 -0.6031 -0.3482
   82SAPS   H2X 7649   3.661   2.471  10.042 -0.9735  0.1301  0.3478
   82SAPS   H2Y 7650   3.818   2.535   9.994  0.2023 -0.7072 -0.2450
   82SAPS   C23 7651   4.122   2.263  10.067 -0.3101 -0.0141  0.5036
   82SAPS   H3R 7652   4.066   2.340  10.010  0.9833 -0.7244 -1.8697
   82SAPS   H3S 7653   4.059   2.174  10.046 -0.8296  1.0353 -2.9912
   82SAPS   C24 7654   4.265   2.250  10.014  0.0796  0.4658 -0.1741
   82SAPS   H4R 7655   4.253   2.186   9.924 -1.3687 -0.3363  0.5576
   82SAPS   H4S 7656   4.323   2.189  10.087  0.9957 -0.4891 -1.6370
   82SAPS   C25 7657   4.328   2.388  10.000 -0.4027 -0.2561 -0.3661
   82SAPS   H5R 7658   4.327   2.439  10.098 -3.3898  0.8774 -0.8856
   82SAPS   C26 7659   4.388   2.443   9.895 -0.2263 -0.6343  1.0910
   82SAPS   H6R 7660   4.429   2.544   9.901 -1.1243 -0.1067 -0.7878
   82SAPS   C27 7661   4.404   2.371   9.760 -0.5239  0.4144  0.1988
   82SAPS   H7R 7662   4.313   2.309   9.745 -0.8050  1.0748 -0.9789
   82SAPS   H7S 7663   4.498   2.311   9.766 -0.0970  1.0778  0.2423
   82SAPS   C28 7664   4.401   2.477   9.657  0.1899 -1.4216  0.4940
   82SAPS   H8R 7665   4.305   2.532   9.657 -0.3504 -2.3256 -0.5980
   82SAPS   C29 7666   4.487   2.507   9.558 -0.2604  0.0847  0.0643
   82SAPS   H9R 7667   4.467   2.594   9.494  1.4364 -0.6574 -1.5590
   82SAPS  C210 7668   4.615   2.435   9.534  0.5000  0.1760  0.4321
   82SAPS  H10R 7669   4.601   2.327   9.514  1.3760  0.4479 -1.9763
   82SAPS  H10S 7670   4.667   2.450   9.631  0.5195  2.3789  0.1461
   82SAPS  C211 7671   4.720   2.475   9.438 -0.0778  0.4413  0.3509
   82SAPS  H11R 7672   4.762   2.575   9.452  0.0345  0.5196 -0.5186
   82SAPS  C212 7673   4.755   2.404   9.327  0.0702 -0.8037  0.0168
   82SAPS  H12R 7674   4.834   2.448   9.264 -0.4487 -1.4485 -1.1196
   82SAPS  C213 7675   4.700   2.268   9.282 -0.2564 -0.0509 -0.2454
   82SAPS  H13R 7676   4.592   2.274   9.256 -0.2209 -0.9042 -0.5981
   82SAPS  H13S 7677   4.712   2.197   9.366  0.2401 -0.2967 -0.5197
   82SAPS  C214 7678   4.792   2.198   9.176  0.2910 -0.1536 -0.2271
   82SAPS  H14R 7679   4.899   2.194   9.199  0.3227 -0.8863 -0.4684
   82SAPS  C215 7680   4.747   2.125   9.068 -0.4475 -0.6849  0.4153
   82SAPS  H15R 7681   4.818   2.085   8.994 -2.6079  0.0723 -2.2376
   82SAPS  C216 7682   4.607   2.093   9.027  0.0323  0.3992  0.0744
   82SAPS  H16R 7683   4.530   2.112   9.105 -1.4899  1.0602 -1.5048
   82SAPS  H16S 7684   4.588   1.985   9.012 -0.5187  0.6566 -1.3087
   82SAPS  C217 7685   4.569   2.165   8.903 -0.2254 -0.2723  0.0974
   82SAPS  H17R 7686   4.467   2.130   8.878  0.9161 -1.9118 -2.6532
   82SAPS  H17S 7687   4.623   2.147   8.809  0.9174  0.3196  0.6178
   82SAPS  C218 7688   4.560   2.317   8.912 -0.0047  0.4345  0.1145
   82SAPS  H18R 7689   4.652   2.374   8.936  1.5641 -1.7832 -0.3263
   82SAPS  H18S 7690   4.500   2.340   9.003 -0.7813 -0.8364 -0.0438
   82SAPS  C219 7691   4.484   2.386   8.798 -0.0762  0.2286  0.7330
   82SAPS  H19R 7692   4.540   2.379   8.703 -0.3431  0.8977  0.5191
   82SAPS  H19S 7693   4.477   2.493   8.828  0.5585  0.4301  0.1950
   82SAPS  C220 7694   4.346   2.328   8.765  0.5068  0.0826  0.5308
   82SAPS  H20R 7695   4.353   2.222   8.734 -0.2306 -0.0939  0.9525
   82SAPS  H20S 7696   4.306   2.385   8.678  2.7650 -2.1009 -2.1502
   82SAPS  H20T 7697   4.279   2.330   8.854  0.1756 -1.0012  0.3200
   82SAPS   C33 7698   3.654   2.664   9.944 -0.1834  0.2996  0.2183
   82SAPS   H3X 7699   3.722   2.751   9.932  0.7630 -0.4913 -0.2598
   82SAPS   H3Y 7700   3.562   2.710   9.988 -0.4733 -1.4566  1.5469
   82SAPS   C34 7701   3.627   2.603   9.810 -0.4847 -0.5130 -0.7181
   82SAPS   H4X 7702   3.555   2.518   9.813 -0.2460 -0.7147 -0.6993
   82SAPS   H4Y 7703   3.727   2.584   9.766  0.5863  0.4111  1.1994
   82SAPS   C35 7704   3.559   2.709   9.720  0.3817  0.3667  0.4320
   82SAPS   H5X 7705   3.598   2.811   9.740  3.0559 -1.1307  3.9155
   82SAPS   H5Y 7706   3.451   2.713   9.745  0.4065 -1.5928  1.0699
   82SAPS   C36 7707   3.568   2.687   9.568  0.1507 -0.3705  0.4189
   82SAPS   H6X 7708   3.535   2.584   9.543 -1.2703  0.3694 -0.9916
   82SAPS   H6Y 7709   3.672   2.686   9.529 -1.3769 -1.2035 -4.2920
   82SAPS   C37 7710   3.490   2.795   9.487 -0.9879  0.1180 -0.3618
   82SAPS   H7X 7711   3.535   2.894   9.510  0.4551 -0.9690  1.8138
   82SAPS   H7Y 7712   3.392   2.792   9.538 -0.6985  0.8956  0.2601
   82SAPS   C38 7713   3.464   2.774   9.337 -0.9656 -0.3078 -0.4336
   82SAPS   H8X 7714   3.381   2.834   9.297  0.0447  0.7455 -1.0098
   82SAPS   H8Y 7715   3.424   2.672   9.321 -0.0548 -1.0104  1.4430
   82SAPS   C39 7716   3.586   2.788   9.247 -0.7346 -0.3420 -0.0594
   82SAPS   H9X 7717   3.668   2.718   9.274  0.1474  1.5534  2.5881
   82SAPS   H9Y 7718   3.633   2.889   9.248 -0.5653 -0.3159 -2.7538
   82SAPS  C310 7719   3.554   2.765   9.096 -0.8307  0.2653 -0.5406
   82SAPS  H10X 7720   3.507   2.666   9.077 -0.7618  0.0423  0.4380
   82SAPS  H10Y 7721   3.654   2.773   9.048 -0.0662 -0.5910  0.8586
   82SAPS  C311 7722   3.468   2.885   9.038 -0.2256 -0.0153  0.4998
   82SAPS  H11X 7723   3.497   2.967   9.108  2.5099  0.0717 -0.5860
   82SAPS  H11Y 7724   3.364   2.853   9.057  0.5010 -1.9369  1.5835
   82SAPS  C312 7725   3.505   2.920   8.892  0.2338  0.2863 -0.1810
   82SAPS  H12X 7726   3.616   2.912   8.890  0.5063  1.8367  3.0914
   82SAPS  H12Y 7727   3.471   3.025   8.876 -0.0041  0.0067 -1.6444
   82SAPS  C313 7728   3.452   2.813   8.792  0.0950 -0.1798  0.5494
   82SAPS  H13X 7729   3.349   2.789   8.828  0.2555  0.2753  1.3333
   82SAPS  H13Y 7730   3.525   2.729   8.791 -0.5944 -0.8731 -2.5883
   82SAPS  C314 7731   3.437   2.869   8.653  0.1357  0.5473 -0.1534
   82SAPS  H14X 7732   3.538   2.904   8.621  0.5723 -0.9200 -0.4754
   82SAPS  H14Y 7733   3.373   2.960   8.660 -0.0541  0.3281  1.1924
   82SAPS  C315 7734   3.377   2.777   8.550 -0.1970  0.0485  0.4543
   82SAPS  H15X 7735   3.274   2.750   8.581 -0.5456  0.3563 -0.4163
   82SAPS  H15Y 7736   3.439   2.685   8.541  2.2858  1.8339 -4.8495
   82SAPS  C316 7737   3.377   2.831   8.408 -0.2782  0.2244 -0.1331
   82SAPS  H16X 7738   3.471   2.884   8.382  0.2638 -1.0037 -0.7714
   82SAPS  H16Y 7739   3.293   2.903   8.397 -0.6595  0.1314  1.8225
   82SAPS  C317 7740   3.342   2.726   8.301 -0.0894 -0.4061  0.0397
   82SAPS  H17X 7741   3.404   2.636   8.320  0.5382 -0.5228 -2.2776
   82SAPS  H17Y 7742   3.380   2.763   8.203 -0.2840  0.3213  0.2301
   82SAPS  C318 7743   3.196   2.688   8.269 -0.7974 -0.5755 -0.0689
   82SAPS  H18X 7744   3.140   2.644   8.354  0.0662 -2.5243 -0.4468
   82SAPS  H18Y 7745   3.190   2.623   8.179  2.3036  0.2050 -0.9870
   82SAPS  H18Z 7746   3.150   2.786   8.246 -1.6149 -0.4368  1.9479
   83SAPS     N 7747   4.333   3.593  10.972 -0.3588 -0.5779 -0.4128
   83SAPS   HN1 7748   4.387   3.568  11.057 -0.2453 -1.3014 -0.6849
   83SAPS   HN2 7749   4.372   3.536  10.894  0.2675  1.3330 -1.5729
   83SAPS   HN3 7750   4.344   3.694  10.951  3.1098 -0.3637  1.6164
   83SAPS   C12 7751   4.189   3.550  10.993  0.2497 -0.2052 -0.0968
   83SAPS  H12A 7752   4.191   3.442  10.984 -2.0365 -0.2187 -0.9587
   83SAPS   C13 7753   4.140   3.574  11.140 -0.0352  0.0657  0.4433
   83SAPS  O13A 7754   4.210   3.639  11.220  0.2919  0.8349 -0.2399
   83SAPS  O13B 7755   4.030   3.529  11.171  0.0368  0.5359 -0.1741
   83SAPS   C11 7756   4.088   3.610  10.888 -0.0067  0.0139 -0.0837
   83SAPS  H11A 7757   3.995   3.551  10.898 -0.1344  0.1103 -0.6585
   83SAPS  H11B 7758   4.132   3.598  10.786  1.0767  1.2873  0.2001
   83SAPS     P 7759   4.157   3.866  10.865 -0.4949  0.3806  0.3164
   83SAPS   O13 7760   4.092   3.996  10.892 -0.0705  0.5738 -0.1036
   83SAPS   O14 7761   4.290   3.843  10.920 -0.1204 -0.6994  0.3404
   83SAPS   O12 7762   4.063   3.746  10.911  0.2316 -0.1474 -0.1073
   83SAPS   O11 7763   4.168   3.853  10.712  0.5122  0.2895 -0.3278
   83SAPS    C1 7764   4.051   3.861  10.630 -1.0635  0.3140 -0.1602
   83SAPS    HA 7765   3.969   3.799  10.671  0.3401 -1.5770 -0.0728
   83SAPS    HB 7766   4.017   3.967  10.632 -0.7095  0.4120  1.4043
   83SAPS    C2 7767   4.083   3.809  10.492 -0.3645  0.5875 -0.0212
   83SAPS    HS 7768   4.124   3.706  10.501 -1.0663  0.1890 -1.0849
   83SAPS   O21 7769   4.186   3.894  10.435 -0.0624  0.1701 -0.0999
   83SAPS   C21 7770   4.275   3.843  10.351  0.1478  0.3429  0.0425
   83SAPS   O22 7771   4.295   3.728  10.323 -0.4953  0.1816 -0.1622
   83SAPS   C22 7772   4.370   3.948  10.302  0.0951 -0.3615  0.4004
   83SAPS   H2R 7773   4.306   4.035  10.276 -1.2250 -1.2478  0.5743
   83SAPS   H2S 7774   4.439   3.975  10.385 -0.0127 -0.8636  0.6581
   83SAPS    C3 7775   3.957   3.817  10.407  0.7970 -0.0381 -0.2689
   83SAPS    HX 7776   3.903   3.913  10.426 -0.8102 -0.6837 -1.3767
   83SAPS    HY 7777   3.891   3.739  10.451  1.4250 -0.0061  0.7591
   83SAPS   O31 7778   3.983   3.797  10.265  0.0451  0.1576 -0.0766
   83SAPS   C31 7779   3.953   3.673  10.222 -0.0200 -0.4906  0.3907
   83SAPS   O32 7780   3.933   3.581  10.296  0.5528 -0.4468  0.7303
   83SAPS   C32 7781   3.958   3.667  10.070 -0.2468 -0.5462 -0.0752
   83SAPS   H2X 7782   4.051   3.721  10.042 -0.0654 -0.7045  0.2122
   83SAPS   H2Y 7783   3.876   3.732  10.035  0.3537 -1.4111 -3.4868
   83SAPS   C23 7784   4.456   3.900  10.194  0.2431  0.5476 -0.0007
   83SAPS   H3R 7785   4.532   3.823  10.216 -2.3531 -2.4628 -0.8305
   83SAPS   H3S 7786   4.511   3.990  10.160  4.1920 -1.9373 -0.7121
   83SAPS   C24 7787   4.381   3.844  10.070  0.4508 -0.3046 -0.3537
   83SAPS   H4R 7788   4.291   3.909  10.060  1.6445  1.1042 -2.6924
   83SAPS   H4S 7789   4.348   3.741  10.096  0.1968 -0.1491 -0.0488
   83SAPS   C25 7790   4.464   3.838   9.944  0.3025  0.4521  0.2016
   83SAPS   H5R 7791   4.567   3.798   9.949  0.3532  0.3589 -1.1637
   83SAPS   C26 7792   4.416   3.857   9.816 -0.1656  0.3779  0.3609
   83SAPS   H6R 7793   4.490   3.849   9.735 -0.4468 -1.6054  0.2617
   83SAPS   C27 7794   4.280   3.886   9.758  0.2233 -0.3359 -0.3204
   83SAPS   H7R 7795   4.300   3.950   9.669  1.0582 -0.5718 -0.3175
   83SAPS   H7S 7796   4.228   3.966   9.815  1.2681 -0.6632  1.1534
   83SAPS   C28 7797   4.192   3.763   9.736  0.2542  0.5345 -0.2289
   83SAPS   H8R 7798   4.130   3.733   9.821 -2.1445 -1.4171 -2.5268
   83SAPS   C29 7799   4.188   3.689   9.627  0.2702  0.2024  0.3451
   83SAPS   H9R 7800   4.121   3.602   9.631 -0.1882  0.5955  1.5513
   83SAPS  C210 7801   4.271   3.703   9.501  0.1276  1.0200 -0.6949
   83SAPS  H10R 7802   4.265   3.808   9.466 -0.8903  0.8130 -1.1619
   83SAPS  H10S 7803   4.219   3.640   9.426  3.1483 -2.3856 -0.1842
   83SAPS  C211 7804   4.409   3.654   9.516 -0.9111  0.1082 -0.4717
   83SAPS  H11R 7805   4.467   3.718   9.583 -0.7213 -0.0881 -0.4471
   83SAPS  C212 7806   4.464   3.551   9.444  0.2878 -0.0654 -0.4915
   83SAPS  H12R 7807   4.569   3.524   9.461 -0.3088 -1.2210  1.8833
   83SAPS  C213 7808   4.391   3.463   9.345  0.1828  0.0602 -0.2805
   83SAPS  H13R 7809   4.388   3.511   9.245  0.9632  0.2632 -0.2089
   83SAPS  H13S 7810   4.285   3.464   9.380 -0.0074  0.2552 -0.8515
   83SAPS  C214 7811   4.443   3.320   9.340  0.2978 -0.3815 -0.3687
   83SAPS  H14R 7812   4.487   3.278   9.432  1.2322  1.0823 -0.1273
   83SAPS  C215 7813   4.437   3.235   9.232 -0.0812 -0.1684 -0.0091
   83SAPS  H15R 7814   4.492   3.140   9.244  0.5412  0.2747  0.7248
   83SAPS  C216 7815   4.377   3.253   9.094  0.3740 -0.7316 -0.0702
   83SAPS  H16R 7816   4.335   3.354   9.078 -0.0577 -1.2912 -3.0133
   83SAPS  H16S 7817   4.294   3.181   9.075  1.0640 -1.4593 -0.3694
   83SAPS  C217 7818   4.492   3.230   8.983  0.7376  0.1526  0.4256
   83SAPS  H17R 7819   4.552   3.139   9.006 -0.5634 -1.1437 -1.0927
   83SAPS  H17S 7820   4.552   3.324   8.991  0.4887  0.5179 -1.4848
   83SAPS  C218 7821   4.453   3.230   8.833 -0.2201 -0.0681 -0.2161
   83SAPS  H18R 7822   4.386   3.146   8.809 -0.4422  0.2910 -0.8707
   83SAPS  H18S 7823   4.545   3.206   8.775  1.0640  1.9318  0.8334
   83SAPS  C219 7824   4.388   3.362   8.792 -0.9591  0.4584 -1.2156
   83SAPS  H19R 7825   4.459   3.441   8.826 -1.4541 -0.0576  1.1813
   83SAPS  H19S 7826   4.289   3.376   8.839  0.1351  1.6410  0.8690
   83SAPS  C220 7827   4.387   3.376   8.641  0.3322  0.4089  0.0794
   83SAPS  H20R 7828   4.323   3.301   8.589  0.7966  0.6969 -0.9263
   83SAPS  H20S 7829   4.492   3.360   8.609 -0.0917 -1.7958 -0.3605
   83SAPS  H20T 7830   4.359   3.479   8.609 -0.8424 -0.0440 -0.3897
   83SAPS   C33 7831   3.943   3.521  10.013 -0.4698  0.0232 -0.2311
   83SAPS   H3X 7832   3.860   3.475  10.070  2.3846 -2.5312  2.1907
   83SAPS   H3Y 7833   4.033   3.459  10.033 -1.0595 -1.0721 -0.8592
   83SAPS   C34 7834   3.924   3.506   9.867  0.1654  0.1965  0.3049
   83SAPS   H4X 7835   3.893   3.406   9.830  0.3912 -0.1291  0.9920
   83SAPS   H4Y 7836   4.017   3.523   9.808 -0.6464 -1.0276 -1.4264
   83SAPS   C35 7837   3.825   3.612   9.816 -0.5247 -0.2928  1.0432
   83SAPS   H5X 7838   3.896   3.697   9.802 -0.2584 -0.5635  0.7491
   83SAPS   H5Y 7839   3.759   3.643   9.899 -1.2129 -1.5685  0.9981
   83SAPS   C36 7840   3.756   3.582   9.682  0.0626  0.1874  0.9429
   83SAPS   H6X 7841   3.687   3.668   9.668 -1.2341 -0.4815  2.9463
   83SAPS   H6Y 7842   3.683   3.498   9.678 -1.7747  1.6821  1.8884
   83SAPS   C37 7843   3.868   3.587   9.570  0.4283 -0.3495  0.3554
   83SAPS   H7X 7844   3.952   3.519   9.593 -0.6756 -1.9105 -0.0477
   83SAPS   H7Y 7845   3.908   3.690   9.574  1.8984 -0.8225 -1.0869
   83SAPS   C38 7846   3.804   3.559   9.426 -0.8061 -0.8817  0.1466
   83SAPS   H8X 7847   3.715   3.625   9.421 -0.1507  0.0470  0.4580
   83SAPS   H8Y 7848   3.770   3.453   9.419  2.2873 -1.9944  0.5272
   83SAPS   C39 7849   3.910   3.577   9.310 -0.6777  0.1494 -0.1333
   83SAPS   H9X 7850   3.984   3.499   9.335 -0.6184  0.6088  1.2113
   83SAPS   H9Y 7851   3.954   3.679   9.305 -0.5756  0.0673 -1.1738
   83SAPS  C310 7852   3.841   3.552   9.171 -0.1325 -0.2533 -0.5044
   83SAPS  H10X 7853   3.754   3.620   9.163  1.6714  2.4075  1.1448
   83SAPS  H10Y 7854   3.802   3.448   9.166  4.0657 -2.0731 -0.4717
   83SAPS  C311 7855   3.936   3.584   9.055  0.7534  0.5019  0.1291
   83SAPS  H11X 7856   4.027   3.520   9.058  2.1083  2.2512 -1.2161
   83SAPS  H11Y 7857   3.977   3.686   9.070 -0.7843  1.3176 -0.9281
   83SAPS  C312 7858   3.858   3.582   8.923 -0.3611 -0.2441 -0.5430
   83SAPS  H12X 7859   3.775   3.654   8.934 -0.9164 -0.7067 -1.5671
   83SAPS  H12Y 7860   3.802   3.487   8.911 -0.3140 -0.3785  0.2242
   83SAPS  C313 7861   3.949   3.615   8.808 -0.8525  0.0614  0.0556
   83SAPS  H13X 7862   4.056   3.606   8.836  0.4352  5.2197 -2.0564
   83SAPS  H13Y 7863   3.932   3.718   8.770  2.2675  1.0208  0.9417
   83SAPS  C314 7864   3.920   3.529   8.686  0.4828  0.1224 -0.6898
   83SAPS  H14X 7865   3.965   3.576   8.596 -0.1769  2.3258  0.0737
   83SAPS  H14Y 7866   3.811   3.528   8.667 -0.1872 -1.0755  2.5437
   83SAPS  C315 7867   3.990   3.388   8.690 -0.0295 -0.5174  0.2472
   83SAPS  H15X 7868   3.948   3.341   8.781 -2.8985  0.1200 -0.6269
   83SAPS  H15Y 7869   4.100   3.401   8.695  0.1766 -0.9975 -1.9701
   83SAPS  C316 7870   3.947   3.312   8.568 -0.7313  0.8191  0.3793
   83SAPS  H16X 7871   3.974   3.361   8.472  0.2799 -1.3776 -0.5503
   83SAPS  H16Y 7872   3.838   3.295   8.563 -0.6926  0.8340 -0.7505
   83SAPS  C317 7873   4.003   3.169   8.552 -0.2195  0.0597  0.3609
   83SAPS  H17X 7874   4.011   3.115   8.649 -0.4149 -0.7225 -0.0506
   83SAPS  H17Y 7875   4.109   3.172   8.519 -0.0508  1.5719  0.9783
   83SAPS  C318 7876   3.925   3.090   8.448  0.3256  0.4817  0.3171
   83SAPS  H18X 7877   3.994   3.030   8.384  0.5740  2.3063 -1.2342
   83SAPS  H18Y 7878   3.878   3.162   8.377  1.4154 -0.2332 -1.1987
   83SAPS  H18Z 7879   3.848   3.024   8.491 -1.5880  0.6898 -2.5165
   84SAPS     N 7880   4.569   2.667  10.954 -0.7381  0.6435 -0.3727
   84SAPS   HN1 7881   4.584   2.579  11.008  2.5268  1.2497 -0.0997
   84SAPS   HN2 7882   4.499   2.723  11.006  1.3703  2.1207  1.0311
   84SAPS   HN3 7883   4.538   2.639  10.859 -2.0106  2.4066 -0.5170
   84SAPS   C12 7884   4.689   2.760  10.950 -0.2837  0.2601  1.1043
   84SAPS  H12A 7885   4.698   2.788  11.053  0.4450  0.1345  1.0751
   84SAPS   C13 7886   4.828   2.685  10.911  0.7398 -0.0715  0.5797
   84SAPS  O13A 7887   4.816   2.560  10.890  0.0822  0.0032  0.2912
   84SAPS  O13B 7888   4.929   2.749  10.881 -0.4719 -0.1358 -0.0394
   84SAPS   C11 7889   4.666   2.884  10.858  0.2887 -0.1068  0.6837
   84SAPS  H11A 7890   4.683   2.850  10.753 -2.0693 -0.1298  0.2580
   84SAPS  H11B 7891   4.749   2.954  10.877 -1.0396  1.4126  1.0302
   84SAPS     P 7892   4.432   2.983  10.777  0.1473  0.0198 -0.2903
   84SAPS   O13 7893   4.390   2.852  10.739 -0.1770  0.1559 -0.5305
   84SAPS   O14 7894   4.325   3.068  10.838 -0.4443  0.2672  0.1058
   84SAPS   O12 7895   4.544   2.957  10.879 -0.0565 -0.0256  0.0753
   84SAPS   O11 7896   4.499   3.071  10.661 -0.5270  0.0611  0.0335
   84SAPS    C1 7897   4.466   3.074  10.521 -0.0014  0.5944  0.0582
   84SAPS    HA 7898   4.367   3.027  10.502  0.4601 -1.5769  2.4997
   84SAPS    HB 7899   4.456   3.182  10.497  3.4595  1.0859  0.2852
   84SAPS    C2 7900   4.574   3.027  10.429  0.4366 -0.5967 -0.4055
   84SAPS    HS 7901   4.571   2.916  10.437  1.7149 -0.8230 -2.3683
   84SAPS   O21 7902   4.696   3.084  10.480 -0.4162  0.3360  0.8382
   84SAPS   C21 7903   4.802   3.015  10.424  0.0070  0.4291  0.2544
   84SAPS   O22 7904   4.792   2.899  10.385 -0.0808 -0.2559  0.7390
   84SAPS   C22 7905   4.933   3.096  10.432  0.1011 -0.1172  0.3409
   84SAPS   H2R 7906   4.954   3.101  10.541 -2.0539 -1.8043  0.8970
   84SAPS   H2S 7907   5.009   3.037  10.375  0.8756 -1.3491  2.5111
   84SAPS    C3 7908   4.540   3.081  10.290 -0.2272  0.0290 -1.1498
   84SAPS    HX 7909   4.536   3.191  10.279 -0.1223  0.0000 -1.4893
   84SAPS    HY 7910   4.431   3.063  10.280 -0.1774 -2.5055  1.5633
   84SAPS   O31 7911   4.629   3.026  10.188 -0.0448 -0.0634  0.2115
   84SAPS   C31 7912   4.576   2.926  10.116 -0.0944 -0.1749  0.4915
   84SAPS   O32 7913   4.459   2.885  10.125  0.0890 -0.0049  0.2864
   84SAPS   C32 7914   4.686   2.850  10.034 -0.1530 -0.7011 -0.1566
   84SAPS   H2X 7915   4.700   2.753  10.086  0.9122  0.6365  2.2468
   84SAPS   H2Y 7916   4.783   2.904  10.039 -1.2541  1.4497 -0.6775
   84SAPS   C23 7917   4.923   3.237  10.368  0.4023 -0.3586  0.0601
   84SAPS   H3R 7918   5.003   3.301  10.411 -0.4746  0.3518  0.6529
   84SAPS   H3S 7919   4.832   3.287  10.405 -1.3398 -2.0640 -1.6823
   84SAPS   C24 7920   4.931   3.245  10.213  0.6415 -0.5678  0.3952
   84SAPS   H4R 7921   4.894   3.345  10.182 -0.5973 -1.3541 -0.7611
   84SAPS   H4S 7922   4.853   3.174  10.177 -0.9191  0.5215  1.4877
   84SAPS   C25 7923   5.067   3.242  10.156  0.6570 -0.7919  0.1624
   84SAPS   H5R 7924   5.134   3.325  10.185 -0.2113 -0.5098  1.4481
   84SAPS   C26 7925   5.122   3.143  10.081 -0.6089 -0.4329 -0.6142
   84SAPS   H6R 7926   5.222   3.155  10.039  0.1485 -1.1100  0.9181
   84SAPS   C27 7927   5.061   3.006  10.046 -0.0215 -0.1838 -0.2484
   84SAPS   H7R 7928   5.067   2.996   9.936  3.3979 -0.3707 -0.1378
   84SAPS   H7S 7929   4.955   3.003  10.080 -0.8444  2.8387 -2.1560
   84SAPS   C28 7930   5.149   2.901  10.115  0.4693  0.2442 -0.2052
   84SAPS   H8R 7931   5.110   2.850  10.205  0.1237  0.4381 -0.2420
   84SAPS   C29 7932   5.268   2.851  10.081  0.4491 -0.5110  0.3125
   84SAPS   H9R 7933   5.311   2.777  10.150 -2.2544 -0.1773  2.5249
   84SAPS  C210 7934   5.348   2.900   9.967 -0.2363  0.7004  0.4258
   84SAPS  H10R 7935   5.320   3.007   9.959  0.8086  1.1600  2.2230
   84SAPS  H10S 7936   5.308   2.852   9.876 -0.2369 -2.6631  2.0303
   84SAPS  C211 7937   5.495   2.870   9.991  0.4954 -0.0738 -0.0323
   84SAPS  H11R 7938   5.518   2.822  10.088  1.7950  1.2430  0.3458
   84SAPS  C212 7939   5.592   2.883   9.907 -0.3576  0.7713  0.6798
   84SAPS  H12R 7940   5.695   2.859   9.938 -0.6198  1.8126  2.4892
   84SAPS  C213 7941   5.573   2.925   9.770  0.6540 -0.3860  0.2264
   84SAPS  H13R 7942   5.470   2.963   9.756  0.4929 -0.7802  0.3443
   84SAPS  H13S 7943   5.568   2.833   9.707 -1.6354  0.7861 -1.4631
   84SAPS  C214 7944   5.666   3.033   9.719 -0.0759 -0.1503 -0.6055
   84SAPS  H14R 7945   5.669   3.132   9.767  0.3900 -0.0502 -0.8339
   84SAPS  C215 7946   5.743   3.019   9.612  0.5555  1.0652  0.1199
   84SAPS  H15R 7947   5.818   3.093   9.582  2.5015 -1.0825 -0.6087
   84SAPS  C216 7948   5.761   2.897   9.523 -0.2598  0.1142  0.2456
   84SAPS  H16R 7949   5.697   2.808   9.541 -2.5589  1.7124  0.3148
   84SAPS  H16S 7950   5.868   2.868   9.537 -0.6758 -1.1644  0.9708
   84SAPS  C217 7951   5.742   2.927   9.377  0.2446 -0.0819  0.5683
   84SAPS  H17R 7952   5.783   3.019   9.330  2.0463 -1.1860 -0.0884
   84SAPS  H17S 7953   5.632   2.944   9.366 -0.0128 -1.8240  0.2257
   84SAPS  C218 7954   5.787   2.813   9.285 -0.2291  0.3922  0.3978
   84SAPS  H18R 7955   5.756   2.714   9.323  2.9252 -1.3869 -1.2101
   84SAPS  H18S 7956   5.898   2.812   9.291 -0.1873  1.8252  0.3375
   84SAPS  C219 7957   5.755   2.838   9.140  0.0536 -0.2168  0.2443
   84SAPS  H19R 7958   5.798   2.939   9.122  0.6372 -0.8563 -2.3064
   84SAPS  H19S 7959   5.644   2.835   9.142  0.0255 -0.7432 -1.3578
   84SAPS  C220 7960   5.806   2.741   9.038 -0.4761  0.5012 -0.6336
   84SAPS  H20R 7961   5.799   2.636   9.073  0.7916 -0.5049 -3.1443
   84SAPS  H20S 7962   5.911   2.768   9.017  0.3213 -1.6308  0.2502
   84SAPS  H20T 7963   5.744   2.758   8.948 -1.6109  0.4145  0.1037
   84SAPS   C33 7964   4.640   2.831   9.894 -0.9285 -0.8902 -0.6313
   84SAPS   H3X 7965   4.626   2.929   9.843  0.2431 -0.1248  0.4440
   84SAPS   H3Y 7966   4.546   2.771   9.900 -0.7880 -1.0977 -0.5094
   84SAPS   C34 7967   4.747   2.761   9.807 -0.5502  0.0204 -0.2084
   84SAPS   H4X 7968   4.692   2.736   9.714 -2.6247  3.0309  0.0506
   84SAPS   H4Y 7969   4.783   2.674   9.866 -0.2147 -1.3037 -2.2713
   84SAPS   C35 7970   4.868   2.855   9.778  0.2943  0.2278  0.1899
   84SAPS   H5X 7971   4.921   2.869   9.875 -0.2929  0.4475  0.4829
   84SAPS   H5Y 7972   4.813   2.943   9.739  1.2730  0.7976  0.0784
   84SAPS   C36 7973   4.963   2.801   9.669 -0.1354 -0.7752 -0.0485
   84SAPS   H6X 7974   5.036   2.876   9.631  0.5267 -1.1338  0.5046
   84SAPS   H6Y 7975   4.902   2.769   9.581  1.8882  1.2778 -2.3655
   84SAPS   C37 7976   5.061   2.698   9.720 -0.0043 -0.5572  0.6767
   84SAPS   H7X 7977   5.012   2.598   9.727  1.1591 -1.1009  1.2190
   84SAPS   H7Y 7978   5.114   2.738   9.808 -1.2827  0.8844  0.8311
   84SAPS   C38 7979   5.172   2.665   9.618 -0.1244  0.2823 -0.7116
   84SAPS   H8X 7980   5.126   2.632   9.522 -1.7957  1.8417 -0.5103
   84SAPS   H8Y 7981   5.234   2.583   9.661 -0.2447  0.7857  0.4630
   84SAPS   C39 7982   5.274   2.778   9.604  0.1082 -0.7979  0.1541
   84SAPS   H9X 7983   5.336   2.781   9.696  0.9018  1.2254 -0.3872
   84SAPS   H9Y 7984   5.219   2.874   9.599 -2.5523 -2.1717  1.2872
   84SAPS  C310 7985   5.369   2.775   9.476 -0.2756  0.8116  0.0514
   84SAPS  H10X 7986   5.418   2.676   9.463 -3.9573 -0.9983 -1.5045
   84SAPS  H10Y 7987   5.453   2.838   9.513  0.2685 -1.2904  2.7419
   84SAPS  C311 7988   5.323   2.823   9.335  0.0060  0.4147 -0.1008
   84SAPS  H11X 7989   5.410   2.865   9.281  0.4405 -2.9759 -2.3000
   84SAPS  H11Y 7990   5.243   2.899   9.348 -0.8815 -0.5603  0.3003
   84SAPS  C312 7991   5.268   2.705   9.255 -0.0212 -0.2873 -0.5019
   84SAPS  H12X 7992   5.225   2.744   9.160 -0.5730  0.4516  0.0431
   84SAPS  H12Y 7993   5.193   2.654   9.319 -0.1116  1.3523  0.7534
   84SAPS  C313 7994   5.372   2.590   9.222  0.1057  0.7533  0.2880
   84SAPS  H13X 7995   5.389   2.535   9.317 -0.1590 -0.0506 -0.1178
   84SAPS  H13Y 7996   5.478   2.616   9.202  0.8216 -1.0882  1.3797
   84SAPS  C314 7997   5.323   2.479   9.121  0.2595 -0.8008 -0.1539
   84SAPS  H14X 7998   5.409   2.417   9.088  1.4695  1.5153 -1.5660
   84SAPS  H14Y 7999   5.287   2.522   9.026  1.6256  3.4959  1.0513
   84SAPS  C315 8000   5.229   2.374   9.192  0.5234 -0.1941  0.4472
   84SAPS  H15X 8001   5.127   2.415   9.208 -1.2938 -3.1339 -2.2834
   84SAPS  H15Y 8002   5.264   2.340   9.292  3.5527 -0.4243 -0.5921
   84SAPS  C316 8003   5.212   2.254   9.096 -0.0755 -0.7761  0.6801
   84SAPS  H16X 8004   5.181   2.162   9.151  0.7457 -1.6568 -0.2879
   84SAPS  H16Y 8005   5.309   2.228   9.048 -0.9711 -2.9064 -0.0939
   84SAPS  C317 8006   5.114   2.282   8.983 -0.1397  0.2072 -0.0607
   84SAPS  H17X 8007   5.161   2.364   8.925 -0.1726  0.8095  0.7463
   84SAPS  H17Y 8008   5.018   2.319   9.023  0.2356  0.4876  0.6065
   84SAPS  C318 8009   5.076   2.174   8.878  0.1890 -0.1363 -0.1724
   84SAPS  H18X 8010   5.163   2.110   8.854  0.4593 -0.3263  1.2420
   84SAPS  H18Y 8011   5.026   2.214   8.788 -1.3559 -1.5540  0.0040
   84SAPS  H18Z 8012   5.015   2.095   8.927 -1.7736  2.3944  1.7214
   85SAPS     N 8013   0.812   3.854  10.807  0.5530 -0.2678  0.1421
   85SAPS   HN1 8014   0.794   3.859  10.705  0.0183 -0.3010  0.2347
   85SAPS   HN2 8015   0.794   3.946  10.852  0.9953 -1.2804  2.5288
   85SAPS   HN3 8016   0.915   3.837  10.804  0.1850 -2.7331 -0.8417
   85SAPS   C12 8017   0.739   3.744  10.875 -0.0563  1.5345  0.3973
   85SAPS  H12A 8018   0.773   3.735  10.977  0.1782 -1.4176  0.1437
   85SAPS   C13 8019   0.590   3.785  10.887 -0.2688 -0.1993  0.6617
   85SAPS  O13A 8020   0.549   3.897  10.863  0.4136 -0.0084  0.6376
   85SAPS  O13B 8021   0.509   3.699  10.923  0.2929  0.0604 -0.1858
   85SAPS   C11 8022   0.760   3.604  10.792 -0.0129 -0.5603 -0.2431
   85SAPS  H11A 8023   0.712   3.599  10.693 -2.5975 -1.2403  0.9625
   85SAPS  H11B 8024   0.720   3.531  10.866 -0.7005  0.5511  0.5162
   85SAPS     P 8025   0.979   3.460  10.752 -0.1070  0.4759  0.1562
   85SAPS   O13 8026   1.095   3.463  10.846 -0.4582 -0.4328 -0.7276
   85SAPS   O14 8027   0.889   3.342  10.748  0.1568 -0.5640 -0.3025
   85SAPS   O12 8028   0.897   3.589  10.794 -0.2680  0.0775  0.2286
   85SAPS   O11 8029   1.031   3.485  10.603 -0.5017  0.3040 -0.3406
   85SAPS    C1 8030   0.964   3.568  10.503  0.1228 -0.9376  0.2842
   85SAPS    HA 8031   0.862   3.603  10.531  0.2787 -2.0074  2.4086
   85SAPS    HB 8032   1.026   3.660  10.493 -0.2176 -0.8966 -1.9570
   85SAPS    C2 8033   0.965   3.509  10.360  0.7863  0.5849 -0.3158
   85SAPS    HS 8034   0.933   3.403  10.370  1.1790  0.0159 -3.7953
   85SAPS   O21 8035   1.094   3.521  10.302  0.2516 -0.1993  0.1138
   85SAPS   C21 8036   1.146   3.417  10.241  0.1255  0.6396  0.4163
   85SAPS   O22 8037   1.099   3.307  10.231 -0.6805  0.4184 -0.0430
   85SAPS   C22 8038   1.271   3.458  10.168 -0.4614  0.6993  0.4852
   85SAPS   H2R 8039   1.333   3.523  10.234 -0.8798  0.0654  1.5320
   85SAPS   H2S 8040   1.322   3.359  10.161 -1.7611  0.1315 -2.8510
   85SAPS    C3 8041   0.864   3.586  10.275 -0.2526  0.4371  0.4360
   85SAPS    HX 8042   0.904   3.690  10.282  0.7684  0.1894 -1.1405
   85SAPS    HY 8043   0.769   3.563  10.327  0.4578 -0.8248  1.2056
   85SAPS   O31 8044   0.859   3.546  10.137 -0.9026  0.2696 -0.1182
   85SAPS   C31 8045   0.900   3.625  10.049  0.5620  0.8886  0.2222
   85SAPS   O32 8046   0.943   3.738  10.063  0.3622  0.3934 -0.1016
   85SAPS   C32 8047   0.883   3.549   9.914 -0.0870  0.3119  0.9358
   85SAPS   H2X 8048   0.775   3.530   9.894  0.9111 -2.7317 -2.4462
   85SAPS   H2Y 8049   0.923   3.446   9.912  2.0594  1.1057  0.4601
   85SAPS   C23 8050   1.246   3.506  10.024  0.3214  0.3654 -0.1268
   85SAPS   H3R 8051   1.169   3.586  10.023 -0.8271 -0.5698  2.8253
   85SAPS   H3S 8052   1.219   3.422   9.955  0.4286 -0.1263  0.4199
   85SAPS   C24 8053   1.370   3.569   9.966  0.2433 -0.5519 -0.5868
   85SAPS   H4R 8054   1.393   3.652  10.037 -0.5081 -1.8614  1.2851
   85SAPS   H4S 8055   1.345   3.620   9.871  0.9731  1.0317  0.0447
   85SAPS   C25 8056   1.489   3.485   9.942 -0.1728  0.7193 -0.0749
   85SAPS   H5R 8057   1.536   3.453  10.037 -1.7481 -0.0325  0.4832
   85SAPS   C26 8058   1.549   3.460   9.824 -0.3118  0.0465 -0.3757
   85SAPS   H6R 8059   1.638   3.396   9.815 -1.3524 -1.3680 -1.0227
   85SAPS   C27 8060   1.503   3.519   9.691  0.5232 -0.4184  0.2324
   85SAPS   H7R 8061   1.394   3.537   9.695  0.7537  2.5267 -2.6202
   85SAPS   H7S 8062   1.519   3.440   9.615  0.3275 -1.2689  1.0550
   85SAPS   C28 8063   1.586   3.637   9.647 -0.0098 -0.4950  0.8296
   85SAPS   H8R 8064   1.626   3.696   9.731  2.0992 -3.6032  2.1912
   85SAPS   C29 8065   1.604   3.690   9.522  0.9593  0.2057 -0.3815
   85SAPS   H9R 8066   1.667   3.778   9.499  1.1415  0.6229  1.5665
   85SAPS  C210 8067   1.537   3.619   9.403 -0.3725 -0.0996 -0.2030
   85SAPS  H10R 8068   1.451   3.679   9.366  0.3403 -0.2394 -2.2435
   85SAPS  H10S 8069   1.488   3.525   9.434  0.7414  0.1191  2.5401
   85SAPS  C211 8070   1.640   3.581   9.307 -0.8258  0.6854 -0.2513
   85SAPS  H11R 8071   1.726   3.527   9.350 -1.7170 -2.5805 -2.2348
   85SAPS  C212 8072   1.637   3.610   9.177  0.5201 -0.1088 -0.3584
   85SAPS  H12R 8073   1.714   3.568   9.111  0.6058  0.3446 -0.5579
   85SAPS  C213 8074   1.526   3.686   9.106  1.0913  0.0269  0.0024
   85SAPS  H13R 8075   1.448   3.726   9.174 -0.5380 -2.2065 -0.4201
   85SAPS  H13S 8076   1.475   3.611   9.042  1.6653 -0.4531  0.0947
   85SAPS  C214 8077   1.581   3.804   9.032 -0.7165  0.2546  0.3801
   85SAPS  H14R 8078   1.630   3.880   9.095  1.7142  0.7762 -1.9891
   85SAPS  C215 8079   1.565   3.835   8.903 -0.1023  0.6215  0.7672
   85SAPS  H15R 8080   1.622   3.918   8.859  0.0501  0.0264 -0.2024
   85SAPS  C216 8081   1.491   3.750   8.799 -0.7749  0.2178  0.8494
   85SAPS  H16R 8082   1.388   3.791   8.788 -0.2072  1.6208  0.6259
   85SAPS  H16S 8083   1.467   3.648   8.836 -0.1638  0.4639  1.9593
   85SAPS  C217 8084   1.565   3.722   8.670  0.0247  0.5258  0.7661
   85SAPS  H17R 8085   1.663   3.670   8.676 -0.7519 -1.0171  0.5311
   85SAPS  H17S 8086   1.585   3.819   8.621  2.0356 -0.3365 -0.2497
   85SAPS  C218 8087   1.470   3.650   8.565 -0.2735 -0.0344  0.5534
   85SAPS  H18R 8088   1.364   3.649   8.597  0.2785 -1.1464  2.5074
   85SAPS  H18S 8089   1.509   3.547   8.553  0.3345  0.3729 -1.2828
   85SAPS  C219 8090   1.471   3.704   8.424  0.1657 -1.5809 -0.9032
   85SAPS  H19R 8091   1.571   3.699   8.376  0.2329  0.7787 -1.0865
   85SAPS  H19S 8092   1.429   3.806   8.420 -1.2417 -2.1709 -2.1399
   85SAPS  C220 8093   1.387   3.621   8.327  0.4766 -0.8521  0.6999
   85SAPS  H20R 8094   1.279   3.624   8.353  0.8094  1.0946  2.0058
   85SAPS  H20S 8095   1.419   3.515   8.317 -1.7049 -1.4798 -0.2997
   85SAPS  H20T 8096   1.401   3.669   8.228 -1.6848  0.2346  0.8617
   85SAPS   C33 8097   0.930   3.634   9.791 -0.0353 -0.4411 -0.3834
   85SAPS   H3X 8098   0.890   3.737   9.802 -3.0683 -1.6243  0.9589
   85SAPS   H3Y 8099   0.877   3.595   9.701 -3.3475 -0.3967  1.3807
   85SAPS   C34 8100   1.080   3.650   9.766 -0.2952  0.2046  0.0780
   85SAPS   H4X 8101   1.126   3.550   9.750 -0.6736 -0.2626  1.7643
   85SAPS   H4Y 8102   1.126   3.696   9.856 -1.4703 -0.1522  0.8679
   85SAPS   C35 8103   1.123   3.744   9.649  0.5582  0.4315  0.2005
   85SAPS   H5X 8104   1.231   3.769   9.645  0.2307  1.7931 -1.1292
   85SAPS   H5Y 8105   1.082   3.847   9.660  0.5435  0.7421 -2.1243
   85SAPS   C36 8106   1.067   3.688   9.518  0.3366 -0.1892 -0.2550
   85SAPS   H6X 8107   0.967   3.737   9.510 -0.6866 -1.1675  4.1010
   85SAPS   H6Y 8108   1.057   3.577   9.518  0.5258 -0.2466 -2.5902
   85SAPS   C37 8109   1.139   3.728   9.391 -1.2429  0.0943 -0.0511
   85SAPS   H7X 8110   1.207   3.641   9.377 -1.1053 -0.4527  3.1961
   85SAPS   H7Y 8111   1.188   3.826   9.412  0.8306 -0.7668 -0.6047
   85SAPS   C38 8112   1.051   3.755   9.273  0.5540 -0.1548  0.2566
   85SAPS   H8X 8113   0.998   3.853   9.280  0.8845  0.5774 -4.1384
   85SAPS   H8Y 8114   0.972   3.677   9.270 -0.3594  0.4901  3.7822
   85SAPS   C39 8115   1.111   3.742   9.129  0.6736  0.3138 -0.2522
   85SAPS   H9X 8116   1.172   3.649   9.127 -0.3573 -0.3631 -0.7245
   85SAPS   H9Y 8117   1.188   3.820   9.109  1.4129 -0.8178 -2.0598
   85SAPS  C310 8118   1.021   3.745   9.002 -0.1470  1.2122  1.0703
   85SAPS  H10X 8119   0.950   3.830   8.997 -0.4120  0.9470 -0.2217
   85SAPS  H10Y 8120   0.947   3.663   9.017  0.0881  0.9547  0.8528
   85SAPS  C311 8121   1.091   3.734   8.871 -0.5549  0.4507 -0.2846
   85SAPS  H11X 8122   1.162   3.648   8.871 -1.9725 -0.7789 -1.6889
   85SAPS  H11Y 8123   1.145   3.829   8.852  0.1920 -0.1344 -1.1490
   85SAPS  C312 8124   0.995   3.714   8.750 -0.9466  0.1002 -0.3641
   85SAPS  H12X 8125   0.951   3.815   8.739 -4.0404 -0.8296  2.1830
   85SAPS  H12Y 8126   0.906   3.651   8.770 -0.5466  0.1889  1.9371
   85SAPS  C313 8127   1.071   3.664   8.620 -0.4349  0.3274 -0.0103
   85SAPS  H13X 8128   1.113   3.561   8.629  0.1046  0.5267 -0.2616
   85SAPS  H13Y 8129   1.152   3.735   8.593 -0.7895  0.5526 -0.4849
   85SAPS  C314 8130   0.979   3.649   8.499 -0.1650  0.0131  0.2776
   85SAPS  H14X 8131   0.910   3.563   8.508 -0.2002  0.1861  1.9321
   85SAPS  H14Y 8132   1.038   3.646   8.404 -3.0872  2.6356 -1.8604
   85SAPS  C315 8133   0.895   3.785   8.481  0.1241 -0.2110 -0.3973
   85SAPS  H15X 8134   0.827   3.788   8.569  0.5731 -1.4815  0.0116
   85SAPS  H15Y 8135   0.830   3.774   8.392  1.1028 -4.6285 -0.8023
   85SAPS  C316 8136   0.975   3.919   8.456 -1.1057 -0.1383 -0.5629
   85SAPS  H16X 8137   1.030   3.937   8.551 -2.1312 -0.9308  0.2109
   85SAPS  H16Y 8138   0.906   4.003   8.435 -0.7703 -0.0209 -1.2433
   85SAPS  C317 8139   1.076   3.891   8.344 -0.8571 -0.3153  0.3934
   85SAPS  H17X 8140   1.025   3.835   8.263  0.9243 -1.6487  0.1399
   85SAPS  H17Y 8141   1.164   3.828   8.367  1.1328  1.2113 -2.4581
   85SAPS  C318 8142   1.132   4.020   8.273  0.3553  0.2302 -0.1982
   85SAPS  H18X 8143   1.050   4.094   8.259  0.8829  0.8335 -0.1664
   85SAPS  H18Y 8144   1.175   3.999   8.173  0.6771  0.2557 -0.0667
   85SAPS  H18Z 8145   1.202   4.060   8.350 -1.7595  0.5555  1.6639
   86SAPS     N 8146   5.676   3.906  10.891 -0.6093 -0.2770 -0.5855
   86SAPS   HN1 8147   5.695   3.960  10.804  1.0486  0.9265  0.4710
   86SAPS   HN2 8148   5.768   3.879  10.933 -1.3273 -1.1870  0.4597
   86SAPS   HN3 8149   5.617   3.821  10.881 -1.4812  0.3702 -1.0284
   86SAPS   C12 8150   5.608   4.003  10.990  0.1303 -0.2871 -0.5914
   86SAPS  H12A 8151   5.500   4.007  10.980  0.0785  0.2235  0.0787
   86SAPS   C13 8152   5.650   3.991  11.141  0.6903  0.1859 -0.0432
   86SAPS  O13A 8153   5.759   3.934  11.163  0.2786 -0.5848  0.2949
   86SAPS  O13B 8154   5.608   4.072  11.228  0.4407 -0.6424 -0.0620
   86SAPS   C11 8155   5.651   4.141  10.936 -0.2844 -0.1420  0.6025
   86SAPS  H11A 8156   5.762   4.142  10.942 -0.2479 -0.4126  0.0527
   86SAPS  H11B 8157   5.613   4.226  10.995 -0.9882  0.5760 -0.8337
   86SAPS     P 8158   5.508   4.254  10.750 -0.0091  0.1192 -0.1589
   86SAPS   O13 8159   5.397   4.208  10.829 -0.0737 -0.2473 -0.6329
   86SAPS   O14 8160   5.548   4.395  10.782 -0.1759  0.4065 -0.4074
   86SAPS   O12 8161   5.624   4.155  10.794 -0.1121  0.3496  0.3940
   86SAPS   O11 8162   5.490   4.235  10.596 -0.3091 -0.1682 -0.0220
   86SAPS    C1 8163   5.594   4.209  10.501 -0.3441 -0.4002 -0.0864
   86SAPS    HA 8164   5.686   4.266  10.524 -0.3734 -0.4174  0.0767
   86SAPS    HB 8165   5.626   4.103  10.515  2.2879  0.4450  0.8352
   86SAPS    C2 8166   5.547   4.239  10.354 -0.3514 -0.1062  0.1641
   86SAPS    HS 8167   5.467   4.171  10.320 -0.8369  0.1407  0.7815
   86SAPS   O21 8168   5.647   4.229  10.254  0.2302 -0.9213  0.5775
   86SAPS   C21 8169   5.705   4.115  10.237 -0.1801 -0.3413  0.1973
   86SAPS   O22 8170   5.683   4.010  10.295  0.4229 -0.5033 -0.8048
   86SAPS   C22 8171   5.769   4.132  10.101 -0.0420  0.3769  0.1271
   86SAPS   H2R 8172   5.861   4.191  10.118  0.7442 -1.2680  1.9367
   86SAPS   H2S 8173   5.793   4.030  10.064 -0.3847  0.6256 -0.7949
   86SAPS    C3 8174   5.501   4.393  10.354 -0.1207  0.1443 -0.1425
   86SAPS    HX 8175   5.577   4.455  10.407  0.5240 -0.8097  0.0821
   86SAPS    HY 8176   5.415   4.398  10.424 -0.6382 -3.2495 -0.4004
   86SAPS   O31 8177   5.453   4.448  10.228  0.0363 -0.0046 -0.0983
   86SAPS   C31 8178   5.547   4.516  10.158 -0.2385 -0.0953  0.2115
   86SAPS   O32 8179   5.658   4.539  10.200 -0.4724  0.1716 -0.1652
   86SAPS   C32 8180   5.490   4.567  10.032 -0.5435 -0.1990 -0.5662
   86SAPS   H2X 8181   5.477   4.676  10.051 -0.2093 -0.2640  0.0678
   86SAPS   H2Y 8182   5.392   4.517  10.020  0.2473 -2.8155  2.4782
   86SAPS   C23 8183   5.672   4.197   9.991  0.4997  0.8928 -0.0284
   86SAPS   H3R 8184   5.730   4.214   9.898  1.7252  2.1731  0.9307
   86SAPS   H3S 8185   5.652   4.302  10.021  1.2253  1.5207 -1.6438
   86SAPS   C24 8186   5.540   4.109   9.983 -0.3534  0.0339 -0.1597
   86SAPS   H4R 8187   5.476   4.163   9.910  0.0550 -0.2170 -0.7155
   86SAPS   H4S 8188   5.487   4.111  10.080 -0.9048  0.0805 -0.4572
   86SAPS   C25 8189   5.561   3.967   9.950  0.2686 -0.3898  0.0582
   86SAPS   H5R 8190   5.548   3.900  10.036  0.0382  0.0178  0.3456
   86SAPS   C26 8191   5.588   3.918   9.832 -0.7782 -0.0046 -0.6757
   86SAPS   H6R 8192   5.596   3.809   9.824 -1.6319 -0.1369  0.1664
   86SAPS   C27 8193   5.605   4.001   9.713 -0.1617 -0.1282  0.8614
   86SAPS   H7R 8194   5.578   4.108   9.727 -0.8665  0.0497 -1.4141
   86SAPS   H7S 8195   5.535   3.974   9.631  0.4405 -1.9626  0.9056
   86SAPS   C28 8196   5.752   4.001   9.666  0.4028 -0.7586 -0.1495
   86SAPS   H8R 8197   5.829   4.036   9.736 -1.4629  0.8165  1.2280
   86SAPS   C29 8198   5.786   3.953   9.544  0.7126 -0.8892 -0.0526
   86SAPS   H9R 8199   5.892   3.959   9.516  1.1329  1.3743  1.6925
   86SAPS  C210 8200   5.693   3.901   9.440 -0.4710 -0.3598 -0.2844
   86SAPS  H10R 8201   5.628   3.987   9.413 -1.3141 -0.1470  2.2431
   86SAPS  H10S 8202   5.629   3.833   9.500 -0.4299 -1.0796 -1.0452
   86SAPS  C211 8203   5.752   3.846   9.313 -0.5766  0.4546  0.0874
   86SAPS  H11R 8204   5.846   3.795   9.334  0.7970  2.0508 -1.7201
   86SAPS  C212 8205   5.692   3.831   9.190 -0.0110 -0.0755 -0.7805
   86SAPS  H12R 8206   5.756   3.796   9.108 -1.1309 -1.5905 -1.0612
   86SAPS  C213 8207   5.553   3.877   9.154 -0.2565  0.0356  0.5367
   86SAPS  H13R 8208   5.544   3.986   9.173 -0.8651 -0.2016  1.6304
   86SAPS  H13S 8209   5.472   3.842   9.221 -2.2346  0.9646 -1.2313
   86SAPS  C214 8210   5.521   3.863   9.011  0.2623 -0.8058  0.0613
   86SAPS  H14R 8211   5.534   3.951   8.946 -0.7263 -0.2248  0.6202
   86SAPS  C215 8212   5.459   3.752   8.957 -0.5512 -0.2578  0.0642
   86SAPS  H15R 8213   5.432   3.750   8.851  1.4597 -2.1311 -0.4970
   86SAPS  C216 8214   5.410   3.624   9.021 -0.1462 -0.7964 -0.4952
   86SAPS  H16R 8215   5.435   3.614   9.129  0.7355 -1.1587 -0.7254
   86SAPS  H16S 8216   5.479   3.552   8.973 -0.0580 -0.7663 -0.4141
   86SAPS  C217 8217   5.264   3.588   8.991 -0.0558  0.1297 -0.8514
   86SAPS  H17R 8218   5.202   3.650   9.060 -0.8252 -2.7805  1.2673
   86SAPS  H17S 8219   5.250   3.486   9.031 -0.3447 -0.2986 -2.0274
   86SAPS  C218 8220   5.214   3.590   8.853 -0.2076 -0.6243 -0.3700
   86SAPS  H18R 8221   5.285   3.543   8.782  0.3558  2.4926 -2.0687
   86SAPS  H18S 8222   5.217   3.699   8.829 -4.3632 -0.2755 -0.1017
   86SAPS  C219 8223   5.073   3.543   8.821 -0.6415  0.1416  0.7392
   86SAPS  H19R 8224   5.011   3.613   8.881 -0.6723 -2.1751  3.6682
   86SAPS  H19S 8225   5.049   3.437   8.848  1.2148  0.1115  2.4286
   86SAPS  C220 8226   5.032   3.548   8.672 -0.0288 -0.3147 -1.0267
   86SAPS  H20R 8227   4.923   3.533   8.684  0.0905 -1.0304 -0.7841
   86SAPS  H20S 8228   5.084   3.477   8.604  1.5673  0.4484 -0.6458
   86SAPS  H20T 8229   5.053   3.652   8.640 -0.3361 -0.2729 -1.0961
   86SAPS   C33 8230   5.584   4.536   9.913  0.1271 -0.2787  0.3954
   86SAPS   H3X 8231   5.565   4.430   9.888  0.8579 -0.2011 -0.5592
   86SAPS   H3Y 8232   5.691   4.534   9.941  0.5489 -0.7806 -1.1586
   86SAPS   C34 8233   5.569   4.639   9.799 -0.4266  0.0674  0.2665
   86SAPS   H4X 8234   5.593   4.739   9.842  1.8568 -0.4249  0.2873
   86SAPS   H4Y 8235   5.468   4.649   9.754  0.3895  2.2320 -1.2528
   86SAPS   C35 8236   5.656   4.606   9.671 -0.0526  0.5934  0.7271
   86SAPS   H5X 8237   5.758   4.594   9.714 -0.5339 -2.4248  1.2892
   86SAPS   H5Y 8238   5.645   4.686   9.596  1.0558 -1.7557 -2.1259
   86SAPS   C36 8239   5.604   4.469   9.609 -0.5060 -0.7508  0.4604
   86SAPS   H6X 8240   5.493   4.468   9.603 -0.6720  2.0355  1.6123
   86SAPS   H6Y 8241   5.645   4.397   9.683  0.4987 -0.8625 -0.1867
   86SAPS   C37 8242   5.664   4.445   9.471  0.3040  0.2534 -0.3224
   86SAPS   H7X 8243   5.772   4.467   9.457  0.0689  0.5340 -1.8014
   86SAPS   H7Y 8244   5.599   4.512   9.411 -0.4411 -0.6684 -0.5777
   86SAPS   C38 8245   5.650   4.299   9.422  0.1359  0.0993 -0.4263
   86SAPS   H8X 8246   5.544   4.266   9.417  0.0937 -0.1667  1.5348
   86SAPS   H8Y 8247   5.712   4.236   9.489  0.5821 -0.1321 -1.0512
   86SAPS   C39 8248   5.719   4.272   9.286 -0.1220 -1.1229  0.7107
   86SAPS   H9X 8249   5.690   4.170   9.252 -1.1439 -0.3031 -1.0424
   86SAPS   H9Y 8250   5.829   4.261   9.290  0.0569 -0.8196 -1.7917
   86SAPS  C310 8251   5.674   4.370   9.174  0.1157  0.9866 -0.4505
   86SAPS  H10X 8252   5.714   4.472   9.195 -0.4452  0.9978  0.6578
   86SAPS  H10Y 8253   5.564   4.370   9.163  0.0102  0.1517  0.4474
   86SAPS  C311 8254   5.711   4.322   9.035 -0.8642  0.2747 -0.1901
   86SAPS  H11X 8255   5.680   4.215   9.040 -1.9614  0.5797 -0.0617
   86SAPS  H11Y 8256   5.819   4.338   9.020 -1.2554  0.9128 -2.8910
   86SAPS  C312 8257   5.625   4.386   8.928 -0.3573  0.6159  0.5644
   86SAPS  H12X 8258   5.650   4.494   8.938  2.5817  0.3914 -2.4635
   86SAPS  H12Y 8259   5.520   4.364   8.955  0.2104 -1.2965  1.3700
   86SAPS  C313 8260   5.666   4.339   8.790 -0.2225  0.5609 -0.1615
   86SAPS  H13X 8261   5.777   4.335   8.787 -0.2174  1.0871 -1.9542
   86SAPS  H13Y 8262   5.626   4.420   8.724 -2.4119 -0.3482 -0.0411
   86SAPS  C314 8263   5.609   4.204   8.751  1.0706 -0.1393  0.3886
   86SAPS  H14X 8264   5.503   4.192   8.782  0.6483  1.1961 -0.4517
   86SAPS  H14Y 8265   5.662   4.123   8.806 -0.1450  0.0062  1.8703
   86SAPS  C315 8266   5.613   4.181   8.597  1.0170  0.0165 -0.7597
   86SAPS  H15X 8267   5.577   4.279   8.560 -0.2847 -0.1439 -0.0018
   86SAPS  H15Y 8268   5.537   4.105   8.565 -0.0185  0.5371  0.3957
   86SAPS  C316 8269   5.752   4.151   8.543 -0.4035 -0.8884  0.3209
   86SAPS  H16X 8270   5.815   4.146   8.635 -0.2992 -2.5323  0.1898
   86SAPS  H16Y 8271   5.790   4.245   8.498  1.2615 -0.9134  1.5644
   86SAPS  C317 8272   5.763   4.046   8.444 -0.1185 -0.0053  0.3895
   86SAPS  H17X 8273   5.731   3.951   8.493 -0.1164 -1.0158 -1.4762
   86SAPS  H17Y 8274   5.860   4.024   8.395 -0.7171 -0.3452 -0.7068
   86SAPS  C318 8275   5.680   4.075   8.319 -0.2536 -0.4822  0.3528
   86SAPS  H18X 8276   5.733   4.144   8.250 -1.8570  0.4062 -0.0522
   86SAPS  H18Y 8277   5.586   4.131   8.339  0.1629  0.5391 -0.4547
   86SAPS  H18Z 8278   5.672   3.982   8.260  0.3884  0.1944 -0.8158
   87SAPS     N 8279   5.240   5.577  10.986  0.2118  0.3732 -0.4631
   87SAPS   HN1 8280   5.255   5.510  10.908 -0.1466  1.4321 -1.4847
   87SAPS   HN2 8281   5.332   5.562  11.031  1.6113  0.8605 -2.9633
   87SAPS   HN3 8282   5.160   5.552  11.047 -1.1583  1.1234 -1.8612
   87SAPS   C12 8283   5.226   5.701  10.921 -0.4881 -0.6473 -0.8848
   87SAPS  H12A 8284   5.189   5.685  10.821 -0.4102 -0.2290 -0.9840
   87SAPS   C13 8285   5.127   5.801  10.986 -0.2882 -0.0141 -0.6709
   87SAPS  O13A 8286   5.103   5.797  11.115 -0.5819  0.2091 -0.0155
   87SAPS  O13B 8287   5.089   5.899  10.919 -1.0386 -0.3089 -0.4254
   87SAPS   C11 8288   5.370   5.764  10.913  0.7579 -0.1951 -0.6688
   87SAPS  H11A 8289   5.403   5.778  11.019 -0.9935 -1.0469  0.0349
   87SAPS  H11B 8290   5.364   5.860  10.858 -0.3705 -1.1242 -2.2222
   87SAPS     P 8291   5.595   5.723  10.792 -0.3445  0.1267 -0.2966
   87SAPS   O13 8292   5.643   5.839  10.870 -0.0332 -0.1184 -0.4934
   87SAPS   O14 8293   5.686   5.602  10.800  0.3693  0.1526  0.7618
   87SAPS   O12 8294   5.452   5.675  10.835  0.0506 -0.1671 -0.3738
   87SAPS   O11 8295   5.573   5.769  10.642  0.4532  0.1309 -0.0249
   87SAPS    C1 8296   5.619   5.685  10.531 -0.0314  0.1150  0.5009
   87SAPS    HA 8297   5.727   5.660  10.541  0.1192  1.0077  1.1274
   87SAPS    HB 8298   5.568   5.586  10.531  0.0428  0.0286 -1.8673
   87SAPS    C2 8299   5.586   5.758  10.393 -0.7866  0.8034 -0.3961
   87SAPS    HS 8300   5.642   5.854  10.405 -1.6052  1.2452 -0.0692
   87SAPS   O21 8301   5.446   5.772  10.373 -0.2416 -0.2049 -0.2678
   87SAPS   C21 8302   5.418   5.886  10.296  0.5333  0.4495 -0.1076
   87SAPS   O22 8303   5.496   5.974  10.275 -0.3029  0.2410 -0.4547
   87SAPS   C22 8304   5.283   5.874  10.237  0.1839 -0.0007  0.2409
   87SAPS   H2R 8305   5.229   5.796  10.295  2.8529 -1.4822  0.9084
   87SAPS   H2S 8306   5.229   5.970  10.258 -0.8332 -0.5648  0.2775
   87SAPS    C3 8307   5.638   5.669  10.276  0.4196 -0.2557 -0.0410
   87SAPS    HX 8308   5.586   5.570  10.272  0.5229 -0.2728 -2.2615
   87SAPS    HY 8309   5.742   5.639  10.301  0.4650  0.1569  0.2669
   87SAPS   O31 8310   5.615   5.738  10.151  0.0871 -0.2592  0.3280
   87SAPS   C31 8311   5.712   5.828  10.113 -0.2382 -0.4452  0.4594
   87SAPS   O32 8312   5.805   5.864  10.184 -0.0382  0.4698 -0.2197
   87SAPS   C32 8313   5.690   5.871   9.964  0.2243  0.1877 -0.4607
   87SAPS   H2X 8314   5.771   5.944   9.941  0.4554 -0.5369 -2.0648
   87SAPS   H2Y 8315   5.593   5.922   9.947  0.4412 -0.0095 -2.6330
   87SAPS   C23 8316   5.284   5.820  10.090  0.5256 -0.1239 -0.4728
   87SAPS   H3R 8317   5.189   5.767  10.066  0.7018 -0.7516  0.1846
   87SAPS   H3S 8318   5.362   5.743  10.074  0.6759 -0.3290  1.1120
   87SAPS   C24 8319   5.298   5.937   9.994 -0.2142 -0.3765  0.4342
   87SAPS   H4R 8320   5.398   5.979  10.018 -0.5518  1.3261 -0.9491
   87SAPS   H4S 8321   5.223   6.018  10.011  1.1679  0.9445  0.4892
   87SAPS   C25 8322   5.317   5.904   9.849  0.2892 -0.4405 -0.3531
   87SAPS   H5R 8323   5.418   5.888   9.809  1.4705 -0.4603  2.3674
   87SAPS   C26 8324   5.214   5.912   9.768 -0.0349 -0.1926 -0.0537
   87SAPS   H6R 8325   5.232   5.918   9.660 -3.6571 -0.4017 -0.8065
   87SAPS   C27 8326   5.073   5.940   9.801  0.0590  0.3109 -0.2573
   87SAPS   H7R 8327   5.029   6.008   9.725 -0.0713 -0.2796 -0.7111
   87SAPS   H7S 8328   5.064   5.998   9.896  1.6074  1.3388 -0.7066
   87SAPS   C28 8329   4.998   5.809   9.826 -0.3024  0.5308 -1.5529
   87SAPS   H8R 8330   4.995   5.770   9.929 -0.3384  0.1121 -1.7109
   87SAPS   C29 8331   4.913   5.756   9.735 -0.4499 -0.4259 -0.4318
   87SAPS   H9R 8332   4.848   5.674   9.769 -0.8039 -0.1192 -0.3661
   87SAPS  C210 8333   4.886   5.798   9.587 -0.5943  0.2066 -0.0521
   87SAPS  H10R 8334   4.857   5.905   9.579  0.5436  0.6749  1.5169
   87SAPS  H10S 8335   4.802   5.738   9.546  0.3818 -1.0631 -0.2742
   87SAPS  C211 8336   5.011   5.782   9.499  0.1648 -0.5774 -0.5133
   87SAPS  H11R 8337   5.032   5.675   9.485 -2.5853 -1.4176  0.9403
   87SAPS  C212 8338   5.071   5.871   9.415  0.5746 -0.3886  0.4876
   87SAPS  H12R 8339   5.159   5.841   9.356  1.3868 -0.4955  1.7135
   87SAPS  C213 8340   5.043   6.016   9.392  0.5352 -0.4251  0.2519
   87SAPS  H13R 8341   5.040   6.074   9.486 -0.4292 -2.2327  1.3934
   87SAPS  H13S 8342   4.942   6.033   9.348  0.1020 -0.2762  1.2905
   87SAPS  C214 8343   5.147   6.074   9.308 -0.2794  0.1252  0.2315
   87SAPS  H14R 8344   5.236   6.114   9.359  0.1902  0.7880 -1.0590
   87SAPS  C215 8345   5.154   6.085   9.168 -0.5111 -0.2573 -0.0244
   87SAPS  H15R 8346   5.252   6.114   9.127 -0.0969  0.0680  1.1320
   87SAPS  C216 8347   5.059   6.048   9.060  0.0595  0.3405 -0.1539
   87SAPS  H16R 8348   5.036   6.142   9.005  0.5778  1.1760  1.0158
   87SAPS  H16S 8349   4.963   6.014   9.105  1.1780 -0.7475  1.5100
   87SAPS  C217 8350   5.104   5.942   8.960  0.8273 -0.6336  0.2944
   87SAPS  H17R 8351   5.037   5.944   8.871  0.4571 -1.4908  0.5370
   87SAPS  H17S 8352   5.097   5.837   8.997 -0.0898 -0.3732  0.8849
   87SAPS  C218 8353   5.251   5.956   8.911  0.4144 -0.4104 -0.1252
   87SAPS  H18R 8354   5.318   5.940   8.999  1.4956  0.1108 -0.8346
   87SAPS  H18S 8355   5.279   6.057   8.875  3.2545 -1.2060 -0.3687
   87SAPS  C219 8356   5.290   5.847   8.818  0.7685  0.6657  0.8997
   87SAPS  H19R 8357   5.249   5.868   8.717  0.1453 -2.0538  0.5086
   87SAPS  H19S 8358   5.238   5.753   8.846 -0.1920  1.2614  1.1547
   87SAPS  C220 8359   5.439   5.806   8.807  0.3378 -0.8976  0.3339
   87SAPS  H20R 8360   5.433   5.704   8.764 -2.8528  0.1019 -1.9477
   87SAPS  H20S 8361   5.491   5.816   8.904  3.2342  0.0473 -1.1952
   87SAPS  H20T 8362   5.485   5.877   8.735  2.5980  0.2496  2.7361
   87SAPS   C33 8363   5.691   5.746   9.868  0.0338 -0.8509 -0.0976
   87SAPS   H3X 8364   5.608   5.674   9.883  1.2125 -2.2300 -0.0474
   87SAPS   H3Y 8365   5.781   5.681   9.875 -0.1651 -0.9836  1.7561
   87SAPS   C34 8366   5.679   5.793   9.726  0.5897  0.3892 -0.6822
   87SAPS   H4X 8367   5.762   5.864   9.705  0.6216  0.3043 -0.8473
   87SAPS   H4Y 8368   5.586   5.852   9.709  0.8108  0.3238 -2.2779
   87SAPS   C35 8369   5.662   5.671   9.632  0.6984  0.2157  0.5575
   87SAPS   H5X 8370   5.580   5.603   9.664  0.6371 -0.6395 -1.3418
   87SAPS   H5Y 8371   5.755   5.612   9.619  0.6952  0.0213  1.3671
   87SAPS   C36 8372   5.637   5.727   9.491 -0.0087 -0.0754 -0.0472
   87SAPS   H6X 8373   5.732   5.780   9.471  0.0726 -0.7793 -1.7194
   87SAPS   H6Y 8374   5.546   5.790   9.483  0.4296  0.5242 -0.4771
   87SAPS   C37 8375   5.625   5.619   9.379  0.2656  0.2188  0.5074
   87SAPS   H7X 8376   5.530   5.562   9.392  0.5693 -0.8071 -1.3263
   87SAPS   H7Y 8377   5.715   5.555   9.388  0.4680 -0.0040 -2.1959
   87SAPS   C38 8378   5.619   5.676   9.238  0.7562 -0.1082 -0.6498
   87SAPS   H8X 8379   5.659   5.779   9.234  1.7040 -0.4317  0.1265
   87SAPS   H8Y 8380   5.514   5.698   9.209  0.9752 -1.4391 -2.6478
   87SAPS   C39 8381   5.686   5.595   9.131 -0.4117  0.0679 -0.9245
   87SAPS   H9X 8382   5.793   5.577   9.153 -0.6744  0.4908  0.8001
   87SAPS   H9Y 8383   5.679   5.650   9.034 -0.4785 -1.2636 -1.7040
   87SAPS  C310 8384   5.628   5.449   9.129  0.2831 -0.0168  0.0910
   87SAPS  H10X 8385   5.518   5.460   9.126  0.3483  0.6519 -0.1184
   87SAPS  H10Y 8386   5.664   5.384   9.212 -0.5029 -0.4408  0.0990
   87SAPS  C311 8387   5.676   5.369   9.005 -0.3658  1.0695  0.3853
   87SAPS  H11X 8388   5.612   5.279   9.007  0.9713 -0.0042 -1.7443
   87SAPS  H11Y 8389   5.782   5.341   9.024 -1.2730 -1.3253  2.3578
   87SAPS  C312 8390   5.665   5.441   8.873  0.0749 -0.0584  0.2355
   87SAPS  H12X 8391   5.740   5.523   8.868 -1.0719  0.9615 -1.6731
   87SAPS  H12Y 8392   5.560   5.479   8.871 -0.1129 -0.5743  0.2603
   87SAPS  C313 8393   5.680   5.350   8.749 -0.1454  0.4331 -0.3208
   87SAPS  H13X 8394   5.632   5.250   8.755  1.7425 -0.6600 -2.0564
   87SAPS  H13Y 8395   5.790   5.333   8.742 -0.3379 -1.5515  0.8172
   87SAPS  C314 8396   5.648   5.416   8.621 -0.0857 -0.1449  0.1998
   87SAPS  H14X 8397   5.699   5.357   8.541  1.0206 -0.6428  1.2485
   87SAPS  H14Y 8398   5.702   5.513   8.623  0.2878 -0.3042 -1.0343
   87SAPS  C315 8399   5.501   5.425   8.598 -0.2284 -0.3567 -0.2250
   87SAPS  H15X 8400   5.468   5.494   8.679 -1.6459  0.3758 -1.3661
   87SAPS  H15Y 8401   5.446   5.332   8.624 -0.1766 -0.4817 -0.5611
   87SAPS  C316 8402   5.456   5.486   8.464 -0.2159 -0.0545 -0.1734
   87SAPS  H16X 8403   5.367   5.433   8.424  0.8416 -0.3844 -2.2329
   87SAPS  H16Y 8404   5.534   5.453   8.391  1.6158  0.4518  1.4893
   87SAPS  C317 8405   5.442   5.640   8.464  0.9508 -1.0412 -0.2687
   87SAPS  H17X 8406   5.486   5.693   8.377 -2.8566 -0.9859 -2.3592
   87SAPS  H17Y 8407   5.492   5.681   8.555 -1.7277  1.8501  0.0708
   87SAPS  C318 8408   5.297   5.689   8.466 -0.0761  0.6605 -0.4563
   87SAPS  H18X 8409   5.238   5.638   8.545  0.5876 -0.7677 -0.8494
   87SAPS  H18Y 8410   5.243   5.685   8.368  1.7545 -0.5334 -1.4835
   87SAPS  H18Z 8411   5.302   5.796   8.495  0.2331  0.7410 -0.7914
   88SAPS     N 8412   6.310   1.470  10.825  0.3954 -0.5907 -0.8070
   88SAPS   HN1 8413   6.322   1.370  10.852 -2.0228 -0.9882 -1.0082
   88SAPS   HN2 8414   6.278   1.471  10.726 -2.3791  0.1009  0.0199
   88SAPS   HN3 8415   6.398   1.517  10.853 -0.2323 -0.8208  1.7238
   88SAPS   C12 8416   6.198   1.531  10.899  0.0347  0.0295  0.3556
   88SAPS  H12A 8417   6.113   1.464  10.904  1.1168 -1.3111  2.4257
   88SAPS   C13 8418   6.230   1.550  11.050  0.0943 -0.2530 -0.7269
   88SAPS  O13A 8419   6.333   1.507  11.101  0.5430  0.3544  0.4982
   88SAPS  O13B 8420   6.129   1.578  11.120 -1.0138 -0.2107  0.5849
   88SAPS   C11 8421   6.150   1.659  10.823 -0.1861  0.2872  0.3827
   88SAPS  H11A 8422   6.053   1.691  10.867  0.4442  1.9099  0.6965
   88SAPS  H11B 8423   6.116   1.641  10.719 -0.5987  0.5922  0.4609
   88SAPS     P 8424   6.222   1.904  10.790 -0.3064 -0.2310 -0.2386
   88SAPS   O13 8425   6.105   1.945  10.863  0.5369  0.3504 -0.1159
   88SAPS   O14 8426   6.348   1.981  10.825  0.2766 -0.5493  0.5639
   88SAPS   O12 8427   6.252   1.761  10.836 -0.3032  0.2712  0.3224
   88SAPS   O11 8428   6.206   1.876  10.638  0.4110  0.5592  0.0049
   88SAPS    C1 8429   6.268   1.959  10.537  0.1053 -0.3300  0.0001
   88SAPS    HA 8430   6.200   2.028  10.484  0.0086  1.0559  1.8408
   88SAPS    HB 8431   6.343   2.025  10.585  0.0563  0.5861 -1.1423
   88SAPS    C2 8432   6.337   1.873  10.429 -0.6751  0.2874  0.0300
   88SAPS    HS 8433   6.436   1.909  10.394  0.7981 -2.4449  1.0087
   88SAPS   O21 8434   6.251   1.855  10.314  0.0789 -0.3318 -0.3626
   88SAPS   C21 8435   6.239   1.966  10.243  0.2189 -0.2249 -1.1024
   88SAPS   O22 8436   6.304   2.066  10.261 -0.2146  0.1789 -0.0378
   88SAPS   C22 8437   6.138   1.946  10.141  0.6315  0.1511  0.3240
   88SAPS   H2R 8438   6.160   1.855  10.081  0.2179  0.4297 -0.2745
   88SAPS   H2S 8439   6.038   1.945  10.189  0.6266  2.6727  0.5023
   88SAPS    C3 8440   6.375   1.742  10.482  0.4603  0.6446  0.5301
   88SAPS    HX 8441   6.285   1.686  10.515  1.6153 -2.2165 -0.8632
   88SAPS    HY 8442   6.438   1.773  10.568  0.6357 -0.9684  1.0153
   88SAPS   O31 8443   6.456   1.663  10.388  0.2593 -0.1392 -0.5468
   88SAPS   C31 8444   6.526   1.566  10.428 -0.1000 -0.1050  0.4736
   88SAPS   O32 8445   6.544   1.532  10.542  0.1466  0.0206  0.0616
   88SAPS   C32 8446   6.598   1.513  10.302  0.7198  1.3183 -0.2391
   88SAPS   H2X 8447   6.610   1.598  10.232 -0.1040  0.9913 -0.7905
   88SAPS   H2Y 8448   6.535   1.436  10.252 -1.1642  0.8370  2.6116
   88SAPS   C23 8449   6.128   2.060  10.032 -0.6632  0.1420 -0.4532
   88SAPS   H3R 8450   6.219   2.081   9.973 -0.0711 -0.7359  0.1225
   88SAPS   H3S 8451   6.117   2.157  10.084  1.0050  1.1030 -1.8110
   88SAPS   C24 8452   6.008   2.048   9.937  0.1313 -0.4900  0.5290
   88SAPS   H4R 8453   5.932   2.013  10.009  0.4567  0.2606  1.2490
   88SAPS   H4S 8454   6.028   1.969   9.861  2.7551  1.3921 -0.9034
   88SAPS   C25 8455   5.965   2.185   9.888 -0.2397 -0.7400  0.4338
   88SAPS   H5R 8456   5.936   2.252   9.971 -0.4277 -1.4803  0.9782
   88SAPS   C26 8457   5.959   2.221   9.760 -0.4021  0.2968  0.5660
   88SAPS   H6R 8458   5.931   2.324   9.737  2.6747  1.1059 -0.0076
   88SAPS   C27 8459   6.005   2.127   9.647 -0.1764 -0.0217  0.3815
   88SAPS   H7R 8460   5.907   2.097   9.605  0.4488 -1.9698  0.2298
   88SAPS   H7S 8461   6.066   2.039   9.675  1.2220  0.7209 -0.2317
   88SAPS   C28 8462   6.093   2.198   9.543  0.8510  0.6887  0.3732
   88SAPS   H8R 8463   6.138   2.297   9.558  4.0448 -0.4111 -1.1266
   88SAPS   C29 8464   6.125   2.142   9.428  0.0695 -0.7413  0.3478
   88SAPS   H9R 8465   6.188   2.197   9.356 -1.5319 -1.2691 -1.5443
   88SAPS  C210 8466   6.092   2.004   9.374 -0.2503  0.2042 -0.3063
   88SAPS  H10R 8467   6.011   2.031   9.303 -1.7765 -0.3996  1.1681
   88SAPS  H10S 8468   6.059   1.941   9.459  3.4826  0.7160  1.7413
   88SAPS  C211 8469   6.214   1.935   9.320  0.6594 -0.2663 -0.0312
   88SAPS  H11R 8470   6.273   1.904   9.407 -2.3262 -2.6665  1.3360
   88SAPS  C212 8471   6.252   1.899   9.195 -0.1338  0.1626 -0.1115
   88SAPS  H12R 8472   6.352   1.856   9.178 -1.1937 -1.6757 -2.2403
   88SAPS  C213 8473   6.172   1.933   9.071 -0.2055 -0.2771 -0.1706
   88SAPS  H13R 8474   6.063   1.947   9.089 -0.4655  0.0241 -1.8246
   88SAPS  H13S 8475   6.162   1.853   8.995 -1.4905  0.2070 -0.5356
   88SAPS  C214 8476   6.224   2.061   9.016  0.2532 -0.3937  0.6280
   88SAPS  H14R 8477   6.285   2.121   9.086  0.1966  0.7866 -0.3129
   88SAPS  C215 8478   6.199   2.111   8.890 -0.2231 -0.3860 -0.9368
   88SAPS  H15R 8479   6.239   2.211   8.867  0.4208 -0.3859  0.0900
   88SAPS  C216 8480   6.118   2.040   8.788  0.8659  0.2592  0.4701
   88SAPS  H16R 8481   6.021   2.091   8.772  0.2086 -0.9099  0.6595
   88SAPS  H16S 8482   6.090   1.937   8.816  0.0190  0.4806  0.4555
   88SAPS  C217 8483   6.199   2.036   8.659  0.0516 -0.3519  0.6733
   88SAPS  H17R 8484   6.301   2.007   8.693  0.0483  0.0604  1.0511
   88SAPS  H17S 8485   6.204   2.130   8.601 -0.4476  0.3038  1.6737
   88SAPS  C218 8486   6.150   1.911   8.583  0.1604  0.2729 -0.1107
   88SAPS  H18R 8487   6.043   1.926   8.556  0.0890  1.8038  0.8847
   88SAPS  H18S 8488   6.162   1.828   8.657 -1.4523 -0.2174 -0.3596
   88SAPS  C219 8489   6.222   1.897   8.450 -0.5581 -0.0514 -0.9934
   88SAPS  H19R 8490   6.331   1.916   8.459 -0.1757 -2.6002  1.2363
   88SAPS  H19S 8491   6.190   1.967   8.371  0.5583 -1.1204 -2.4443
   88SAPS  C220 8492   6.186   1.762   8.382 -0.1475  0.2475  0.0539
   88SAPS  H20R 8493   6.273   1.731   8.319  0.7002 -1.1859  1.8433
   88SAPS  H20S 8494   6.111   1.781   8.302  1.2782 -0.4001 -1.5043
   88SAPS  H20T 8495   6.160   1.685   8.457  0.1488  1.2962  1.2653
   88SAPS   C33 8496   6.742   1.460  10.336  0.6456 -0.0991  0.6996
   88SAPS   H3X 8497   6.749   1.396  10.427  1.9908 -1.2852 -0.1971
   88SAPS   H3Y 8498   6.817   1.538  10.362  0.2427  0.7392 -0.5377
   88SAPS   C34 8499   6.812   1.393  10.217  0.3233 -0.6625 -0.1672
   88SAPS   H4X 8500   6.748   1.310  10.182  0.0707  0.1650 -1.7669
   88SAPS   H4Y 8501   6.900   1.344  10.264  0.0661  0.0551  1.0912
   88SAPS   C35 8502   6.849   1.483  10.094  0.7000  0.7641  0.5255
   88SAPS   H5X 8503   6.903   1.579  10.100  0.4269  1.1777 -2.1951
   88SAPS   H5Y 8504   6.752   1.506  10.043 -1.0055 -1.8647  2.3024
   88SAPS   C36 8505   6.919   1.404   9.981  0.1077  0.1185 -0.0345
   88SAPS   H6X 8506   6.882   1.300   9.969  1.8318 -0.3907 -1.3216
   88SAPS   H6Y 8507   7.027   1.395  10.008  0.0701  1.4663  0.6617
   88SAPS   C37 8508   6.901   1.479   9.849 -0.8063  0.1042  1.0026
   88SAPS   H7X 8509   6.947   1.580   9.858 -0.6733 -0.0260  1.9761
   88SAPS   H7Y 8510   6.795   1.495   9.821 -1.2275  0.8776  2.8602
   88SAPS   C38 8511   6.966   1.406   9.731  0.9735  0.3792 -0.3052
   88SAPS   H8X 8512   6.926   1.305   9.708  0.9711  0.1792  0.5623
   88SAPS   H8Y 8513   7.071   1.386   9.763 -0.2007 -1.3811  2.8567
   88SAPS   C39 8514   6.951   1.499   9.610 -0.1132 -0.8711  0.3249
   88SAPS   H9X 8515   6.987   1.601   9.636 -1.1003 -1.0415  2.6101
   88SAPS   H9Y 8516   6.844   1.522   9.592  0.5917  3.3911  0.4714
   88SAPS  C310 8517   7.006   1.435   9.484  0.1283 -0.2037  0.3068
   88SAPS  H10X 8518   6.969   1.330   9.484  1.1593 -0.5780  0.8799
   88SAPS  H10Y 8519   7.113   1.417   9.506  0.0473 -0.4515  0.5017
   88SAPS  C311 8520   6.960   1.510   9.348  0.6872  0.0505 -0.0976
   88SAPS  H11X 8521   6.995   1.615   9.346  3.0399 -0.6672 -0.7940
   88SAPS  H11Y 8522   6.850   1.511   9.336  0.4355  2.0664  1.6896
   88SAPS  C312 8523   7.023   1.444   9.226 -1.0080 -0.4993 -0.2911
   88SAPS  H12X 8524   7.034   1.335   9.246 -2.1314 -1.0856 -2.6125
   88SAPS  H12Y 8525   7.123   1.488   9.206 -0.9162 -0.3941  0.3588
   88SAPS  C313 8526   6.945   1.452   9.093 -0.5733 -0.1296  0.8611
   88SAPS  H13X 8527   6.947   1.558   9.060 -0.3448 -0.6296 -0.7937
   88SAPS  H13Y 8528   6.838   1.423   9.107 -0.8875  0.0683 -0.9133
   88SAPS  C314 8529   7.003   1.366   8.979  0.4958 -0.0498 -0.5021
   88SAPS  H14X 8530   7.011   1.264   9.022 -0.2938 -0.4163 -1.2010
   88SAPS  H14Y 8531   7.104   1.400   8.947  0.1376  0.8156 -0.7372
   88SAPS  C315 8532   6.919   1.374   8.852 -0.6299  0.1602  0.0117
   88SAPS  H15X 8533   6.812   1.361   8.877 -0.4875 -0.0419  0.5437
   88SAPS  H15Y 8534   6.946   1.289   8.786 -3.3538 -1.8996  1.3354
   88SAPS  C316 8535   6.939   1.511   8.777 -0.4056 -0.1735  0.2961
   88SAPS  H16X 8536   7.045   1.541   8.768 -0.7986  1.2199  0.0785
   88SAPS  H16Y 8537   6.895   1.594   8.837 -0.0958 -0.8737  1.5393
   88SAPS  C317 8538   6.889   1.512   8.634  0.1607 -1.1064 -0.0092
   88SAPS  H17X 8539   6.786   1.472   8.623 -0.5976  0.4835  0.8998
   88SAPS  H17Y 8540   6.954   1.448   8.571  0.3410 -1.5796  0.6516
   88SAPS  C318 8541   6.889   1.657   8.573 -0.4499 -0.6244 -0.5546
   88SAPS  H18X 8542   6.874   1.656   8.463 -0.2032  4.1253 -0.8432
   88SAPS  H18Y 8543   6.993   1.689   8.596 -0.6649 -1.0590  1.1748
   88SAPS  H18Z 8544   6.820   1.719   8.634  0.5336 -0.1982  0.1470
   89SAPS     N 8545   1.047   5.048  10.922 -0.4490  1.1633 -0.2121
   89SAPS   HN1 8546   1.068   5.022  10.823 -0.6331 -1.3338  0.3344
   89SAPS   HN2 8547   1.133   5.086  10.965 -0.4884  0.9606  0.0506
   89SAPS   HN3 8548   1.006   4.965  10.970 -1.0674  0.6310 -1.6036
   89SAPS   C12 8549   0.941   5.154  10.920 -0.3021  0.1434 -0.2096
   89SAPS  H12A 8550   0.853   5.105  10.883 -0.7176 -0.7713  1.8156
   89SAPS   C13 8551   0.908   5.217  11.057  0.9488  0.0435  0.3572
   89SAPS  O13A 8552   0.964   5.173  11.160  0.0636  0.3703 -0.2194
   89SAPS  O13B 8553   0.827   5.310  11.054 -0.1988  0.1129 -0.8460
   89SAPS   C11 8554   0.997   5.274  10.834 -0.2805  0.1064  0.1829
   89SAPS  H11A 8555   0.916   5.350  10.838  0.7205  1.1698  1.6680
   89SAPS  H11B 8556   1.013   5.239  10.730  1.2355 -1.1416  0.7848
   89SAPS     P 8557   1.170   5.463  10.821  0.2788 -0.2004  0.0803
   89SAPS   O13 8558   1.072   5.559  10.889  0.0613 -0.0984  0.1569
   89SAPS   O14 8559   1.316   5.488  10.841  0.0941  0.0913  0.3468
   89SAPS   O12 8560   1.125   5.320  10.879 -0.3905  0.2440  0.2755
   89SAPS   O11 8561   1.139   5.444  10.669  0.3854  0.4877 -0.6985
   89SAPS    C1 8562   1.216   5.359  10.587 -0.2752  0.2844 -0.0743
   89SAPS    HA 8563   1.262   5.273  10.639 -2.3372 -1.5691 -1.1756
   89SAPS    HB 8564   1.147   5.310  10.516 -0.0480 -0.3599  0.1449
   89SAPS    C2 8565   1.310   5.444  10.496 -0.5080  0.1945 -0.1606
   89SAPS    HS 8566   1.352   5.525  10.560  1.4760 -1.0030  0.1452
   89SAPS   O21 8567   1.237   5.485  10.379  0.0347  0.3279  0.6243
   89SAPS   C21 8568   1.284   5.585  10.306 -0.9039 -0.1698 -0.4133
   89SAPS   O22 8569   1.367   5.664  10.351 -0.1355 -0.3167  0.5809
   89SAPS   C22 8570   1.219   5.590  10.163 -0.6954 -0.0975 -0.1272
   89SAPS   H2R 8571   1.195   5.490  10.122 -2.7089 -0.6774  2.2246
   89SAPS   H2S 8572   1.129   5.651  10.186  0.3444  1.8939 -1.0299
   89SAPS    C3 8573   1.434   5.363  10.451 -0.1430 -0.6083 -0.1668
   89SAPS    HX 8574   1.389   5.271  10.406 -1.8623  0.3436 -0.4977
   89SAPS    HY 8575   1.481   5.327  10.545 -1.5529  2.2284  1.7677
   89SAPS   O31 8576   1.527   5.432  10.362  0.3194  0.4206  0.3255
   89SAPS   C31 8577   1.609   5.519  10.413  0.3577  0.0113  0.2278
   89SAPS   O32 8578   1.628   5.530  10.535  0.2474  0.0963 -0.0697
   89SAPS   C32 8579   1.701   5.600  10.308 -0.8063 -0.4462  0.4724
   89SAPS   H2X 8580   1.705   5.704  10.346  0.3455  1.0179 -3.2010
   89SAPS   H2Y 8581   1.639   5.596  10.216 -0.2542  0.5667  0.0414
   89SAPS   C23 8582   1.310   5.675  10.063 -0.1852 -0.1554  0.1668
   89SAPS   H3R 8583   1.410   5.626  10.057  0.1449  0.5409 -0.0260
   89SAPS   H3S 8584   1.318   5.776  10.108 -1.1712 -0.4452  1.0558
   89SAPS   C24 8585   1.249   5.690   9.926 -0.0141 -0.7040  0.3150
   89SAPS   H4R 8586   1.312   5.770   9.880 -0.2339 -1.6925 -1.8649
   89SAPS   H4S 8587   1.145   5.724   9.944 -0.0085 -1.1626  1.2497
   89SAPS   C25 8588   1.270   5.576   9.828  0.4761  0.5920 -0.0804
   89SAPS   H5R 8589   1.310   5.484   9.872  0.3109  0.6044  0.0980
   89SAPS   C26 8590   1.226   5.568   9.698 -1.1448 -0.7068  0.2925
   89SAPS   H6R 8591   1.252   5.479   9.639  0.9880  0.2846 -0.3574
   89SAPS   C27 8592   1.167   5.683   9.620  0.2857 -0.3276  0.0673
   89SAPS   H7R 8593   1.245   5.719   9.549  0.3390 -0.7562 -0.0939
   89SAPS   H7S 8594   1.151   5.778   9.676 -0.1875  0.1974 -0.9269
   89SAPS   C28 8595   1.044   5.647   9.537  1.1327  0.1979  0.7852
   89SAPS   H8R 8596   0.950   5.686   9.579  2.2387  0.8089  2.8773
   89SAPS   C29 8597   1.045   5.585   9.418  0.4616  0.2379  0.3668
   89SAPS   H9R 8598   0.949   5.572   9.366  1.3175  2.6879 -2.0614
   89SAPS  C210 8599   1.167   5.536   9.347  0.2272 -0.7480  0.0847
   89SAPS  H10R 8600   1.257   5.579   9.394 -0.2511  0.9815 -0.5128
   89SAPS  H10S 8601   1.166   5.587   9.248 -1.1190  0.8456  0.8719
   89SAPS  C211 8602   1.180   5.393   9.317 -0.0974 -0.3913  0.3345
   89SAPS  H11R 8603   1.237   5.337   9.393 -3.1213 -0.5443  2.6604
   89SAPS  C212 8604   1.130   5.319   9.211  0.0633 -0.0524  0.2871
   89SAPS  H12R 8605   1.147   5.212   9.196 -0.0346 -0.2790  1.6027
   89SAPS  C213 8606   1.048   5.378   9.096  0.0440 -0.0296 -0.5339
   89SAPS  H13R 8607   0.973   5.450   9.134 -0.0677 -0.5981  0.3624
   89SAPS  H13S 8608   0.982   5.294   9.064 -1.4170  0.8384  0.1245
   89SAPS  C214 8609   1.137   5.417   8.977 -0.4226 -0.0723  0.3630
   89SAPS  H14R 8610   1.225   5.353   8.958 -1.0854 -0.4029 -1.8980
   89SAPS  C215 8611   1.107   5.508   8.883 -0.3937 -0.3935 -0.4478
   89SAPS  H15R 8612   1.179   5.539   8.806 -0.4097  1.1140  0.1010
   89SAPS  C216 8613   0.980   5.598   8.891 -0.4787  0.8410 -0.6585
   89SAPS  H16R 8614   0.881   5.549   8.884 -0.0884  0.1479 -1.4726
   89SAPS  H16S 8615   0.965   5.635   8.787 -2.3646  1.2005 -0.2912
   89SAPS  C217 8616   0.985   5.709   8.999  0.0857  0.1185  0.4382
   89SAPS  H17R 8617   0.981   5.662   9.100  1.7945 -1.0239  0.0045
   89SAPS  H17S 8618   0.898   5.778   8.985  0.7767  0.7037 -1.2363
   89SAPS  C218 8619   1.113   5.799   8.990 -0.8835  0.4192 -0.4513
   89SAPS  H18R 8620   1.128   5.844   8.889  1.0112  3.0166  0.8871
   89SAPS  H18S 8621   1.192   5.726   9.017 -1.2537 -0.9059 -2.6730
   89SAPS  C219 8622   1.126   5.922   9.084  0.3798  0.0805 -0.5562
   89SAPS  H19R 8623   1.103   5.910   9.192 -0.4676  1.7625 -0.5234
   89SAPS  H19S 8624   1.037   5.982   9.055  0.1930 -1.0761 -2.5534
   89SAPS  C220 8625   1.261   5.999   9.054  0.1558 -0.1484 -0.1594
   89SAPS  H20R 8626   1.276   6.031   8.949 -1.3205  2.6630  0.3850
   89SAPS  H20S 8627   1.350   5.938   9.081  2.1633  1.7622 -2.0575
   89SAPS  H20T 8628   1.248   6.095   9.108 -0.1567  0.1494 -0.7492
   89SAPS   C33 8629   1.840   5.536  10.286  0.2179 -0.8437 -0.2566
   89SAPS   H3X 8630   1.821   5.430  10.258 -0.4071 -0.6391 -0.6349
   89SAPS   H3Y 8631   1.883   5.530  10.388  1.7934 -1.2228 -0.9169
   89SAPS   C34 8632   1.932   5.602  10.188 -0.4999  0.9374 -0.1820
   89SAPS   H4X 8633   2.033   5.558  10.197 -0.8395 -0.1472 -1.5082
   89SAPS   H4Y 8634   1.942   5.708  10.220 -0.4410  1.2295 -1.1406
   89SAPS   C35 8635   1.870   5.605  10.044  0.2110  0.0678 -0.3931
   89SAPS   H5X 8636   1.768   5.650  10.036 -0.6041 -1.5049  0.6893
   89SAPS   H5Y 8637   1.866   5.498  10.015  1.7594 -1.0133  2.8933
   89SAPS   C36 8638   1.969   5.671   9.946  0.1477  0.3289 -0.8743
   89SAPS   H6X 8639   2.070   5.623   9.952  0.2873  0.7505  0.4278
   89SAPS   H6Y 8640   1.987   5.779   9.962  2.3980  0.4320 -3.3328
   89SAPS   C37 8641   1.911   5.675   9.801 -0.3984  0.0471  0.1867
   89SAPS   H7X 8642   1.809   5.720   9.798  0.7753  2.8613 -0.5047
   89SAPS   H7Y 8643   1.906   5.568   9.770 -1.6343  0.2316 -0.3268
   89SAPS   C38 8644   2.004   5.749   9.710 -0.8395  0.3128 -0.1912
   89SAPS   H8X 8645   2.101   5.706   9.744 -0.9837 -1.0170 -1.3323
   89SAPS   H8Y 8646   1.989   5.855   9.739 -0.5379 -0.4254  3.0607
   89SAPS   C39 8647   1.991   5.711   9.565 -0.7388  0.1641  0.3700
   89SAPS   H9X 8648   1.885   5.727   9.534 -1.3319 -1.1152  1.6674
   89SAPS   H9Y 8649   2.021   5.605   9.553  1.4413  0.5122  2.2208
   89SAPS  C310 8650   2.091   5.785   9.471  0.2893 -0.2502 -0.7782
   89SAPS  H10X 8651   2.197   5.782   9.505 -0.5508 -2.1952  2.0143
   89SAPS  H10Y 8652   2.063   5.893   9.471  1.8435  0.1817 -1.6079
   89SAPS  C311 8653   2.098   5.736   9.329 -0.7018  0.2032  0.1342
   89SAPS  H11X 8654   2.102   5.626   9.339 -1.0225  0.2026  0.2599
   89SAPS  H11Y 8655   2.183   5.786   9.278  2.3416 -1.5233  3.1397
   89SAPS  C312 8656   1.965   5.760   9.242  0.1507 -0.2846  0.1496
   89SAPS  H12X 8657   1.940   5.869   9.244  0.6087 -0.1622 -0.3325
   89SAPS  H12Y 8658   1.883   5.718   9.304  0.0190  0.0613  0.2118
   89SAPS  C313 8659   1.971   5.712   9.096  0.4165  0.4244 -0.1577
   89SAPS  H13X 8660   1.864   5.722   9.068  0.7787  0.6436 -1.5039
   89SAPS  H13Y 8661   2.012   5.609   9.085 -0.9684 -0.1566 -0.1447
   89SAPS  C314 8662   2.054   5.803   9.010  0.0003 -0.5636  0.2826
   89SAPS  H14X 8663   2.154   5.801   9.057  0.4761  2.4534 -0.3892
   89SAPS  H14Y 8664   2.007   5.901   9.032 -3.1725 -2.0755  0.8906
   89SAPS  C315 8665   2.055   5.775   8.861  0.6060 -0.2661 -0.3658
   89SAPS  H15X 8666   1.948   5.769   8.832  0.8439  2.7131 -2.2971
   89SAPS  H15Y 8667   2.094   5.671   8.854  1.4610 -0.0073  0.4371
   89SAPS  C316 8668   2.140   5.874   8.787  0.7124  0.1532  0.4274
   89SAPS  H16X 8669   2.242   5.865   8.830  0.4609 -3.1654  0.5698
   89SAPS  H16Y 8670   2.102   5.977   8.806  2.3144  1.0063 -0.6647
   89SAPS  C317 8671   2.139   5.842   8.637  0.2283 -0.0999 -0.8495
   89SAPS  H17X 8672   2.174   5.737   8.629  1.3236  0.1723  0.1589
   89SAPS  H17Y 8673   2.204   5.911   8.580 -1.3281  1.5085 -0.7774
   89SAPS  C318 8674   1.996   5.855   8.577 -0.0971  0.0025 -0.4756
   89SAPS  H18X 8675   2.003   5.826   8.470 -1.1225 -3.3378  0.2319
   89SAPS  H18Y 8676   1.939   5.948   8.598  0.2490 -0.0662  0.8831
   89SAPS  H18Z 8677   1.930   5.775   8.617 -0.5135  1.4465  1.8943
   90SAPS     N 8678   2.192   5.328  10.979  0.1073 -0.8536 -0.4489
   90SAPS   HN1 8679   2.134   5.346  11.063 -1.4897 -0.1787 -1.6356
   90SAPS   HN2 8680   2.176   5.229  10.953 -1.6134 -0.8386  0.4241
   90SAPS   HN3 8681   2.291   5.350  11.003 -0.3908 -0.0413  0.9456
   90SAPS   C12 8682   2.148   5.412  10.870 -0.0510 -0.1920 -0.3186
   90SAPS  H12A 8683   2.067   5.372  10.812  0.8858  0.5389 -2.2253
   90SAPS   C13 8684   2.119   5.556  10.914  0.2779  0.3563 -0.0446
   90SAPS  O13A 8685   2.121   5.579  11.040 -0.3066  0.7402  0.6737
   90SAPS  O13B 8686   2.066   5.633  10.837  0.4322 -0.5374  0.1045
   90SAPS   C11 8687   2.253   5.414  10.759 -0.4817  0.0858  0.0211
   90SAPS  H11A 8688   2.346   5.466  10.792  0.8228 -1.6268 -0.8278
   90SAPS  H11B 8689   2.208   5.481  10.682 -0.8965  1.3058  1.2740
   90SAPS     P 8690   2.366   5.221  10.598  0.3144  0.2978 -0.1275
   90SAPS   O13 8691   2.442   5.328  10.531 -0.5063  0.7104 -0.1861
   90SAPS   O14 8692   2.450   5.107  10.641  0.1240 -0.3557  0.0078
   90SAPS   O12 8693   2.292   5.280  10.720  0.3596 -0.1192 -0.7614
   90SAPS   O11 8694   2.260   5.174  10.489 -0.4197 -0.3335  0.0960
   90SAPS    C1 8695   2.138   5.241  10.466 -0.3106  0.3545 -0.7125
   90SAPS    HA 8696   2.066   5.237  10.550 -0.9015  1.8040 -1.1124
   90SAPS    HB 8697   2.148   5.351  10.454 -0.9777  0.5065  0.0676
   90SAPS    C2 8698   2.070   5.198  10.337 -0.1976 -0.1860  0.3669
   90SAPS    HS 8699   1.998   5.274  10.300 -3.6416 -3.0752  0.6257
   90SAPS   O21 8700   2.002   5.076  10.358  0.0983  0.6140 -0.0680
   90SAPS   C21 8701   1.888   5.077  10.422  0.0834  0.8461 -0.0076
   90SAPS   O22 8702   1.835   5.179  10.457  0.1109  0.0775  0.3033
   90SAPS   C22 8703   1.828   4.935  10.448 -0.9253 -0.6186  0.8535
   90SAPS   H2R 8704   1.879   4.861  10.383 -1.1215  0.2017 -0.2612
   90SAPS   H2S 8705   1.830   4.909  10.556 -0.0921 -1.5553  0.6280
   90SAPS    C3 8706   2.170   5.184  10.221 -0.2445  0.4988  0.1040
   90SAPS    HX 8707   2.211   5.081  10.219 -0.3737  0.4612 -1.4390
   90SAPS    HY 8708   2.257   5.252  10.237  0.7207  0.8372 -4.8935
   90SAPS   O31 8709   2.118   5.243  10.104  0.3893 -0.4207 -0.7907
   90SAPS   C31 8710   2.104   5.164  10.001 -0.1007 -0.4175 -0.0753
   90SAPS   O32 8711   2.134   5.046  10.003 -0.5264 -0.3910  0.4166
   90SAPS   C32 8712   2.052   5.248   9.876  0.0617  0.4428 -0.6997
   90SAPS   H2X 8713   2.128   5.328   9.869  2.2073 -1.3382  0.7020
   90SAPS   H2Y 8714   1.950   5.284   9.901  0.1266 -0.9078  1.8850
   90SAPS   C23 8715   1.679   4.950  10.407  0.3550  0.2469 -0.2168
   90SAPS   H3R 8716   1.634   5.034  10.464  0.7648 -1.9025  3.6198
   90SAPS   H3S 8717   1.615   4.868  10.447  0.9855  0.2953  0.9406
   90SAPS   C24 8718   1.650   4.958  10.256  0.4050  0.1122  1.0597
   90SAPS   H4R 8719   1.715   5.031  10.203 -0.7763  0.0368 -0.5731
   90SAPS   H4S 8720   1.550   5.004  10.261 -1.0641 -2.8203  0.6917
   90SAPS   C25 8721   1.638   4.827  10.182  0.2584  0.6173  0.1490
   90SAPS   H5R 8722   1.556   4.762  10.216 -0.0348  0.9486  0.0855
   90SAPS   C26 8723   1.708   4.784  10.074 -0.2494 -0.3007  0.8133
   90SAPS   H6R 8724   1.679   4.685  10.036 -0.0331 -1.1381  2.6996
   90SAPS   C27 8725   1.816   4.857   9.998 -0.3222 -0.1448 -0.3803
   90SAPS   H7R 8726   1.889   4.784   9.955 -1.0572 -1.7930  1.0582
   90SAPS   H7S 8727   1.881   4.908  10.073  0.2595 -3.4279  1.5533
   90SAPS   C28 8728   1.759   4.945   9.888  0.1245  1.0677 -0.9952
   90SAPS   H8R 8729   1.701   5.028   9.930  1.0109  1.3067 -0.1978
   90SAPS   C29 8730   1.765   4.929   9.759  0.1380 -0.1707 -0.1488
   90SAPS   H9R 8731   1.718   5.011   9.702  1.1088  1.1390  0.8992
   90SAPS  C210 8732   1.839   4.827   9.684  0.7993 -0.6119 -0.1590
   90SAPS  H10R 8733   1.817   4.728   9.731  0.2248 -0.0016  0.9123
   90SAPS  H10S 8734   1.947   4.831   9.708  0.6297  1.3936  0.4826
   90SAPS  C211 8735   1.815   4.833   9.537  0.1700  0.4400  0.1007
   90SAPS  H11R 8736   1.711   4.851   9.506 -0.5237 -2.6697  0.2531
   90SAPS  C212 8737   1.906   4.788   9.446  0.8027 -0.0476  0.8902
   90SAPS  H12R 8738   1.879   4.782   9.339 -0.0704  0.5188  1.0603
   90SAPS  C213 8739   2.048   4.733   9.458  0.4131  0.3363  0.6044
   90SAPS  H13R 8740   2.060   4.667   9.547  2.5307  0.2826  0.3250
   90SAPS  H13S 8741   2.117   4.817   9.483  0.6898  0.2598  0.1087
   90SAPS  C214 8742   2.095   4.649   9.336 -0.1600 -0.1278  0.6512
   90SAPS  H14R 8743   2.088   4.540   9.346  1.8380 -0.3983 -0.4614
   90SAPS  C215 8744   2.155   4.714   9.230  0.5494 -0.3166  0.9213
   90SAPS  H15R 8745   2.193   4.651   9.148 -1.4723 -1.5117  0.8315
   90SAPS  C216 8746   2.186   4.859   9.203  0.2572 -0.3487  0.3900
   90SAPS  H16R 8747   2.295   4.869   9.188  0.1712 -1.8578 -1.7013
   90SAPS  H16S 8748   2.160   4.912   9.297  1.0157 -1.2360  1.1170
   90SAPS  C217 8749   2.098   4.926   9.087 -1.3753  0.1531 -0.0549
   90SAPS  H17R 8750   2.109   5.037   9.087  0.9459 -0.0188  0.9566
   90SAPS  H17S 8751   1.992   4.904   9.110 -1.1935  0.5560  1.2194
   90SAPS  C218 8752   2.144   4.881   8.946 -0.1421 -0.7201 -0.0471
   90SAPS  H18R 8753   2.125   4.772   8.955  0.1547 -0.9767 -2.2130
   90SAPS  H18S 8754   2.252   4.905   8.938 -0.0874  0.1597  2.4121
   90SAPS  C219 8755   2.048   4.943   8.841  0.3538  0.5534  0.4907
   90SAPS  H19R 8756   2.045   5.054   8.827 -1.5468  0.3657 -1.0694
   90SAPS  H19S 8757   1.948   4.900   8.865  1.5739 -1.9315  1.4812
   90SAPS  C220 8758   2.075   4.891   8.700 -0.3289  0.1089  0.6419
   90SAPS  H20R 8759   2.063   4.781   8.688  0.0664  0.1753 -0.4570
   90SAPS  H20S 8760   2.180   4.919   8.675 -0.5788  2.1720  1.6910
   90SAPS  H20T 8761   2.007   4.933   8.624  0.6523 -3.1082 -2.2621
   90SAPS   C33 8762   2.057   5.164   9.747  0.0617  0.5123 -0.1330
   90SAPS   H3X 8763   2.032   5.056   9.759  1.8727  0.0026 -0.7149
   90SAPS   H3Y 8764   2.164   5.170   9.720  1.0915 -3.7018  2.0922
   90SAPS   C34 8765   1.969   5.222   9.628  0.1333 -0.1534  0.2776
   90SAPS   H4X 8766   1.981   5.332   9.627  3.5544 -0.4127 -1.0698
   90SAPS   H4Y 8767   1.863   5.193   9.645 -0.7329  1.9374 -1.1024
   90SAPS   C35 8768   2.007   5.171   9.490  0.4016 -0.1271  0.2239
   90SAPS   H5X 8769   1.990   5.061   9.486 -0.7653  0.0845 -2.9713
   90SAPS   H5Y 8770   2.116   5.194   9.482  0.8368 -1.7256  1.0442
   90SAPS   C36 8771   1.928   5.247   9.386  0.0681 -0.0828  0.1931
   90SAPS   H6X 8772   1.954   5.354   9.400 -1.2391  0.1215  1.2780
   90SAPS   H6Y 8773   1.823   5.220   9.409 -0.0446  0.8374  0.7945
   90SAPS   C37 8774   1.964   5.201   9.242 -0.3432 -0.4825  0.2083
   90SAPS   H7X 8775   1.940   5.093   9.228 -2.5583  0.1567 -1.5734
   90SAPS   H7Y 8776   2.073   5.217   9.230 -0.4481  0.8294  0.9308
   90SAPS   C38 8777   1.884   5.279   9.141 -1.3547  0.2156  0.1168
   90SAPS   H8X 8778   1.920   5.384   9.137 -1.5441  0.2488 -1.0101
   90SAPS   H8Y 8779   1.775   5.267   9.159 -1.7853 -0.8310 -2.6467
   90SAPS   C39 8780   1.910   5.229   9.002 -0.6140  0.5287  0.0208
   90SAPS   H9X 8781   1.880   5.124   8.984  1.9364 -0.3105  0.2288
   90SAPS   H9Y 8782   2.020   5.237   8.986 -0.1637  1.8677  3.0404
   90SAPS  C310 8783   1.840   5.324   8.904 -0.7158 -0.7287  0.5274
   90SAPS  H10X 8784   1.874   5.429   8.918 -0.9870 -0.6137  0.3284
   90SAPS  H10Y 8785   1.729   5.322   8.912 -0.7407  0.5457  0.6900
   90SAPS  C311 8786   1.884   5.302   8.759  0.6727 -0.9966  0.3545
   90SAPS  H11X 8787   1.830   5.213   8.721 -0.7154  0.6087 -1.6627
   90SAPS  H11Y 8788   1.992   5.277   8.765  1.4810  1.8095 -0.9408
   90SAPS  C312 8789   1.860   5.419   8.666  0.1892  0.0485 -0.1168
   90SAPS  H12X 8790   1.881   5.379   8.564  1.8419 -1.4593  0.7688
   90SAPS  H12Y 8791   1.929   5.505   8.683  0.9855 -0.8894  1.5798
   90SAPS  C313 8792   1.710   5.464   8.666 -0.2121 -0.0099  0.1740
   90SAPS  H13X 8793   1.672   5.496   8.766 -0.1900  2.7593 -0.6072
   90SAPS  H13Y 8794   1.640   5.389   8.625 -0.1305  0.3792 -0.7071
   90SAPS  C314 8795   1.693   5.597   8.593 -0.2772  0.1341 -0.3793
   90SAPS  H14X 8796   1.728   5.576   8.490  0.3261 -0.1460 -0.1212
   90SAPS  H14Y 8797   1.763   5.674   8.633  2.0081 -2.3697  0.7134
   90SAPS  C315 8798   1.550   5.653   8.578  0.3055 -0.0822  0.0259
   90SAPS  H15X 8799   1.549   5.758   8.540 -0.3897 -0.6031 -1.4776
   90SAPS  H15Y 8800   1.493   5.668   8.672 -1.7293 -0.6467 -1.0439
   90SAPS  C316 8801   1.456   5.584   8.484 -0.1466  0.6541 -0.2211
   90SAPS  H16X 8802   1.460   5.474   8.498 -0.8604  0.5016 -1.0764
   90SAPS  H16Y 8803   1.493   5.600   8.380 -0.4277  1.0104 -0.2649
   90SAPS  C317 8804   1.314   5.639   8.487  0.0745  0.2392  0.3782
   90SAPS  H17X 8805   1.316   5.744   8.453 -3.0770  0.6465  1.0952
   90SAPS  H17Y 8806   1.276   5.645   8.591  1.9942  2.8614  1.0283
   90SAPS  C318 8807   1.225   5.550   8.395  0.1083 -0.3460  0.3658
   90SAPS  H18X 8808   1.127   5.602   8.383  0.2807  0.4208  2.0027
   90SAPS  H18Y 8809   1.229   5.443   8.425  1.3579 -0.0668  1.2562
   90SAPS  H18Z 8810   1.281   5.551   8.299  0.4035  0.9851  0.5358
   91SAPS     N 8811   0.087   1.614   5.966 -0.2602 -0.0400  0.7745
   91SAPS   HN1 8812   0.127   1.628   6.061  1.9131 -4.8918  0.8618
   91SAPS   HN2 8813  -0.012   1.647   5.969 -0.4820 -0.7100  0.8708
   91SAPS   HN3 8814   0.088   1.511   5.953  0.1016  0.3249 -3.4295
   91SAPS   C12 8815   0.143   1.701   5.858 -0.3964  0.3200  0.2296
   91SAPS  H12A 8816   0.228   1.660   5.807  0.1816  0.9259  0.6779
   91SAPS   C13 8817   0.043   1.732   5.741  0.0773  0.5847  0.4488
   91SAPS  O13A 8818  -0.076   1.691   5.741 -0.0900  0.0463 -0.4892
   91SAPS  O13B 8819   0.090   1.798   5.641 -0.4872  0.0185 -0.0460
   91SAPS   C11 8820   0.183   1.834   5.928  0.7741 -0.4380 -0.3784
   91SAPS  H11A 8821   0.219   1.909   5.854 -2.0749  2.1206  0.5881
   91SAPS  H11B 8822   0.266   1.797   5.991 -1.1283 -1.0439  1.9473
   91SAPS     P 8823   0.095   2.039   6.073 -0.4722  0.4544  0.0436
   91SAPS   O13 8824   0.200   2.111   6.001 -0.0256 -0.5021 -0.3825
   91SAPS   O14 8825  -0.044   2.096   6.080 -0.4932 -0.2142 -0.0859
   91SAPS   O12 8826   0.081   1.883   6.020  0.1402  0.1858  0.0874
   91SAPS   O11 8827   0.136   2.019   6.219  0.3092  0.6176  0.9128
   91SAPS    C1 8828   0.055   1.956   6.317  0.1064 -0.1222  0.4761
   91SAPS    HA 8829  -0.052   1.985   6.322 -0.2419 -1.5260  2.9888
   91SAPS    HB 8830   0.053   1.847   6.294  0.3112 -0.0793  0.2463
   91SAPS    C2 8831   0.120   1.969   6.464  0.6949  0.2282 -0.2418
   91SAPS    HS 8832   0.037   1.955   6.537  0.2557 -0.8931 -0.9331
   91SAPS   O21 8833   0.182   2.093   6.487 -0.0000  0.3229  0.2509
   91SAPS   C21 8834   0.107   2.202   6.509  0.1447 -0.1845  0.1490
   91SAPS   O22 8835  -0.017   2.210   6.502  1.0646  0.6840 -0.2578
   91SAPS   C22 8836   0.200   2.308   6.552 -0.2967  0.1549  0.5514
   91SAPS   H2R 8837   0.292   2.324   6.493  0.0455  0.5074  1.1663
   91SAPS   H2S 8838   0.140   2.399   6.529  0.6595  0.4809 -0.7165
   91SAPS    C3 8839   0.214   1.855   6.495  0.0412  0.3661  0.1350
   91SAPS    HX 8840   0.287   1.853   6.410 -1.1801  1.4114 -0.9948
   91SAPS    HY 8841   0.165   1.756   6.481 -0.6094  0.9290 -1.9952
   91SAPS   O31 8842   0.286   1.861   6.625 -0.1368  0.5683 -0.6537
   91SAPS   C31 8843   0.396   1.933   6.631 -0.5650  0.2069  0.1846
   91SAPS   O32 8844   0.459   1.986   6.538 -0.6991 -0.3564 -0.1935
   91SAPS   C32 8845   0.442   1.938   6.783  0.4927  0.0361 -0.0559
   91SAPS   H2X 8846   0.488   1.838   6.802  0.2831 -0.2317 -0.8748
   91SAPS   H2Y 8847   0.353   1.946   6.849 -0.3731  1.5702 -1.3466
   91SAPS   C23 8848   0.220   2.285   6.705  0.3698 -0.5280  0.2894
   91SAPS   H3R 8849   0.308   2.218   6.721  0.0836 -0.5075  2.1828
   91SAPS   H3S 8850   0.141   2.229   6.761  0.2006  0.1134  0.7098
   91SAPS   C24 8851   0.236   2.420   6.790  0.3947  0.2079  0.2273
   91SAPS   H4R 8852   0.308   2.489   6.741  2.0310 -0.9956  0.8529
   91SAPS   H4S 8853   0.286   2.378   6.880 -1.9632 -1.7012  0.7395
   91SAPS   C25 8854   0.110   2.499   6.802  0.1430 -0.1936 -0.4242
   91SAPS   H5R 8855   0.043   2.505   6.715  1.4623 -0.5323 -1.4994
   91SAPS   C26 8856   0.065   2.560   6.916 -0.7349  0.6654  0.6921
   91SAPS   H6R 8857  -0.014   2.636   6.913 -0.6914  1.1104  4.9576
   91SAPS   C27 8858   0.148   2.558   7.049 -0.2674  0.5023  0.5015
   91SAPS   H7R 8859   0.227   2.631   7.024 -0.7544  0.0490 -2.6789
   91SAPS   H7S 8860   0.214   2.469   7.057 -1.0626 -0.1829 -0.3481
   91SAPS   C28 8861   0.078   2.564   7.179  0.1611 -1.5034  0.3166
   91SAPS   H8R 8862  -0.011   2.501   7.167  1.0946 -2.5968 -1.1286
   91SAPS   C29 8863   0.087   2.666   7.264  0.6201 -0.4709  0.5759
   91SAPS   H9R 8864   0.030   2.662   7.358 -0.6912  0.5060 -0.1523
   91SAPS  C210 8865   0.178   2.786   7.250  0.7500  0.2011  0.6777
   91SAPS  H10R 8866   0.126   2.867   7.195 -1.4599 -0.9780  0.9289
   91SAPS  H10S 8867   0.270   2.772   7.189 -0.0830  2.2642 -1.1912
   91SAPS  C211 8868   0.241   2.840   7.372  0.2946  0.0233 -0.9021
   91SAPS  H11R 8869   0.339   2.794   7.393 -0.7653 -1.6811  0.6240
   91SAPS  C212 8870   0.182   2.925   7.464  0.2189  0.2353  0.2524
   91SAPS  H12R 8871   0.240   2.954   7.552 -1.1743 -1.0268  1.6483
   91SAPS  C213 8872   0.041   2.967   7.448  0.8601 -0.4435  0.1880
   91SAPS  H13R 8873  -0.022   2.911   7.520  0.4910 -1.0886 -0.6295
   91SAPS  H13S 8874  -0.013   2.938   7.356 -2.3457 -0.1110  1.7942
   91SAPS  C214 8875   0.016   3.115   7.470 -1.3714 -0.0909 -0.3831
   91SAPS  H14R 8876  -0.008   3.149   7.572 -1.8500  2.6507 -1.3128
   91SAPS  C215 8877   0.026   3.216   7.379  0.7382 -0.6176 -1.1365
   91SAPS  H15R 8878   0.011   3.319   7.415  2.2987 -0.6302 -0.3502
   91SAPS  C216 8879   0.053   3.192   7.236 -0.2620  0.1304 -0.2636
   91SAPS  H16R 8880   0.121   3.105   7.222 -0.6392 -0.0037 -1.3927
   91SAPS  H16S 8881   0.103   3.283   7.196 -0.1534  0.0746 -0.2574
   91SAPS  C217 8882  -0.071   3.168   7.161 -0.0551 -0.2263  0.2895
   91SAPS  H17R 8883  -0.117   3.078   7.208  1.6939 -0.9268  0.7366
   91SAPS  H17S 8884  -0.043   3.138   7.057  1.1829 -0.8086  0.7721
   91SAPS  C218 8885  -0.166   3.290   7.163 -0.1268 -0.4204 -0.0365
   91SAPS  H18R 8886  -0.118   3.369   7.101 -0.8995 -0.2542 -0.4438
   91SAPS  H18S 8887  -0.176   3.326   7.268  0.9154 -2.9488  0.9979
   91SAPS  C219 8888  -0.303   3.244   7.111 -0.0074  0.4921 -0.0041
   91SAPS  H19R 8889  -0.332   3.165   7.184 -0.4621  0.9507  0.3166
   91SAPS  H19S 8890  -0.293   3.188   7.015  0.4236  0.4887  0.0436
   91SAPS  C220 8891  -0.404   3.355   7.098  0.4977  0.4542  0.1795
   91SAPS  H20R 8892  -0.406   3.424   7.185 -5.1853 -0.2075  0.9256
   91SAPS  H20S 8893  -0.502   3.305   7.106  0.1701  1.1302  0.5279
   91SAPS  H20T 8894  -0.385   3.423   7.012  0.4002  2.5062  1.7082
   91SAPS   C33 8895   0.540   2.050   6.795 -0.3049  0.1421  0.3231
   91SAPS   H3X 8896   0.496   2.146   6.760 -1.0990 -1.4354 -3.4418
   91SAPS   H3Y 8897   0.620   2.035   6.719  0.5838  0.1120  1.2320
   91SAPS   C34 8898   0.607   2.052   6.937 -0.2129  0.0471  0.1162
   91SAPS   H4X 8899   0.615   1.949   6.977 -2.8955 -0.2598  0.0904
   91SAPS   H4Y 8900   0.539   2.100   7.011 -1.0006 -1.8059  0.6535
   91SAPS   C35 8901   0.739   2.123   6.930  0.4705 -0.0822 -0.0839
   91SAPS   H5X 8902   0.737   2.226   6.888 -0.9363  0.2137  0.6221
   91SAPS   H5Y 8903   0.816   2.064   6.876  0.0516 -0.0745 -0.6970
   91SAPS   C36 8904   0.780   2.156   7.075 -0.3683 -0.0634  0.2772
   91SAPS   H6X 8905   0.687   2.188   7.125 -0.9594 -0.1798 -0.7201
   91SAPS   H6Y 8906   0.844   2.247   7.071 -2.4255  1.5258  1.6387
   91SAPS   C37 8907   0.836   2.034   7.152  0.4458 -0.3452 -0.3335
   91SAPS   H7X 8908   0.943   2.029   7.123  0.7121  2.0280  0.0705
   91SAPS   H7Y 8909   0.802   1.936   7.112  1.8033 -0.3758 -1.4598
   91SAPS   C38 8910   0.823   2.041   7.305 -0.1006  0.6565  0.2553
   91SAPS   H8X 8911   0.888   1.960   7.345  0.0101 -0.9846 -2.9308
   91SAPS   H8Y 8912   0.721   2.017   7.340  0.1634  0.7060  1.0762
   91SAPS   C39 8913   0.871   2.173   7.371  0.1080  0.6972 -0.6865
   91SAPS   H9X 8914   0.826   2.255   7.311 -2.2009 -1.1584 -1.6311
   91SAPS   H9Y 8915   0.982   2.176   7.365  0.4282 -3.1577  0.6754
   91SAPS  C310 8916   0.828   2.172   7.523  0.3072 -0.0932  0.7468
   91SAPS  H10X 8917   0.873   2.084   7.575  0.5960 -0.5798 -0.2974
   91SAPS  H10Y 8918   0.720   2.148   7.522  0.3985 -0.7847 -2.2429
   91SAPS  C311 8919   0.857   2.298   7.605 -0.1674 -0.6928 -0.0198
   91SAPS  H11X 8920   0.782   2.377   7.584 -1.3900 -2.2498 -1.9081
   91SAPS  H11Y 8921   0.963   2.329   7.592  0.0373 -1.5746 -0.5832
   91SAPS  C312 8922   0.827   2.272   7.751  0.0047 -0.6509 -0.5293
   91SAPS  H12X 8923   0.870   2.174   7.780  0.2886 -0.5592 -0.6363
   91SAPS  H12Y 8924   0.724   2.272   7.792  0.9345  0.6754  2.1043
   91SAPS  C313 8925   0.908   2.377   7.835  0.4819 -0.2400  0.2173
   91SAPS  H13X 8926   0.872   2.371   7.940  1.6341 -2.7162  0.5323
   91SAPS  H13Y 8927   0.895   2.481   7.798 -3.2705 -0.9424 -0.8527
   91SAPS  C314 8928   1.055   2.330   7.836 -0.3821  0.5891 -0.7740
   91SAPS  H14X 8929   1.107   2.326   7.738 -0.9270 -1.1237 -1.0190
   91SAPS  H14Y 8930   1.053   2.225   7.873  0.5345  0.6092 -0.6419
   91SAPS  C315 8931   1.148   2.407   7.928 -0.1437  1.0034 -0.1126
   91SAPS  H15X 8932   1.093   2.426   8.024 -1.0003 -3.4058  0.4755
   91SAPS  H15Y 8933   1.169   2.511   7.894  1.3054  0.7149 -0.1410
   91SAPS  C316 8934   1.279   2.323   7.960 -0.2057  0.0599 -0.1677
   91SAPS  H16X 8935   1.331   2.313   7.862  0.2645  2.0681 -0.1631
   91SAPS  H16Y 8936   1.249   2.223   7.999  3.4132 -0.6015  1.2748
   91SAPS  C317 8937   1.364   2.396   8.067  0.3340  0.6035 -0.4065
   91SAPS  H17X 8938   1.293   2.405   8.151  0.1464  0.1110 -0.5116
   91SAPS  H17Y 8939   1.395   2.497   8.031  1.9992  0.5372  0.7269
   91SAPS  C318 8940   1.491   2.320   8.122  0.7414 -0.5918  0.1248
   91SAPS  H18X 8941   1.555   2.386   8.184  0.1563 -0.9040  1.0908
   91SAPS  H18Y 8942   1.549   2.280   8.036  0.6776 -0.7498  0.1548
   91SAPS  H18Z 8943   1.469   2.225   8.177 -2.6993 -0.0171 -0.0366
   92SAPS     N 8944   6.632   1.931   5.918 -0.4518  0.1894 -0.0838
   92SAPS   HN1 8945   6.673   1.904   5.826  1.7214 -0.5948  1.0537
   92SAPS   HN2 8946   6.667   2.022   5.954 -3.7236  1.5216  0.0428
   92SAPS   HN3 8947   6.669   1.858   5.982 -2.9987 -2.9492 -1.9197
   92SAPS   C12 8948   6.485   1.945   5.904 -0.2174 -0.1265  0.1085
   92SAPS  H12A 8949   6.453   2.029   5.965  0.1481  2.4610 -2.9956
   92SAPS   C13 8950   6.430   1.970   5.763 -0.4975  0.3125  0.0088
   92SAPS  O13A 8951   6.506   1.966   5.659 -0.1485  0.0546 -0.4110
   92SAPS  O13B 8952   6.307   1.986   5.754  0.0321  0.4192  0.3412
   92SAPS   C11 8953   6.406   1.827   5.961 -0.3217 -0.6105  0.6320
   92SAPS  H11A 8954   6.405   1.736   5.898 -1.2594 -0.6870  0.7425
   92SAPS  H11B 8955   6.303   1.867   5.966 -0.5854 -1.2409  0.4389
   92SAPS     P 8956   6.541   1.677   6.139 -0.0381 -0.2005  0.0664
   92SAPS   O13 8957   6.476   1.554   6.086  0.3881 -0.3432 -0.1406
   92SAPS   O14 8958   6.677   1.722   6.093  0.2802 -0.0404  0.5727
   92SAPS   O12 8959   6.439   1.797   6.098 -0.2663 -0.2486 -0.0583
   92SAPS   O11 8960   6.523   1.663   6.292 -0.1388 -0.8010  0.2757
   92SAPS    C1 8961   6.547   1.788   6.368 -0.1057 -0.1046  0.4986
   92SAPS    HA 8962   6.652   1.819   6.350  0.6500 -2.7448 -0.0868
   92SAPS    HB 8963   6.480   1.868   6.331 -0.8431 -0.5788  0.7806
   92SAPS    C2 8964   6.541   1.760   6.521  0.9775  0.1329  0.0041
   92SAPS    HS 8965   6.444   1.710   6.543 -0.5136  2.2964 -1.2943
   92SAPS   O21 8966   6.563   1.883   6.595 -0.0819 -0.1766  0.4691
   92SAPS   C21 8967   6.458   1.964   6.615  0.1799 -0.3226  0.2373
   92SAPS   O22 8968   6.343   1.928   6.596 -0.1352 -0.6108  0.3223
   92SAPS   C22 8969   6.513   2.100   6.656  0.9468  0.0344 -0.2276
   92SAPS   H2R 8970   6.617   2.087   6.692  0.8987  0.5371  0.1093
   92SAPS   H2S 8971   6.530   2.161   6.565  1.8770  1.3118  0.7662
   92SAPS    C3 8972   6.656   1.664   6.558  0.0284  0.7807 -0.0826
   92SAPS    HX 8973   6.755   1.705   6.531  0.3762 -0.1597 -0.2541
   92SAPS    HY 8974   6.647   1.573   6.495  0.3677  0.9189 -0.3333
   92SAPS   O31 8975   6.652   1.630   6.692  0.3250 -0.3404  0.6028
   92SAPS   C31 8976   6.681   1.508   6.740 -0.1446 -0.4628 -0.7395
   92SAPS   O32 8977   6.712   1.408   6.675 -0.2714  0.2894 -0.0371
   92SAPS   C32 8978   6.673   1.526   6.896 -0.0623  0.5217  0.5558
   92SAPS   H2X 8979   6.581   1.584   6.921 -0.3951 -0.6966  2.3313
   92SAPS   H2Y 8980   6.764   1.586   6.918  1.1220 -0.2300 -1.9195
   92SAPS   C23 8981   6.418   2.188   6.735 -0.5422  0.0464  0.5510
   92SAPS   H3R 8982   6.399   2.129   6.828 -1.1816  1.0515  1.0775
   92SAPS   H3S 8983   6.334   2.196   6.663  1.2589 -1.7013 -1.9143
   92SAPS   C24 8984   6.472   2.318   6.786  0.4740  0.1448 -0.2980
   92SAPS   H4R 8985   6.390   2.384   6.823  0.2213 -0.9911  1.2479
   92SAPS   H4S 8986   6.509   2.379   6.701  2.2302 -1.6603 -0.8838
   92SAPS   C25 8987   6.581   2.306   6.883 -0.4805  0.0846  0.0391
   92SAPS   H5R 8988   6.683   2.322   6.844  0.2100 -1.9483  0.8336
   92SAPS   C26 8989   6.577   2.276   7.012  0.6184  0.0397  0.3186
   92SAPS   H6R 8990   6.672   2.275   7.067  1.7947 -0.9219 -1.6297
   92SAPS   C27 8991   6.464   2.247   7.109 -0.0574 -0.5014 -0.3834
   92SAPS   H7R 8992   6.479   2.141   7.137 -0.1565 -0.0901  1.3162
   92SAPS   H7S 8993   6.364   2.247   7.059 -0.7699  1.3148  0.9192
   92SAPS   C28 8994   6.463   2.353   7.215  0.2135  0.2667  0.0771
   92SAPS   H8R 8995   6.492   2.453   7.180  3.1570 -0.0278  1.3537
   92SAPS   C29 8996   6.453   2.329   7.346  0.4692 -0.1700 -0.7470
   92SAPS   H9R 8997   6.453   2.430   7.390  0.2745 -0.5605  0.1728
   92SAPS  C210 8998   6.445   2.206   7.426  0.2107  0.7962  0.4410
   92SAPS  H10R 8999   6.527   2.138   7.393  1.2875  1.9427  0.6708
   92SAPS  H10S 9000   6.342   2.177   7.395  0.4616  0.9305 -0.5540
   92SAPS  C211 9001   6.433   2.222   7.579  0.0378 -0.4151 -0.3294
   92SAPS  H11R 9002   6.348   2.274   7.625  0.0282 -1.9511  1.5228
   92SAPS  C212 9003   6.509   2.158   7.670  0.0287 -0.0293 -0.5548
   92SAPS  H12R 9004   6.491   2.167   7.778  2.2614 -1.5363  0.0050
   92SAPS  C213 9005   6.624   2.062   7.637  0.0008  0.6744 -0.0332
   92SAPS  H13R 9006   6.667   2.077   7.536 -2.2049  1.3536 -0.9081
   92SAPS  H13S 9007   6.582   1.960   7.646 -0.7869  0.8585 -1.4254
   92SAPS  C214 9008   6.728   2.087   7.743 -0.0991  0.0986 -1.1292
   92SAPS  H14R 9009   6.810   2.152   7.709  0.8824  0.0987  1.0649
   92SAPS  C215 9010   6.739   2.036   7.868  0.1620  0.5741  0.5303
   92SAPS  H15R 9011   6.815   2.078   7.936 -0.3139  1.1810  0.7033
   92SAPS  C216 9012   6.641   1.940   7.926  0.2519  0.0961  0.0631
   92SAPS  H16R 9013   6.580   1.877   7.858 -0.1399  0.1350  0.3693
   92SAPS  H16S 9014   6.563   1.995   7.983 -2.6259 -1.5695 -2.0321
   92SAPS  C217 9015   6.710   1.842   8.027  0.3937 -0.1506 -0.8841
   92SAPS  H17R 9016   6.754   1.911   8.102 -0.1280 -0.8942  0.1299
   92SAPS  H17S 9017   6.783   1.773   7.979 -0.2522 -1.8938  0.5371
   92SAPS  C218 9018   6.623   1.747   8.101  0.5770  0.1409  0.9577
   92SAPS  H18R 9019   6.581   1.667   8.037  0.4372  0.2546  0.9055
   92SAPS  H18S 9020   6.536   1.795   8.151 -0.2269 -0.2738 -0.0178
   92SAPS  C219 9021   6.695   1.682   8.213 -0.1495 -1.0873  0.4726
   92SAPS  H19R 9022   6.733   1.758   8.284 -0.1909  2.2271 -2.7056
   92SAPS  H19S 9023   6.784   1.625   8.176  0.8149 -0.1620  1.3068
   92SAPS  C220 9024   6.600   1.585   8.288 -0.1469  0.2897  0.6061
   92SAPS  H20R 9025   6.531   1.640   8.355  0.1587 -2.0607  3.0095
   92SAPS  H20S 9026   6.660   1.514   8.348  2.9685  1.1529 -1.2377
   92SAPS  H20T 9027   6.536   1.530   8.216 -0.8787 -0.3588  1.7223
   92SAPS   C33 9028   6.697   1.395   6.975  0.3408 -0.2243  0.8888
   92SAPS   H3X 9029   6.786   1.334   6.952  2.5028  1.8571  3.1669
   92SAPS   H3Y 9030   6.605   1.336   6.954  0.8905 -0.7660 -0.0323
   92SAPS   C34 9031   6.699   1.423   7.129 -0.2293  0.7660 -0.3985
   92SAPS   H4X 9032   6.627   1.501   7.162  1.9779  2.3933  0.9268
   92SAPS   H4Y 9033   6.799   1.462   7.159 -0.5474  0.6691  0.8545
   92SAPS   C35 9034   6.669   1.298   7.218  0.3178 -0.5762 -0.5459
   92SAPS   H5X 9035   6.735   1.209   7.211  2.1380  0.7326 -0.7053
   92SAPS   H5Y 9036   6.566   1.272   7.186  0.0097  0.0144 -0.0580
   92SAPS   C36 9037   6.682   1.340   7.364 -0.2876 -0.3307  0.5991
   92SAPS   H6X 9038   6.608   1.421   7.379 -2.1995 -1.4962 -1.9027
   92SAPS   H6Y 9039   6.787   1.377   7.369 -0.3663 -0.0682  0.3446
   92SAPS   C37 9040   6.650   1.238   7.471 -0.1867 -0.9458 -0.7100
   92SAPS   H7X 9041   6.730   1.161   7.466  1.3383  0.4548  0.6317
   92SAPS   H7Y 9042   6.557   1.184   7.445 -1.0350 -1.1877  2.3955
   92SAPS   C38 9043   6.648   1.290   7.618  0.2077  0.0850  0.7830
   92SAPS   H8X 9044   6.563   1.359   7.636 -1.1531 -1.2152 -0.3301
   92SAPS   H8Y 9045   6.739   1.352   7.624 -0.5754  1.4465 -0.6094
   92SAPS   C39 9046   6.641   1.171   7.721  0.3334 -0.2021  1.0586
   92SAPS   H9X 9047   6.746   1.142   7.739  0.8693  0.7768 -0.3341
   92SAPS   H9Y 9048   6.586   1.081   7.689 -1.6744  1.1161  0.5913
   92SAPS  C310 9049   6.562   1.207   7.847  0.5249 -0.1915 -0.0896
   92SAPS  H10X 9050   6.455   1.223   7.822  0.4677  0.6726  0.6444
   92SAPS  H10Y 9051   6.608   1.304   7.875  1.7796 -0.0537 -2.4050
   92SAPS  C311 9052   6.585   1.097   7.950 -0.2536  0.2639  0.0921
   92SAPS  H11X 9053   6.696   1.093   7.959 -0.2035  1.2719  0.0054
   92SAPS  H11Y 9054   6.545   1.006   7.900 -0.4056 -0.6747  1.8399
   92SAPS  C312 9055   6.497   1.124   8.076 -0.6656 -0.0112  0.0590
   92SAPS  H12X 9056   6.391   1.150   8.054 -0.5128  0.2295 -0.4135
   92SAPS  H12Y 9057   6.546   1.206   8.133  1.0103  0.3617 -1.7875
   92SAPS  C313 9058   6.491   0.996   8.163 -0.8720 -1.3042  0.2149
   92SAPS  H13X 9059   6.442   1.030   8.257 -2.0427  0.5654 -0.9946
   92SAPS  H13Y 9060   6.597   0.965   8.178 -0.5148 -0.5911 -0.7686
   92SAPS  C314 9061   6.397   0.889   8.118  0.0933 -0.3577 -1.0873
   92SAPS  H14X 9062   6.416   0.870   8.010 -1.9083  2.3455 -2.0199
   92SAPS  H14Y 9063   6.290   0.918   8.125  0.0980 -0.6980  1.0367
   92SAPS  C315 9064   6.432   0.760   8.197  0.9445  0.6915 -0.4210
   92SAPS  H15X 9065   6.421   0.779   8.306 -1.0140  0.5281 -0.5610
   92SAPS  H15Y 9066   6.528   0.713   8.167  0.0110 -2.3475  0.9939
   92SAPS  C316 9067   6.328   0.642   8.170 -0.0954 -0.0995 -0.7939
   92SAPS  H16X 9068   6.350   0.624   8.063  0.2904  3.4187 -1.4497
   92SAPS  H16Y 9069   6.223   0.672   8.191 -0.6612 -0.7078 -2.5671
   92SAPS  C317 9070   6.366   0.525   8.268  0.1674  0.1145  0.0889
   92SAPS  H17X 9071   6.378   0.561   8.372  0.4405 -0.2126  0.1729
   92SAPS  H17Y 9072   6.468   0.491   8.239  0.7552  0.3915  1.7634
   92SAPS  C318 9073   6.273   0.403   8.262 -0.2263 -0.9629 -0.3996
   92SAPS  H18X 9074   6.304   0.318   8.327  0.2038  0.1515  0.8995
   92SAPS  H18Y 9075   6.253   0.365   8.160 -1.1304  0.6450 -0.8541
   92SAPS  H18Z 9076   6.185   0.437   8.319  0.9492 -0.4423  1.1816
   93SAPS     N 9077   0.412   2.065   6.279 -0.3153  0.5359 -0.3234
   93SAPS   HN1 9078   0.412   2.168   6.261  0.7849  0.4232 -1.0838
   93SAPS   HN2 9079   0.312   2.038   6.270 -0.6018  1.2436  0.5587
   93SAPS   HN3 9080   0.444   2.040   6.374  1.4151  0.2761 -0.9245
   93SAPS   C12 9081   0.491   1.979   6.165 -0.6521 -0.0381 -0.0564
   93SAPS  H12A 9082   0.432   1.968   6.076 -0.7995  0.9522 -0.0912
   93SAPS   C13 9083   0.635   2.033   6.125  0.6472  0.2302 -0.2300
   93SAPS  O13A 9084   0.648   2.158   6.143 -0.1815  0.5226  0.2204
   93SAPS  O13B 9085   0.697   1.967   6.034  0.2846  0.4918 -1.1258
   93SAPS   C11 9086   0.510   1.837   6.212  0.0201  0.9232 -1.1291
   93SAPS  H11A 9087   0.556   1.838   6.313 -0.0496 -0.8881 -1.0470
   93SAPS  H11B 9088   0.572   1.778   6.141 -0.7710 -1.1437 -0.1886
   93SAPS     P 9089   0.370   1.615   6.236  0.0242  0.0913  0.1576
   93SAPS   O13 9090   0.233   1.574   6.195 -0.3065  0.2113 -0.0892
   93SAPS   O14 9091   0.478   1.544   6.168 -0.4371  0.2122 -0.1057
   93SAPS   O12 9092   0.380   1.770   6.215  0.5056 -0.2338  0.2223
   93SAPS   O11 9093   0.392   1.601   6.389 -0.7967 -0.2103  0.0797
   93SAPS    C1 9094   0.432   1.490   6.453  0.6953 -0.1869 -0.0672
   93SAPS    HA 9095   0.344   1.424   6.472  2.5869 -2.5814  0.8467
   93SAPS    HB 9096   0.510   1.432   6.399  1.3750 -0.1212  0.8137
   93SAPS    C2 9097   0.503   1.528   6.589 -0.5598 -0.1981  0.1934
   93SAPS    HS 9098   0.559   1.439   6.623  4.1406  2.4542  0.2984
   93SAPS   O21 9099   0.408   1.579   6.687 -0.3014  0.3468 -0.0705
   93SAPS   C21 9100   0.344   1.477   6.746 -0.8575  0.0333  0.2410
   93SAPS   O22 9101   0.373   1.361   6.734  0.4677 -0.0509 -0.2747
   93SAPS   C22 9102   0.232   1.535   6.823  0.5385  0.2925  0.1012
   93SAPS   H2R 9103   0.242   1.645   6.827 -2.0016  0.6655 -1.4067
   93SAPS   H2S 9104   0.139   1.509   6.767  0.8654  1.7450 -1.1812
   93SAPS    C3 9105   0.618   1.631   6.570  0.1252  0.3084  0.2343
   93SAPS    HX 9106   0.586   1.712   6.502  2.2927  0.5369 -0.5752
   93SAPS    HY 9107   0.693   1.572   6.514  1.0856  0.3405  1.4418
   93SAPS   O31 9108   0.670   1.688   6.696  0.3716 -0.0684  0.2992
   93SAPS   C31 9109   0.754   1.627   6.768 -1.1436 -0.2311 -0.6637
   93SAPS   O32 9110   0.773   1.507   6.765  0.0356  0.2629  0.3392
   93SAPS   C32 9111   0.816   1.718   6.878  0.4268 -0.3280  0.2690
   93SAPS   H2X 9112   0.728   1.777   6.911  0.8560  1.2212 -1.2244
   93SAPS   H2Y 9113   0.889   1.789   6.833  0.4543 -1.3878 -1.4919
   93SAPS   C23 9114   0.225   1.489   6.972  0.4403  0.7230 -0.6502
   93SAPS   H3R 9115   0.209   1.379   6.970  0.5385  0.6971 -0.1902
   93SAPS   H3S 9116   0.138   1.542   7.015 -2.1663 -0.8210 -3.6801
   93SAPS   C24 9117   0.349   1.522   7.053 -0.0716  0.6226  0.1990
   93SAPS   H4R 9118   0.371   1.630   7.042  0.1895  0.7446  1.6937
   93SAPS   H4S 9119   0.428   1.462   7.003 -0.3986 -0.3068  0.7554
   93SAPS   C25 9120   0.339   1.474   7.196  0.0255  0.0635 -1.1705
   93SAPS   H5R 9121   0.343   1.365   7.208 -3.4999 -0.5099 -3.4576
   93SAPS   C26 9122   0.343   1.547   7.307  0.7074  0.4012  0.5434
   93SAPS   H6R 9123   0.324   1.495   7.402 -2.9549 -2.4951 -1.4969
   93SAPS   C27 9124   0.355   1.698   7.300  0.1595 -0.0710  0.3600
   93SAPS   H7R 9125   0.265   1.727   7.358 -1.5880 -0.8151 -1.8374
   93SAPS   H7S 9126   0.335   1.742   7.200 -0.7106  3.2387  1.8475
   93SAPS   C28 9127   0.489   1.744   7.339  1.1131 -0.3121  0.2172
   93SAPS   H8R 9128   0.572   1.710   7.275 -0.8246 -0.9944 -2.0645
   93SAPS   C29 9129   0.515   1.832   7.436  0.3707  0.2491 -0.2674
   93SAPS   H9R 9130   0.619   1.848   7.467 -0.0239  2.7477 -0.0641
   93SAPS  C210 9131   0.411   1.883   7.527  0.4669  0.8197 -0.4515
   93SAPS  H10R 9132   0.438   1.858   7.632 -1.2827  0.2945 -0.0882
   93SAPS  H10S 9133   0.311   1.837   7.512  0.4719  0.9305 -0.8189
   93SAPS  C211 9134   0.411   2.038   7.515  0.0878  0.1422 -0.1255
   93SAPS  H11R 9135   0.505   2.083   7.552  1.7219  0.1319 -3.8084
   93SAPS  C212 9136   0.305   2.120   7.495 -0.2091 -0.0477  0.2929
   93SAPS  H12R 9137   0.325   2.228   7.491 -2.9398  0.5318  0.4544
   93SAPS  C213 9138   0.170   2.062   7.468  0.5142  0.0231  0.6984
   93SAPS  H13R 9139   0.109   2.058   7.560 -0.2892  2.2031  0.3233
   93SAPS  H13S 9140   0.167   1.959   7.426 -0.3428  0.5216 -0.5299
   93SAPS  C214 9141   0.103   2.155   7.373  0.3915  0.2681 -0.0926
   93SAPS  H14R 9142   0.046   2.232   7.428 -0.7719  0.4863 -1.5517
   93SAPS  C215 9143   0.104   2.138   7.243  0.1986  0.3898  0.4366
   93SAPS  H15R 9144   0.067   2.214   7.173 -1.4343 -1.2966 -0.6329
   93SAPS  C216 9145   0.172   2.024   7.169 -0.4212  0.4974  0.2275
   93SAPS  H16R 9146   0.256   1.978   7.226 -1.3385 -1.5407  0.0553
   93SAPS  H16S 9147   0.215   2.063   7.075  0.3136 -3.5617 -1.3170
   93SAPS  C217 9148   0.079   1.904   7.147  1.0390 -0.2134  0.0824
   93SAPS  H17R 9149   0.066   1.847   7.242  1.0763  0.4255  0.4816
   93SAPS  H17S 9150   0.132   1.838   7.076  0.1053 -0.0980 -0.7424
   93SAPS  C218 9151  -0.060   1.953   7.093 -0.3081 -0.6349 -0.2589
   93SAPS  H18R 9152  -0.037   2.023   7.010  2.3119 -0.4666  0.5066
   93SAPS  H18S 9153  -0.120   2.002   7.173  1.3980  1.2938 -0.0696
   93SAPS  C219 9154  -0.149   1.844   7.038 -1.2414 -0.0531 -0.0101
   93SAPS  H19R 9155  -0.163   1.760   7.110  1.5917 -2.6817 -2.2801
   93SAPS  H19S 9156  -0.104   1.786   6.955 -1.8627  0.6999 -0.8931
   93SAPS  C220 9157  -0.280   1.903   6.996  0.3231 -0.4541 -0.2138
   93SAPS  H20R 9158  -0.375   1.848   6.978 -0.7761  2.1115 -3.3001
   93SAPS  H20S 9159  -0.269   1.976   6.912 -2.5651  1.0080  0.5476
   93SAPS  H20T 9160  -0.312   1.958   7.087  1.4943  1.9616 -1.1562
   93SAPS   C33 9161   0.881   1.634   6.987  0.2779  0.5188  0.7285
   93SAPS   H3X 9162   0.967   1.689   7.033  0.7869  0.5810 -0.2684
   93SAPS   H3Y 9163   0.925   1.541   6.946 -1.9466  0.1116 -0.9127
   93SAPS   C34 9164   0.781   1.589   7.092 -0.3395 -0.2572  0.5307
   93SAPS   H4X 9165   0.736   1.502   7.039 -0.4548  0.1240 -0.0031
   93SAPS   H4Y 9166   0.706   1.668   7.113  0.5857  0.8644 -0.2832
   93SAPS   C35 9167   0.824   1.548   7.234 -0.4249 -0.9593 -0.8018
   93SAPS   H5X 9168   0.913   1.484   7.217  0.6139  0.2892 -0.3120
   93SAPS   H5Y 9169   0.748   1.482   7.281  0.0910 -0.0290  1.4938
   93SAPS   C36 9170   0.861   1.658   7.331  0.0125  0.0549 -1.0180
   93SAPS   H6X 9171   0.783   1.737   7.336 -0.6017 -0.6206  1.0275
   93SAPS   H6Y 9172   0.962   1.696   7.307  0.4043  1.6216  2.5048
   93SAPS   C37 9173   0.865   1.609   7.480  0.1906  0.1974  0.6457
   93SAPS   H7X 9174   0.928   1.518   7.481 -0.6468 -0.4933 -1.8849
   93SAPS   H7Y 9175   0.764   1.573   7.510 -0.0866 -0.2853 -0.7574
   93SAPS   C38 9176   0.914   1.712   7.570  0.0966  0.2632  0.3751
   93SAPS   H8X 9177   0.868   1.813   7.558  0.9756  1.0219  2.7465
   93SAPS   H8Y 9178   1.024   1.721   7.580  0.1898 -1.6311  1.4254
   93SAPS   C39 9179   0.896   1.676   7.719  0.4117  0.1895  0.3520
   93SAPS   H9X 9180   0.962   1.589   7.739 -0.9376 -0.8816  0.3275
   93SAPS   H9Y 9181   0.795   1.631   7.731  0.9301 -1.6192 -1.4073
   93SAPS  C310 9182   0.927   1.787   7.816  0.3220 -0.0941  0.1725
   93SAPS  H10X 9183   1.028   1.826   7.788  0.4560 -1.0422 -0.7031
   93SAPS  H10Y 9184   0.944   1.757   7.922  1.0977  1.5357  0.5534
   93SAPS  C311 9185   0.811   1.889   7.831 -0.1832 -0.2581 -0.2820
   93SAPS  H11X 9186   0.834   1.967   7.755  0.7151  0.9703  1.1897
   93SAPS  H11Y 9187   0.822   1.952   7.923  0.6100 -1.1554  0.2506
   93SAPS  C312 9188   0.668   1.836   7.853 -0.9518  1.2331  0.1869
   93SAPS  H12X 9189   0.672   1.744   7.914 -1.2665  2.1809  1.6814
   93SAPS  H12Y 9190   0.618   1.806   7.758  0.0278  0.7951 -0.1945
   93SAPS  C313 9191   0.579   1.927   7.935  0.0792 -0.2568  0.3052
   93SAPS  H13X 9192   0.563   2.031   7.899  1.0546  0.7927  2.7123
   93SAPS  H13Y 9193   0.628   1.934   8.035 -1.7224 -0.0431  1.2111
   93SAPS  C314 9194   0.444   1.865   7.969 -0.4523  0.5386  0.0641
   93SAPS  H14X 9195   0.463   1.756   7.978  0.9910  0.8326  0.9770
   93SAPS  H14Y 9196   0.375   1.880   7.883  1.1741 -2.7339 -2.0028
   93SAPS  C315 9197   0.392   1.911   8.107  0.0773  0.3164 -0.2662
   93SAPS  H15X 9198   0.437   2.005   8.145 -0.5508 -1.0268  4.4505
   93SAPS  H15Y 9199   0.419   1.841   8.189 -0.5989 -0.6674 -0.8515
   93SAPS  C316 9200   0.239   1.937   8.116  0.0217 -0.5453  0.0822
   93SAPS  H16X 9201   0.180   1.845   8.100 -0.6341 -0.2494  0.7720
   93SAPS  H16Y 9202   0.199   2.011   8.043  1.1361  0.1676  0.1626
   93SAPS  C317 9203   0.199   1.988   8.263 -0.3308 -0.1099  0.1417
   93SAPS  H17X 9204   0.089   1.998   8.265 -0.2509  0.8300  0.3157
   93SAPS  H17Y 9205   0.248   2.088   8.270 -0.3889  0.0330 -1.2650
   93SAPS  C318 9206   0.255   1.902   8.374 -0.5341  0.0970  0.0182
   93SAPS  H18X 9207   0.210   1.929   8.471  1.2626 -0.7226  1.1293
   93SAPS  H18Y 9208   0.362   1.932   8.380 -0.5103  0.0164  0.0069
   93SAPS  H18Z 9209   0.236   1.794   8.355  1.7018  0.0998 -3.1205
   94SAPS     N 9210   1.485   5.417   5.946  0.0691  0.3454  0.1198
   94SAPS   HN1 9211   1.550   5.458   6.016 -2.1085  1.1485  1.7998
   94SAPS   HN2 9212   1.463   5.318   5.970  0.6994 -0.0475 -0.8809
   94SAPS   HN3 9213   1.538   5.414   5.857 -1.0041 -0.4552 -0.5130
   94SAPS   C12 9214   1.371   5.511   5.929 -0.4207  0.0805  0.2438
   94SAPS  H12A 9215   1.341   5.536   6.029  0.4224  0.2011  0.4740
   94SAPS   C13 9216   1.405   5.635   5.844  0.9486 -0.0266  0.8218
   94SAPS  O13A 9217   1.525   5.665   5.824  0.1132 -0.3653 -0.0805
   94SAPS  O13B 9218   1.309   5.707   5.795  0.1131  0.3977  0.0690
   94SAPS   C11 9219   1.260   5.426   5.857  0.3872  0.7669 -0.1770
   94SAPS  H11A 9220   1.304   5.404   5.756  2.7494 -0.1749  0.9672
   94SAPS  H11B 9221   1.171   5.487   5.832 -0.2389 -0.0418  0.0559
   94SAPS     P 9222   1.074   5.255   5.942  0.2322  0.2206 -0.1177
   94SAPS   O13 9223   0.988   5.361   5.892  0.2250  0.0494  0.2506
   94SAPS   O14 9224   1.060   5.120   5.882 -0.1716  0.9996 -0.0643
   94SAPS   O12 9225   1.226   5.302   5.930  0.0596  0.3565 -0.2976
   94SAPS   O11 9226   1.058   5.238   6.100  0.5573 -0.0049  0.4315
   94SAPS    C1 9227   1.072   5.340   6.193  0.1895 -0.1655 -0.1700
   94SAPS    HA 9228   1.103   5.436   6.145 -0.1790 -0.0488 -0.1798
   94SAPS    HB 9229   0.975   5.364   6.242 -0.9411 -1.0991 -1.8416
   94SAPS    C2 9230   1.179   5.306   6.310 -0.3093  0.0383 -0.1640
   94SAPS    HS 9231   1.131   5.233   6.380  0.4217  1.5153  1.9944
   94SAPS   O21 9232   1.213   5.427   6.381  0.4106 -0.5756 -0.4952
   94SAPS   C21 9233   1.116   5.461   6.467  0.4197  0.3352 -0.7296
   94SAPS   O22 9234   1.011   5.400   6.490 -0.0278 -0.2219 -0.3812
   94SAPS   C22 9235   1.151   5.602   6.526 -0.3942 -0.3902 -0.1630
   94SAPS   H2R 9236   1.259   5.619   6.507 -0.2481 -0.1967  0.8195
   94SAPS   H2S 9237   1.093   5.672   6.462  1.6896  3.3076  1.6662
   94SAPS    C3 9238   1.302   5.250   6.240  0.0492  0.2600  0.1773
   94SAPS    HX 9239   1.308   5.287   6.136  0.6003  0.6519  0.3454
   94SAPS    HY 9240   1.268   5.145   6.224  0.5751 -0.0417  0.9651
   94SAPS   O31 9241   1.430   5.249   6.322 -0.2415  0.1444 -0.3172
   94SAPS   C31 9242   1.500   5.368   6.317  0.0881  0.0072 -0.1328
   94SAPS   O32 9243   1.475   5.462   6.248  0.4637 -0.2836 -0.2008
   94SAPS   C32 9244   1.631   5.354   6.405  0.2916  0.0957  0.7214
   94SAPS   H2X 9245   1.707   5.367   6.325  0.9346 -0.4349  1.2289
   94SAPS   H2Y 9246   1.642   5.251   6.445 -0.0960  0.1455  0.9594
   94SAPS   C23 9247   1.141   5.632   6.674 -0.3670 -0.2560 -0.8135
   94SAPS   H3R 9248   1.203   5.720   6.699 -0.4026  0.1809 -2.1885
   94SAPS   H3S 9249   1.175   5.543   6.731  0.0831 -0.8880 -2.0295
   94SAPS   C24 9250   1.002   5.667   6.722  0.7538 -0.7472 -0.6726
   94SAPS   H4R 9251   0.951   5.720   6.639 -0.2507 -0.8319 -0.1296
   94SAPS   H4S 9252   1.014   5.744   6.801  1.2028 -0.4871 -0.9863
   94SAPS   C25 9253   0.921   5.544   6.765  0.0181 -0.5352 -0.2301
   94SAPS   H5R 9254   0.904   5.475   6.681  1.2825  0.0025 -0.9759
   94SAPS   C26 9255   0.878   5.514   6.887 -0.4558 -0.8045 -1.0122
   94SAPS   H6R 9256   0.817   5.423   6.903 -3.5943  1.6456  2.7707
   94SAPS   C27 9257   0.902   5.598   7.012 -0.0398  0.7133 -0.4908
   94SAPS   H7R 9258   0.816   5.667   7.029  0.7643  1.4871  0.5797
   94SAPS   H7S 9259   0.989   5.666   7.003  0.1905  0.4395 -0.3334
   94SAPS   C28 9260   0.918   5.508   7.131  0.5025  1.0413  0.1849
   94SAPS   H8R 9261   0.973   5.419   7.099 -1.0593  0.1832 -0.2159
   94SAPS   C29 9262   0.869   5.523   7.251 -0.5858 -0.0322 -0.4987
   94SAPS   H9R 9263   0.907   5.459   7.332 -1.0552  1.7029  1.1887
   94SAPS  C210 9264   0.784   5.641   7.302  0.5869  0.0742  0.3826
   94SAPS  H10R 9265   0.842   5.726   7.261 -0.4314  0.9814  0.7951
   94SAPS  H10S 9266   0.784   5.634   7.413 -4.1930 -1.2492  0.5027
   94SAPS  C211 9267   0.644   5.665   7.242 -0.3128  0.3913  0.0283
   94SAPS  H11R 9268   0.639   5.649   7.133  1.2805 -3.4700  0.3537
   94SAPS  C212 9269   0.540   5.711   7.311  0.6179  0.2017  0.4449
   94SAPS  H12R 9270   0.448   5.720   7.252  0.2483  2.3765  1.2340
   94SAPS  C213 9271   0.521   5.742   7.455  0.9821 -0.7679 -0.3112
   94SAPS  H13R 9272   0.621   5.717   7.496  0.7016 -0.5824  0.5009
   94SAPS  H13S 9273   0.445   5.673   7.497  1.2272 -1.8760 -1.6338
   94SAPS  C214 9274   0.497   5.886   7.491 -0.3246 -0.1656  0.2828
   94SAPS  H14R 9275   0.546   5.956   7.422 -2.6681 -1.0087 -2.3910
   94SAPS  C215 9276   0.435   5.936   7.604  0.1697  0.0106  0.4007
   94SAPS  H15R 9277   0.428   6.044   7.622  3.0179  0.0433  1.9885
   94SAPS  C216 9278   0.372   5.848   7.709 -0.1131 -0.1400  0.5211
   94SAPS  H16R 9279   0.398   5.741   7.692  0.7210  0.0717  0.4076
   94SAPS  H16S 9280   0.263   5.849   7.685  0.6871  0.9943 -4.1225
   94SAPS  C217 9281   0.407   5.887   7.853  0.2594 -0.7383  0.1244
   94SAPS  H17R 9282   0.342   5.827   7.920 -0.9789 -0.6223 -0.9256
   94SAPS  H17S 9283   0.382   5.994   7.868 -3.4791 -0.5663 -4.6513
   94SAPS  C218 9284   0.555   5.856   7.896 -0.2183 -0.4819 -0.2904
   94SAPS  H18R 9285   0.619   5.926   7.838 -1.2983 -0.1348 -1.0941
   94SAPS  H18S 9286   0.586   5.753   7.870 -0.4011 -1.0064  1.4450
   94SAPS  C219 9287   0.573   5.874   8.051 -0.9224  0.0599 -0.2988
   94SAPS  H19R 9288   0.486   5.833   8.108  0.0612 -0.1774  1.0878
   94SAPS  H19S 9289   0.579   5.981   8.081 -0.7519  0.4511 -1.6717
   94SAPS  C220 9290   0.694   5.796   8.096 -0.4225 -0.0079  0.0287
   94SAPS  H20R 9291   0.674   5.688   8.115  1.0005 -0.2426  0.2843
   94SAPS  H20S 9292   0.732   5.827   8.196  1.5518 -2.4988  0.1581
   94SAPS  H20T 9293   0.771   5.806   8.017 -0.8964  0.4280 -0.3825
   94SAPS   C33 9294   1.646   5.452   6.524 -0.0986 -0.0840 -0.6687
   94SAPS   H3X 9295   1.624   5.556   6.491  1.9455  1.0181  1.1615
   94SAPS   H3Y 9296   1.752   5.455   6.558 -0.6344  0.2826  1.1079
   94SAPS   C34 9297   1.555   5.423   6.653 -0.1652  0.4476  0.7093
   94SAPS   H4X 9298   1.597   5.336   6.707 -0.9259 -0.0482  0.5116
   94SAPS   H4Y 9299   1.457   5.394   6.611 -1.2155  2.5096  1.5848
   94SAPS   C35 9300   1.538   5.534   6.755 -0.0858  0.0606 -0.2302
   94SAPS   H5X 9301   1.496   5.623   6.704  0.3387  1.4270  1.6898
   94SAPS   H5Y 9302   1.637   5.557   6.799  0.0423 -0.5177 -0.2031
   94SAPS   C36 9303   1.449   5.490   6.866 -0.1659  0.0008  0.4377
   94SAPS   H6X 9304   1.481   5.400   6.924 -2.8609 -0.9010  0.6905
   94SAPS   H6Y 9305   1.352   5.472   6.816 -0.1485  0.1631  0.3476
   94SAPS   C37 9306   1.438   5.611   6.959  0.1533 -0.2172 -0.7240
   94SAPS   H7X 9307   1.440   5.705   6.901 -0.2793 -0.4732 -1.1640
   94SAPS   H7Y 9308   1.531   5.609   7.021 -0.5393 -0.1003  0.3554
   94SAPS   C38 9309   1.309   5.607   7.052  0.3744  0.0937  0.4944
   94SAPS   H8X 9310   1.227   5.617   6.977  0.3494  2.2482  0.7488
   94SAPS   H8Y 9311   1.304   5.696   7.117 -2.7707 -0.3338  1.0024
   94SAPS   C39 9312   1.294   5.482   7.135  0.4326  0.4047  0.0617
   94SAPS   H9X 9313   1.338   5.389   7.093 -1.7691 -1.0038  0.6925
   94SAPS   H9Y 9314   1.185   5.469   7.148  0.4422 -2.4628 -1.8553
   94SAPS  C310 9315   1.371   5.494   7.274  0.2299 -0.0172 -0.2950
   94SAPS  H10X 9316   1.368   5.599   7.310  1.2966 -0.3397  0.8143
   94SAPS  H10Y 9317   1.478   5.472   7.256  0.0808 -0.6654 -0.4127
   94SAPS  C311 9318   1.317   5.397   7.378  0.4257  0.8126 -0.4485
   94SAPS  H11X 9319   1.323   5.288   7.357 -0.5532  0.4466  0.9694
   94SAPS  H11Y 9320   1.208   5.418   7.377  0.2961  0.2229  0.3328
   94SAPS  C312 9321   1.385   5.423   7.510 -0.5165 -0.3229 -0.1494
   94SAPS  H12X 9322   1.397   5.532   7.529 -0.7311 -0.5491  1.4189
   94SAPS  H12Y 9323   1.486   5.382   7.494 -0.4203  0.3687 -1.4815
   94SAPS  C313 9324   1.306   5.358   7.629 -1.3224 -0.1408  0.7074
   94SAPS  H13X 9325   1.263   5.262   7.596 -1.8520  0.1548  0.5364
   94SAPS  H13Y 9326   1.218   5.421   7.655 -1.4022 -0.0848  0.2976
   94SAPS  C314 9327   1.381   5.347   7.769  0.0257 -0.1760 -0.1482
   94SAPS  H14X 9328   1.406   5.453   7.791 -2.4785  0.4275  0.0931
   94SAPS  H14Y 9329   1.473   5.294   7.735 -0.5207 -0.9217 -0.5161
   94SAPS  C315 9330   1.319   5.258   7.878 -0.0734 -0.2992  1.1387
   94SAPS  H15X 9331   1.304   5.152   7.848  0.4840 -0.3975  1.1986
   94SAPS  H15Y 9332   1.218   5.295   7.906  0.7920  0.9592  2.7545
   94SAPS  C316 9333   1.385   5.262   8.020  0.6768 -0.1041 -0.8224
   94SAPS  H16X 9334   1.385   5.364   8.063  1.6774 -1.0087  1.5327
   94SAPS  H16Y 9335   1.492   5.231   8.013  0.8758  0.0643  0.9146
   94SAPS  C317 9336   1.333   5.157   8.124  0.7913 -0.2989  0.1636
   94SAPS  H17X 9337   1.224   5.175   8.131  1.0274  0.4458  3.9946
   94SAPS  H17Y 9338   1.383   5.180   8.220  0.0619  1.7310  0.1048
   94SAPS  C318 9339   1.367   5.013   8.087 -0.2847  0.7684 -0.2673
   94SAPS  H18X 9340   1.477   4.996   8.080 -0.4924 -0.3949 -0.9559
   94SAPS  H18Y 9341   1.319   4.988   7.990 -0.8742  0.8511 -0.0046
   94SAPS  H18Z 9342   1.319   4.952   8.166 -0.9054  0.2952 -0.9997
   95SAPS     N 9343   5.113   0.784   6.343  0.2444  0.5969  0.7346
   95SAPS   HN1 9344   5.158   0.862   6.395 -0.8465  0.0575  2.5455
   95SAPS   HN2 9345   5.019   0.782   6.386  0.2071 -3.2372  0.8640
   95SAPS   HN3 9346   5.164   0.697   6.369  1.1573  0.5910 -0.9299
   95SAPS   C12 9347   5.105   0.807   6.191  0.0899  0.8950 -0.1676
   95SAPS  H12A 9348   5.198   0.841   6.149 -0.2011  1.6275 -0.2379
   95SAPS   C13 9349   5.087   0.665   6.119 -0.1349  0.3084  0.0767
   95SAPS  O13A 9350   5.085   0.551   6.180  0.0167 -0.7089 -0.2373
   95SAPS  O13B 9351   5.065   0.680   5.995 -0.2639  0.5016 -0.2812
   95SAPS   C11 9352   4.996   0.912   6.170 -0.2145 -0.2145  0.3596
   95SAPS  H11A 9353   4.895   0.876   6.197 -0.3983 -0.2680 -0.3813
   95SAPS  H11B 9354   5.002   0.938   6.062 -0.1725  1.4080  0.7248
   95SAPS     P 9355   4.920   1.142   6.286 -0.3674  0.1945 -0.0879
   95SAPS   O13 9356   5.002   1.262   6.325 -0.2360  0.3794 -0.2373
   95SAPS   O14 9357   4.819   1.160   6.179  0.4574  0.4688  0.1761
   95SAPS   O12 9358   5.026   1.031   6.246 -0.4743  0.2739 -0.0659
   95SAPS   O11 9359   4.849   1.076   6.405  0.1433 -0.0881 -0.1699
   95SAPS    C1 9360   4.749   1.156   6.478 -0.8645  0.4430  0.2105
   95SAPS    HA 9361   4.693   1.218   6.405 -0.2631 -0.1517 -0.7859
   95SAPS    HB 9362   4.674   1.085   6.520 -0.6412 -0.4905 -0.9227
   95SAPS    C2 9363   4.814   1.238   6.587 -0.2651  0.7367  0.3443
   95SAPS    HS 9364   4.901   1.295   6.549 -0.3681  0.5887 -0.1150
   95SAPS   O21 9365   4.850   1.147   6.693 -0.1322 -0.1452 -0.1460
   95SAPS   C21 9366   4.973   1.092   6.685  0.1224 -0.2049  0.2899
   95SAPS   O22 9367   5.070   1.143   6.634  0.4416 -0.1003 -0.4577
   95SAPS   C22 9368   4.979   0.976   6.773  0.5153  0.2602 -1.4477
   95SAPS   H2R 9369   4.876   0.974   6.815  1.7188  0.9019  1.8304
   95SAPS   H2S 9370   5.000   0.881   6.720 -0.1247 -0.2194 -0.8567
   95SAPS    C3 9371   4.729   1.351   6.646 -0.5397 -0.5331 -0.8636
   95SAPS    HX 9372   4.646   1.300   6.700  0.4406  0.0534  1.3071
   95SAPS    HY 9373   4.697   1.418   6.564 -0.6952 -1.5202 -1.6250
   95SAPS   O31 9374   4.810   1.419   6.745 -0.0990 -0.1452 -0.4073
   95SAPS   C31 9375   4.748   1.485   6.837  0.1671 -0.3240  0.0081
   95SAPS   O32 9376   4.623   1.491   6.844 -0.0378 -0.1545 -1.0083
   95SAPS   C32 9377   4.842   1.572   6.917 -0.2113 -0.0990 -0.3399
   95SAPS   H2X 9378   4.780   1.658   6.949 -2.4039 -1.2316 -1.3145
   95SAPS   H2Y 9379   4.927   1.607   6.854  1.0655 -0.0485  1.3539
   95SAPS   C23 9380   5.075   1.009   6.890  0.1287  0.5964 -0.1669
   95SAPS   H3R 9381   5.048   1.100   6.948  1.1198  0.7553  0.0744
   95SAPS   H3S 9382   5.180   1.019   6.856  0.9753  1.7921  2.5203
   95SAPS   C24 9383   5.069   0.904   7.001  0.0419 -0.2262 -0.3259
   95SAPS   H4R 9384   5.050   0.807   6.949  1.4797 -0.2888 -0.7888
   95SAPS   H4S 9385   4.981   0.918   7.067  1.0976  0.5589  0.9552
   95SAPS   C25 9386   5.195   0.896   7.081 -0.4153  0.2812  0.5792
   95SAPS   H5R 9387   5.279   0.873   7.014 -0.8332  0.4137 -0.0059
   95SAPS   C26 9388   5.217   0.889   7.215 -0.0796 -0.4982  0.1611
   95SAPS   H6R 9389   5.319   0.903   7.255  0.2036 -0.4292 -0.5714
   95SAPS   C27 9390   5.114   0.893   7.327  0.0207 -0.6920 -0.2366
   95SAPS   H7R 9391   5.173   0.877   7.419  2.2495  1.8156 -1.1221
   95SAPS   H7S 9392   5.037   0.814   7.310 -0.9484  0.5088 -1.7076
   95SAPS   C28 9393   5.037   1.025   7.343 -0.0619 -0.1651  0.3622
   95SAPS   H8R 9394   5.060   1.093   7.259  2.6905  0.9448  1.8505
   95SAPS   C29 9395   4.936   1.052   7.418 -0.0348 -0.0238  0.0759
   95SAPS   H9R 9396   4.882   1.144   7.391  0.2481 -0.6622 -3.0990
   95SAPS  C210 9397   4.882   0.951   7.514 -0.0901  0.1217 -0.1942
   95SAPS  H10R 9398   4.925   0.851   7.497 -3.8568 -1.8878  0.9625
   95SAPS  H10S 9399   4.775   0.941   7.485 -0.9633 -1.6567  3.0744
   95SAPS  C211 9400   4.909   0.985   7.662  0.0300 -0.3418 -0.1848
   95SAPS  H11R 9401   4.972   1.073   7.680 -0.7554  0.3904 -0.9320
   95SAPS  C212 9402   4.870   0.919   7.769  0.1215  0.2241  1.1014
   95SAPS  H12R 9403   4.915   0.951   7.864 -0.0150 -0.0738  1.2674
   95SAPS  C213 9404   4.787   0.795   7.760 -0.6548 -0.8861 -0.5642
   95SAPS  H13R 9405   4.845   0.717   7.815  2.0979  1.3089 -0.1307
   95SAPS  H13S 9406   4.773   0.748   7.660 -1.8358 -1.3373 -0.2065
   95SAPS  C214 9407   4.646   0.832   7.814 -1.0421 -0.3608 -0.1211
   95SAPS  H14R 9408   4.571   0.860   7.738 -0.4182 -0.1122 -0.6572
   95SAPS  C215 9409   4.613   0.855   7.943  0.9671  0.3200  0.3056
   95SAPS  H15R 9410   4.513   0.888   7.974  0.8588  0.1931  0.0966
   95SAPS  C216 9411   4.701   0.849   8.067  0.6022  0.1916 -0.4277
   95SAPS  H16R 9412   4.803   0.807   8.052  0.4575 -0.0764 -0.6815
   95SAPS  H16S 9413   4.648   0.789   8.144  1.0896 -1.1536 -1.0950
   95SAPS  C217 9414   4.719   0.989   8.133 -0.2883  0.3901  0.2289
   95SAPS  H17R 9415   4.774   1.052   8.060 -0.5224 -0.7353 -0.9643
   95SAPS  H17S 9416   4.786   0.980   8.221  1.4072  0.2528 -1.0225
   95SAPS  C218 9417   4.585   1.054   8.185  0.5943 -0.1176 -0.6294
   95SAPS  H18R 9418   4.551   0.993   8.271  1.0840 -0.6030 -0.7762
   95SAPS  H18S 9419   4.508   1.056   8.105  1.1808  0.5045 -1.1978
   95SAPS  C219 9420   4.617   1.194   8.236 -0.1566 -0.9681 -0.5062
   95SAPS  H19R 9421   4.657   1.260   8.156 -0.3132 -0.4365 -0.1465
   95SAPS  H19S 9422   4.695   1.200   8.315 -0.2382  1.0216 -0.5383
   95SAPS  C220 9423   4.495   1.257   8.293 -0.7827 -0.2792 -0.0948
   95SAPS  H20R 9424   4.480   1.221   8.397  0.9276  0.9228  0.5983
   95SAPS  H20S 9425   4.395   1.238   8.248  0.0287  1.3693 -2.8711
   95SAPS  H20T 9426   4.506   1.367   8.295 -0.7894 -0.2895  0.9379
   95SAPS   C33 9427   4.912   1.483   7.023  0.2458 -0.0377 -0.3083
   95SAPS   H3X 9428   5.002   1.538   7.058  0.9790 -1.5638  0.2954
   95SAPS   H3Y 9429   4.969   1.396   6.984 -0.8344 -0.6775 -0.4783
   95SAPS   C34 9430   4.828   1.430   7.144 -0.1530 -0.5951  0.7008
   95SAPS   H4X 9431   4.896   1.388   7.221 -0.3312  1.6656  2.1661
   95SAPS   H4Y 9432   4.755   1.362   7.095  0.1582  1.4032 -2.8453
   95SAPS   C35 9433   4.759   1.541   7.230 -0.0473 -0.5534 -0.3781
   95SAPS   H5X 9434   4.722   1.490   7.322  3.3790 -1.4555  0.6200
   95SAPS   H5Y 9435   4.673   1.579   7.171  0.0876  0.0586 -0.1850
   95SAPS   C36 9436   4.843   1.663   7.276  0.0336  0.3133  0.2672
   95SAPS   H6X 9437   4.865   1.717   7.181 -1.7453  0.4784 -0.0857
   95SAPS   H6Y 9438   4.940   1.637   7.324  0.0822  0.1606  0.0846
   95SAPS   C37 9439   4.763   1.746   7.377 -0.2049  0.4463 -0.6892
   95SAPS   H7X 9440   4.656   1.744   7.350 -1.0339 -0.5039  2.3489
   95SAPS   H7Y 9441   4.805   1.850   7.382 -0.9661  0.7338 -0.2159
   95SAPS   C38 9442   4.790   1.687   7.523  0.8507  0.5540 -0.3155
   95SAPS   H8X 9443   4.892   1.720   7.554  0.5154  0.9184  0.4334
   95SAPS   H8Y 9444   4.791   1.577   7.516 -2.3216  0.4084  0.3491
   95SAPS   C39 9445   4.695   1.739   7.631  0.7912 -0.1703  0.4602
   95SAPS   H9X 9446   4.598   1.717   7.583  0.1128  0.8826  1.3290
   95SAPS   H9Y 9447   4.719   1.847   7.643  1.3642 -0.0396 -1.5332
   95SAPS  C310 9448   4.711   1.680   7.766  0.2714 -0.3506 -0.7860
   95SAPS  H10X 9449   4.813   1.694   7.808 -0.3163  0.1916  0.5063
   95SAPS  H10Y 9450   4.687   1.572   7.767  1.0660 -0.5491  1.0691
   95SAPS  C311 9451   4.617   1.745   7.878  0.2883  0.1687 -1.2419
   95SAPS  H11X 9452   4.512   1.721   7.853  0.4304 -1.9607  0.0134
   95SAPS  H11Y 9453   4.628   1.856   7.875 -0.4687  0.3117  0.4009
   95SAPS  C312 9454   4.641   1.687   8.014  0.7085  0.4539 -0.5081
   95SAPS  H12X 9455   4.747   1.697   8.045  0.2796 -1.3323  1.8495
   95SAPS  H12Y 9456   4.631   1.577   8.001 -0.2036  0.3486  0.8701
   95SAPS  C313 9457   4.553   1.739   8.125  0.1193  0.2085 -0.2719
   95SAPS  H13X 9458   4.445   1.716   8.109  0.6114 -0.8475 -2.4809
   95SAPS  H13Y 9459   4.568   1.849   8.124 -2.5570  0.7553  2.8617
   95SAPS  C314 9460   4.592   1.689   8.260 -0.1156  0.2332 -0.1356
   95SAPS  H14X 9461   4.698   1.721   8.262 -0.3586  1.2193 -1.7149
   95SAPS  H14Y 9462   4.596   1.580   8.281 -0.0773  0.1234 -0.7018
   95SAPS  C315 9463   4.508   1.761   8.362  0.3772 -0.0041 -0.4342
   95SAPS  H15X 9464   4.404   1.722   8.355  0.3688 -0.4889  1.8201
   95SAPS  H15Y 9465   4.512   1.870   8.346 -0.1026 -0.3027 -3.0761
   95SAPS  C316 9466   4.551   1.737   8.498  0.4246  0.9022 -0.9712
   95SAPS  H16X 9467   4.662   1.740   8.492  0.5932  2.5178  1.6865
   95SAPS  H16Y 9468   4.529   1.636   8.538  1.5986  1.3105  0.8457
   95SAPS  C317 9469   4.493   1.840   8.599 -0.6845 -0.0540  0.5144
   95SAPS  H17X 9470   4.382   1.837   8.599 -0.6663 -0.9505  0.8352
   95SAPS  H17Y 9471   4.528   1.943   8.574  2.6341 -0.7699  1.6704
   95SAPS  C318 9472   4.538   1.809   8.740 -0.0294 -0.7270  0.5362
   95SAPS  H18X 9473   4.493   1.889   8.804  1.2969 -0.0376  0.6332
   95SAPS  H18Y 9474   4.647   1.827   8.747 -0.1671  0.1670  0.6138
   95SAPS  H18Z 9475   4.508   1.708   8.774  0.9613 -0.6031  1.8747
   96SAPS     N 9476   5.387   2.837   6.166 -0.0660 -0.5777  0.3196
   96SAPS   HN1 9477   5.461   2.907   6.186  0.5798  0.0546 -3.4690
   96SAPS   HN2 9478   5.364   2.767   6.239 -1.0061 -0.8377 -0.2104
   96SAPS   HN3 9479   5.431   2.788   6.086 -2.0928 -1.2654 -0.4563
   96SAPS   C12 9480   5.272   2.910   6.105 -0.4596  0.8998 -0.0941
   96SAPS  H12A 9481   5.240   2.988   6.172 -0.6213  0.1377  0.7447
   96SAPS   C13 9482   5.307   2.973   5.964 -0.5039 -0.0650  0.8926
   96SAPS  O13A 9483   5.425   2.966   5.922  0.1282  0.7993  0.4020
   96SAPS  O13B 9484   5.218   3.028   5.888 -0.0162 -0.5425 -0.2554
   96SAPS   C11 9485   5.148   2.821   6.098  0.0073  0.7985  0.4877
   96SAPS  H11A 9486   5.175   2.726   6.046 -0.5737  0.5744  0.5917
   96SAPS  H11B 9487   5.072   2.872   6.034 -0.2046 -1.5719 -1.3018
   96SAPS     P 9488   5.029   2.890   6.321  0.2853  0.6087 -0.1202
   96SAPS   O13 9489   4.985   3.011   6.253  0.2000 -0.4811 -0.3199
   96SAPS   O14 9490   4.931   2.818   6.408 -0.6909 -1.3838 -0.4083
   96SAPS   O12 9491   5.090   2.782   6.214  0.6061 -0.3642  0.4088
   96SAPS   O11 9492   5.160   2.932   6.395  0.4071 -0.2305  0.7171
   96SAPS    C1 9493   5.237   2.846   6.477  0.4863  0.5922 -0.0558
   96SAPS    HA 9494   5.244   2.743   6.437  0.1346 -0.4067  2.2967
   96SAPS    HB 9495   5.337   2.891   6.496  0.2344  1.7337 -1.2416
   96SAPS    C2 9496   5.186   2.837   6.631 -0.0007  0.2655  0.6541
   96SAPS    HS 9497   5.076   2.817   6.626 -0.2600  1.7262  0.2483
   96SAPS   O21 9498   5.214   2.958   6.696 -0.2477 -0.3343 -0.0951
   96SAPS   C21 9499   5.126   3.003   6.789 -0.2629 -0.1774 -0.1485
   96SAPS   O22 9500   5.025   2.942   6.817 -0.0981 -0.2317 -0.2291
   96SAPS   C22 9501   5.171   3.143   6.833  0.1929  0.3026  0.9483
   96SAPS   H2R 9502   5.281   3.144   6.851  0.0268 -0.7364  2.1473
   96SAPS   H2S 9503   5.141   3.216   6.755  1.1386 -0.1311  0.1466
   96SAPS    C3 9504   5.261   2.733   6.704 -0.5648  0.4848 -0.2097
   96SAPS    HX 9505   5.370   2.757   6.706 -0.5594  1.0301 -3.2688
   96SAPS    HY 9506   5.256   2.640   6.645 -0.2790 -0.7757  1.6573
   96SAPS   O31 9507   5.220   2.716   6.838  0.0752 -0.1186 -0.2786
   96SAPS   C31 9508   5.137   2.610   6.867 -0.2337 -0.2368 -0.3939
   96SAPS   O32 9509   5.090   2.535   6.783 -0.3450  0.3720  0.6197
   96SAPS   C32 9510   5.101   2.618   7.009 -0.1541 -0.3120 -0.3322
   96SAPS   H2X 9511   5.038   2.528   7.027  0.6614 -0.4887  2.0177
   96SAPS   H2Y 9512   5.039   2.708   7.030 -1.4059 -1.0501 -0.7329
   96SAPS   C23 9513   5.105   3.183   6.966 -0.2198  0.1043 -0.2731
   96SAPS   H3R 9514   4.995   3.187   6.955 -0.6082 -1.1838  2.2759
   96SAPS   H3S 9515   5.127   3.290   6.989 -1.7243  0.4765 -0.4333
   96SAPS   C24 9516   5.136   3.092   7.089 -0.4792  0.9941 -0.0737
   96SAPS   H4R 9517   5.091   2.991   7.080  0.4184  0.5771 -0.0060
   96SAPS   H4S 9518   5.074   3.136   7.170  0.5034 -1.4023  2.1196
   96SAPS   C25 9519   5.286   3.092   7.119  0.2361  1.0431 -0.0091
   96SAPS   H5R 9520   5.351   3.027   7.059 -0.4944  1.8110 -1.7080
   96SAPS   C26 9521   5.335   3.155   7.224  0.5482 -0.2070  0.1510
   96SAPS   H6R 9522   5.444   3.151   7.237  0.4776 -1.3541  0.4364
   96SAPS   C27 9523   5.256   3.245   7.316 -0.6594 -0.1583 -0.2711
   96SAPS   H7R 9524   5.177   3.304   7.264 -1.8715 -1.0380  0.4983
   96SAPS   H7S 9525   5.324   3.312   7.372 -1.3179  0.9872 -0.8011
   96SAPS   C28 9526   5.173   3.174   7.420 -0.4920  0.4275 -0.2769
   96SAPS   H8R 9527   5.139   3.075   7.384 -1.7807  1.1302 -1.0720
   96SAPS   C29 9528   5.135   3.230   7.536 -0.0168 -0.0211 -0.2654
   96SAPS   H9R 9529   5.069   3.170   7.600 -1.6967  0.4982 -1.4350
   96SAPS  C210 9530   5.159   3.374   7.587  0.6402  1.1290 -0.4851
   96SAPS  H10R 9531   5.072   3.435   7.554  0.6748  2.3380  1.5028
   96SAPS  H10S 9532   5.259   3.411   7.556  1.6185 -0.9005  0.0387
   96SAPS  C211 9533   5.160   3.380   7.736 -0.3125 -0.0355 -0.3365
   96SAPS  H11R 9534   5.084   3.316   7.783  0.2714 -1.2582 -0.9953
   96SAPS  C212 9535   5.226   3.476   7.814 -0.1038 -0.5216 -0.4078
   96SAPS  H12R 9536   5.193   3.486   7.918 -2.3799  0.5144 -1.1615
   96SAPS  C213 9537   5.314   3.589   7.770 -0.1463 -0.2718  0.1606
   96SAPS  H13R 9538   5.276   3.679   7.821 -0.4282 -0.4046  0.1852
   96SAPS  H13S 9539   5.303   3.618   7.663  1.7010  0.5107  0.1410
   96SAPS  C214 9540   5.456   3.560   7.808  0.3910 -0.0604  0.2233
   96SAPS  H14R 9541   5.499   3.469   7.762  0.7072  0.2964 -0.1956
   96SAPS  C215 9542   5.534   3.635   7.891  0.3865  0.3998 -0.3419
   96SAPS  H15R 9543   5.633   3.597   7.918 -0.3780 -0.2036  1.7997
   96SAPS  C216 9544   5.507   3.756   7.969 -0.2649  0.1629  0.0410
   96SAPS  H16R 9545   5.413   3.811   7.953 -0.2380  0.2291  0.1151
   96SAPS  H16S 9546   5.586   3.832   7.947 -0.6002  0.1817 -1.1625
   96SAPS  C217 9547   5.516   3.718   8.120 -0.1650  0.5272 -0.3315
   96SAPS  H17R 9548   5.511   3.812   8.179 -1.3955 -0.0925  0.6082
   96SAPS  H17S 9549   5.605   3.655   8.143 -1.1235 -1.1473 -1.0150
   96SAPS  C218 9550   5.400   3.625   8.165  0.2775  0.3368  0.6410
   96SAPS  H18R 9551   5.414   3.585   8.267  0.8023 -0.5076  0.2530
   96SAPS  H18S 9552   5.412   3.537   8.098  0.8134 -0.4849  1.7891
   96SAPS  C219 9553   5.261   3.688   8.157  0.9894  0.6583 -0.0155
   96SAPS  H19R 9554   5.231   3.708   8.052 -0.4424 -1.1022  0.0175
   96SAPS  H19S 9555   5.260   3.788   8.205 -1.8325  0.7420 -0.0640
   96SAPS  C220 9556   5.146   3.615   8.235  0.2756 -0.0575  0.2722
   96SAPS  H20R 9557   5.181   3.596   8.338 -1.0022 -2.3947  0.3459
   96SAPS  H20S 9558   5.117   3.529   8.171  0.6237  0.5448 -0.7158
   96SAPS  H20T 9559   5.057   3.680   8.244 -0.6930 -1.3760  0.5472
   96SAPS   C33 9560   5.216   2.631   7.117  0.0826 -0.6058  0.5262
   96SAPS   H3X 9561   5.272   2.721   7.084 -0.0703 -0.7902 -0.2360
   96SAPS   H3Y 9562   5.279   2.539   7.115 -0.6895 -1.1400  0.4786
   96SAPS   C34 9563   5.166   2.645   7.257 -0.4821  0.3943  0.6708
   96SAPS   H4X 9564   5.085   2.571   7.269 -0.5449  0.2673 -0.4653
   96SAPS   H4Y 9565   5.118   2.744   7.272 -0.8159  0.4849 -0.8364
   96SAPS   C35 9566   5.276   2.626   7.363  0.3461  1.1481 -0.1258
   96SAPS   H5X 9567   5.333   2.532   7.346  0.7819  0.8185  2.6008
   96SAPS   H5Y 9568   5.228   2.625   7.464  2.4058  1.5157  0.9165
   96SAPS   C36 9569   5.380   2.738   7.374 -0.3432 -0.2876  0.2773
   96SAPS   H6X 9570   5.342   2.842   7.385 -0.6408  0.1959 -3.7328
   96SAPS   H6Y 9571   5.439   2.743   7.280 -1.5483 -4.6521 -0.9483
   96SAPS   C37 9572   5.482   2.721   7.488 -0.3345  0.3530  0.4665
   96SAPS   H7X 9573   5.424   2.734   7.581 -2.8058  1.4114 -1.1259
   96SAPS   H7Y 9574   5.546   2.812   7.492  0.8187 -0.4490  0.9125
   96SAPS   C38 9575   5.571   2.598   7.494  0.2262 -0.7084  0.7214
   96SAPS   H8X 9576   5.678   2.624   7.509  0.7743 -2.0195 -0.6942
   96SAPS   H8Y 9577   5.592   2.532   7.407  0.3893 -0.7502  0.7922
   96SAPS   C39 9578   5.551   2.505   7.615 -0.5982  0.3166  0.0344
   96SAPS   H9X 9579   5.612   2.414   7.595 -0.9771 -0.1977  1.1280
   96SAPS   H9Y 9580   5.447   2.471   7.596 -0.2293 -1.2242  0.6294
   96SAPS  C310 9581   5.574   2.564   7.753  0.3289  0.3477 -0.6566
   96SAPS  H10X 9582   5.531   2.666   7.766 -0.4328 -0.0675  0.2611
   96SAPS  H10Y 9583   5.683   2.578   7.771  0.3706 -1.7788  1.2598
   96SAPS  C311 9584   5.509   2.474   7.858 -0.2077 -0.5024  0.2572
   96SAPS  H11X 9585   5.554   2.373   7.844  0.4462 -0.2090  0.2154
   96SAPS  H11Y 9586   5.400   2.456   7.850 -0.0296 -1.1863 -1.0414
   96SAPS  C312 9587   5.544   2.520   7.996 -0.2782  0.1629 -0.3833
   96SAPS  H12X 9588   5.646   2.563   7.994 -1.0305  2.2152  1.3475
   96SAPS  H12Y 9589   5.531   2.434   8.065 -0.5556 -0.8781 -1.7031
   96SAPS  C313 9590   5.447   2.638   8.051 -0.4517  0.7763 -0.6220
   96SAPS  H13X 9591   5.341   2.630   8.020 -1.0899  1.1745  1.3237
   96SAPS  H13Y 9592   5.497   2.726   8.005 -0.1278  1.5458  1.1566
   96SAPS  C314 9593   5.449   2.655   8.208  0.2634 -0.0988 -0.1182
   96SAPS  H14X 9594   5.402   2.561   8.244  0.6005 -0.2565 -0.0882
   96SAPS  H14Y 9595   5.377   2.737   8.229 -0.5321 -0.8841  0.3272
   96SAPS  C315 9596   5.583   2.680   8.283  0.0229 -0.6824 -0.7530
   96SAPS  H15X 9597   5.640   2.733   8.204  0.7214  1.7105  1.2601
   96SAPS  H15Y 9598   5.639   2.586   8.308  3.1311  1.0143 -0.8067
   96SAPS  C316 9599   5.575   2.776   8.402 -0.0940 -0.2923 -0.2750
   96SAPS  H16X 9600   5.565   2.882   8.371  2.7900  0.1232 -0.0296
   96SAPS  H16Y 9601   5.677   2.772   8.446  0.0627 -0.1733 -0.6278
   96SAPS  C317 9602   5.491   2.733   8.516  0.2806  0.2911 -0.3946
   96SAPS  H17X 9603   5.498   2.622   8.520  2.8829  0.3652 -0.7929
   96SAPS  H17Y 9604   5.386   2.767   8.504  0.6758  1.9194  0.3927
   96SAPS  C318 9605   5.539   2.794   8.654 -0.5268  0.6169 -0.0674
   96SAPS  H18X 9606   5.481   2.748   8.737 -0.4019 -2.0488 -1.3464
   96SAPS  H18Y 9607   5.520   2.902   8.641  2.3435  1.6135  2.6487
   96SAPS  H18Z 9608   5.647   2.769   8.669 -0.6474  0.1588  0.0505
   97SAPS     N 9609   4.806   0.566   6.205  0.9714  0.3608 -0.1228
   97SAPS   HN1 9610   4.899   0.547   6.162  0.6874  0.9871 -1.0422
   97SAPS   HN2 9611   4.778   0.666   6.200  1.4132  0.4129 -2.6599
   97SAPS   HN3 9612   4.820   0.536   6.304 -2.2238 -3.2101 -0.5073
   97SAPS   C12 9613   4.706   0.464   6.154 -0.2496 -0.2720 -0.8426
   97SAPS  H12A 9614   4.613   0.480   6.206  1.7174  0.0248  2.9707
   97SAPS   C13 9615   4.670   0.480   6.008 -0.3046 -0.0897  0.6709
   97SAPS  O13A 9616   4.746   0.544   5.925 -0.6870  0.8720 -0.8470
   97SAPS  O13B 9617   4.590   0.387   5.965 -0.0426 -0.4261  0.4258
   97SAPS   C11 9618   4.758   0.320   6.198 -0.0675 -0.8912  0.4602
   97SAPS  H11A 9619   4.853   0.303   6.142 -1.4848 -2.6096 -1.5282
   97SAPS  H11B 9620   4.681   0.248   6.164  0.2735 -1.3202  0.5882
   97SAPS     P 9621   4.827   0.196   6.414  0.0624  0.1937 -0.5818
   97SAPS   O13 9622   4.805   0.078   6.334  0.1926  0.0820 -0.1134
   97SAPS   O14 9623   4.965   0.226   6.450 -0.8812  0.4373 -0.0379
   97SAPS   O12 9624   4.775   0.324   6.340  0.3779  0.5439 -0.0985
   97SAPS   O11 9625   4.735   0.188   6.546  0.2669  0.9748 -0.9071
   97SAPS    C1 9626   4.596   0.234   6.539  0.5430 -0.7875  0.0614
   97SAPS    HA 9627   4.579   0.341   6.561 -4.1529 -1.3203  0.1040
   97SAPS    HB 9628   4.546   0.225   6.440  0.3202  0.4940  0.0432
   97SAPS    C2 9629   4.497   0.157   6.628 -0.4433  0.4301  0.2599
   97SAPS    HS 9630   4.401   0.209   6.646 -1.3034 -0.1666 -2.2467
   97SAPS   O21 9631   4.560   0.140   6.761 -0.1302  0.3409 -0.1763
   97SAPS   C21 9632   4.557   0.244   6.843  0.3196 -0.1595  0.3089
   97SAPS   O22 9633   4.506   0.354   6.811  0.2495  0.3671  0.5523
   97SAPS   C22 9634   4.616   0.215   6.978  0.6884 -0.3090 -0.0312
   97SAPS   H2R 9635   4.661   0.113   6.981 -0.3486 -0.7630  1.2877
   97SAPS   H2S 9636   4.697   0.288   6.999  1.8406 -0.8424 -2.3054
   97SAPS    C3 9637   4.458   0.023   6.567 -0.3839 -0.7611  0.2637
   97SAPS    HX 9638   4.553  -0.014   6.521  0.0479  1.9747 -1.2561
   97SAPS    HY 9639   4.382   0.031   6.486 -0.0932 -0.3760  0.0279
   97SAPS   O31 9640   4.415  -0.076   6.669  0.6051 -0.3539 -0.4751
   97SAPS   C31 9641   4.290  -0.053   6.719 -0.1140  0.2999 -0.5949
   97SAPS   O32 9642   4.227   0.051   6.697  0.1575  0.6900  0.1670
   97SAPS   C32 9643   4.245  -0.168   6.806 -0.5192  0.1049  0.1523
   97SAPS   H2X 9644   4.220  -0.119   6.902  0.4898  1.6558 -0.3318
   97SAPS   H2Y 9645   4.331  -0.234   6.831 -1.4869  0.1456  4.2847
   97SAPS   C23 9646   4.507   0.251   7.090 -0.7260  0.9033  0.1584
   97SAPS   H3R 9647   4.467   0.354   7.071 -1.0360  0.7897  0.1836
   97SAPS   H3S 9648   4.556   0.250   7.189 -0.8417 -2.5265  0.2737
   97SAPS   C24 9649   4.384   0.158   7.091  0.0556 -0.5750  0.1774
   97SAPS   H4R 9650   4.328   0.162   6.995 -0.0880 -2.6040  0.1334
   97SAPS   H4S 9651   4.314   0.185   7.173 -0.3543 -1.2309  0.0573
   97SAPS   C25 9652   4.435   0.016   7.120 -0.2306  0.1712 -0.0893
   97SAPS   H5R 9653   4.525  -0.012   7.064 -0.0784 -0.6033  0.5334
   97SAPS   C26 9654   4.387  -0.080   7.205  0.4162 -0.6436 -0.3232
   97SAPS   H6R 9655   4.438  -0.177   7.213 -0.0670 -1.0877 -2.0740
   97SAPS   C27 9656   4.266  -0.064   7.283  0.0919  0.1462 -0.1614
   97SAPS   H7R 9657   4.180  -0.023   7.225 -1.1273 -0.8898  0.8356
   97SAPS   H7S 9658   4.290   0.018   7.354 -0.5677  1.4911 -1.4215
   97SAPS   C28 9659   4.215  -0.187   7.360 -0.8110  0.8558 -0.2133
   97SAPS   H8R 9660   4.185  -0.271   7.296  0.3308 -0.4001  0.8342
   97SAPS   C29 9661   4.213  -0.209   7.495 -0.7062 -0.2232 -0.1342
   97SAPS   H9R 9662   4.162  -0.303   7.520 -0.1840 -0.3681  0.4128
   97SAPS  C210 9663   4.251  -0.116   7.607 -1.1944 -0.8968  1.3851
   97SAPS  H10R 9664   4.294  -0.022   7.567 -0.5247 -1.4436  0.7825
   97SAPS  H10S 9665   4.340  -0.159   7.657  1.1561  1.0223 -0.8565
   97SAPS  C211 9666   4.135  -0.074   7.700 -0.6093 -0.1546  0.1433
   97SAPS  H11R 9667   4.041  -0.045   7.651 -0.6986 -0.7267 -0.0265
   97SAPS  C212 9668   4.118  -0.098   7.827  0.8884  0.6480  0.1693
   97SAPS  H12R 9669   4.028  -0.055   7.874  0.5876 -0.0904  0.2810
   97SAPS  C213 9670   4.205  -0.168   7.933  0.2320  0.4984 -1.0154
   97SAPS  H13R 9671   4.220  -0.106   8.023  1.3730 -1.1094 -0.0478
   97SAPS  H13S 9672   4.308  -0.177   7.891  0.9672 -1.1011  0.9832
   97SAPS  C214 9673   4.156  -0.313   7.956 -0.0270  0.0392  0.8862
   97SAPS  H14R 9674   4.131  -0.365   7.863 -0.1260  1.1998  0.2347
   97SAPS  C215 9675   4.155  -0.379   8.073  0.2949 -0.6555 -0.6281
   97SAPS  H15R 9676   4.115  -0.482   8.077 -0.6026 -0.2784  1.2315
   97SAPS  C216 9677   4.197  -0.333   8.209 -0.3671 -0.1624  0.4784
   97SAPS  H16R 9678   4.246  -0.233   8.209 -0.2959 -0.1526  2.6584
   97SAPS  H16S 9679   4.281  -0.389   8.256  1.0714  1.8053  0.3832
   97SAPS  C217 9680   4.102  -0.323   8.329  0.0175  0.1513  0.0619
   97SAPS  H17R 9681   4.047  -0.226   8.321  2.4191  2.0114  3.3014
   97SAPS  H17S 9682   4.151  -0.311   8.428  0.8963  0.8907 -0.4481
   97SAPS  C218 9683   3.991  -0.428   8.328 -0.0244 -0.3341  0.8205
   97SAPS  H18R 9684   3.982  -0.483   8.232 -2.3724  0.8496  0.2896
   97SAPS  H18S 9685   3.896  -0.370   8.331  0.6755  0.8858  0.2641
   97SAPS  C219 9686   4.003  -0.530   8.436  0.7790 -0.4328 -0.2269
   97SAPS  H19R 9687   4.007  -0.478   8.533  1.4546  0.5895 -0.7824
   97SAPS  H19S 9688   4.103  -0.577   8.423  1.1848  0.7534 -1.7273
   97SAPS  C220 9689   3.893  -0.640   8.437 -0.0458  0.1742 -0.0717
   97SAPS  H20R 9690   3.921  -0.717   8.512  1.0322 -0.9811 -1.6008
   97SAPS  H20S 9691   3.884  -0.693   8.339  1.8215  2.2955 -1.4851
   97SAPS  H20T 9692   3.787  -0.615   8.459 -0.7601 -2.0135 -0.7144
   97SAPS   C33 9693   4.129  -0.251   6.739 -0.0557  0.0246 -0.4770
   97SAPS   H3X 9694   4.170  -0.323   6.664 -1.0250 -0.1770 -0.8235
   97SAPS   H3Y 9695   4.062  -0.183   6.684  1.1002  1.8180  0.2364
   97SAPS   C34 9696   4.046  -0.331   6.847 -0.0740 -0.0727 -0.1221
   97SAPS   H4X 9697   4.125  -0.390   6.897  1.6700 -1.5824 -4.1600
   97SAPS   H4Y 9698   3.984  -0.400   6.785 -0.3060  0.1735 -0.1650
   97SAPS   C35 9699   3.968  -0.256   6.948  0.3157 -0.4733 -0.2534
   97SAPS   H5X 9700   3.872  -0.218   6.908 -0.0055 -1.8577 -0.8486
   97SAPS   H5Y 9701   4.026  -0.169   6.987  0.2083 -1.1128  1.4301
   97SAPS   C36 9702   3.924  -0.351   7.061  0.1539  0.8559  0.6483
   97SAPS   H6X 9703   4.015  -0.382   7.116 -0.8310 -1.2041  1.2092
   97SAPS   H6Y 9704   3.885  -0.439   7.007 -0.4546  1.4098  0.1693
   97SAPS   C37 9705   3.816  -0.293   7.159 -0.5042 -0.9188  0.3751
   97SAPS   H7X 9706   3.717  -0.306   7.110 -0.6386 -1.9517  0.9021
   97SAPS   H7Y 9707   3.840  -0.184   7.159 -0.4732 -0.9235  0.6504
   97SAPS   C38 9708   3.813  -0.353   7.298  0.2044  0.1330 -0.2957
   97SAPS   H8X 9709   3.921  -0.371   7.317 -0.2336 -0.9350  1.2966
   97SAPS   H8Y 9710   3.776  -0.457   7.284 -5.8574  1.9077 -0.0071
   97SAPS   C39 9711   3.733  -0.276   7.409 -0.4745 -0.2909 -0.1477
   97SAPS   H9X 9712   3.624  -0.269   7.390 -0.4641  1.2223  0.1912
   97SAPS   H9Y 9713   3.781  -0.176   7.415 -0.6580 -0.2623  1.0274
   97SAPS  C310 9714   3.733  -0.342   7.543 -0.1027  0.5897 -0.3407
   97SAPS  H10X 9715   3.837  -0.378   7.557  0.2825  0.9527 -2.0201
   97SAPS  H10Y 9716   3.676  -0.437   7.544  1.9374 -0.7218  2.2760
   97SAPS  C311 9717   3.686  -0.247   7.662 -0.4700 -0.0270  0.5753
   97SAPS  H11X 9718   3.760  -0.166   7.646 -0.7356  0.4111  1.5140
   97SAPS  H11Y 9719   3.701  -0.306   7.755 -0.9092 -0.2008  0.5414
   97SAPS  C312 9720   3.541  -0.203   7.659 -0.8479 -0.5891  0.0653
   97SAPS  H12X 9721   3.488  -0.244   7.571 -0.5695  0.4943 -0.6257
   97SAPS  H12Y 9722   3.542  -0.093   7.645 -0.0889 -0.6937 -0.7506
   97SAPS  C313 9723   3.479  -0.245   7.799 -0.3959  0.5361 -0.5242
   97SAPS  H13X 9724   3.536  -0.194   7.880 -1.2749 -3.9936  3.3487
   97SAPS  H13Y 9725   3.489  -0.355   7.811 -0.3245  0.4388 -1.3836
   97SAPS  C314 9726   3.329  -0.223   7.805  0.2538  0.3433 -0.4561
   97SAPS  H14X 9727   3.309  -0.117   7.779  0.6074  0.7084  0.6897
   97SAPS  H14Y 9728   3.286  -0.245   7.905 -1.5460 -1.0612 -1.4858
   97SAPS  C315 9729   3.256  -0.329   7.718 -0.5170 -0.4850 -0.2239
   97SAPS  H15X 9730   3.332  -0.380   7.654  2.1008  0.8003  1.6648
   97SAPS  H15Y 9731   3.196  -0.260   7.656  2.8140  3.3779  0.4792
   97SAPS  C316 9732   3.167  -0.434   7.791  0.4837 -0.7119  0.0079
   97SAPS  H16X 9733   3.067  -0.395   7.820  0.2309 -0.5784 -1.0151
   97SAPS  H16Y 9734   3.229  -0.474   7.875  1.7878 -2.9447 -1.9018
   97SAPS  C317 9735   3.131  -0.546   7.697  0.1345  0.1086  0.3737
   97SAPS  H17X 9736   3.118  -0.500   7.597  0.7804  0.9550  0.6576
   97SAPS  H17Y 9737   3.033  -0.595   7.716  0.3964 -0.1555  1.0704
   97SAPS  C318 9738   3.229  -0.663   7.686  0.1016  0.5133 -0.4824
   97SAPS  H18X 9739   3.337  -0.639   7.692  1.1024 -3.1368 -1.3508
   97SAPS  H18Y 9740   3.209  -0.735   7.604 -1.3571  1.2199 -0.7824
   97SAPS  H18Z 9741   3.217  -0.725   7.778 -0.6127  1.5139  0.1252
   98SAPS     N 9742   1.993   0.961   6.082  0.3151  0.1219 -0.0455
   98SAPS   HN1 9743   2.004   0.911   5.991 -0.3919 -0.8350  0.3859
   98SAPS   HN2 9744   1.906   0.933   6.130  1.0094 -1.9043  0.1032
   98SAPS   HN3 9745   1.997   1.064   6.068 -0.4084  0.1224 -0.2559
   98SAPS   C12 9746   2.109   0.909   6.156 -0.5679  0.6106  0.3551
   98SAPS  H12A 9747   2.094   0.933   6.260 -0.9245  3.9470 -0.3627
   98SAPS   C13 9748   2.130   0.759   6.157  0.1011  0.6324 -0.1119
   98SAPS  O13A 9749   2.055   0.674   6.095  0.3255 -0.4525  0.4408
   98SAPS  O13B 9750   2.218   0.711   6.237  0.1190  0.4776 -0.1443
   98SAPS   C11 9751   2.234   0.983   6.099  0.3613 -0.0972 -0.0501
   98SAPS  H11A 9752   2.239   0.959   5.991 -1.7104 -1.8232  0.1670
   98SAPS  H11B 9753   2.321   0.947   6.159 -0.9739 -3.8554 -0.1261
   98SAPS     P 9754   2.326   1.232   6.095 -0.0579 -0.1370 -0.0377
   98SAPS   O13 9755   2.437   1.186   6.008  0.3976  0.2071  0.5578
   98SAPS   O14 9756   2.263   1.354   6.054 -0.3102 -0.1444 -0.1458
   98SAPS   O12 9757   2.217   1.119   6.122 -0.0408 -0.6101 -0.1009
   98SAPS   O11 9758   2.398   1.251   6.232  0.3894 -0.0523  0.4126
   98SAPS    C1 9759   2.323   1.291   6.349 -0.6607  0.8003  0.1919
   98SAPS    HA 9760   2.372   1.373   6.406  4.1626 -0.2665 -1.9475
   98SAPS    HB 9761   2.220   1.325   6.328 -0.8931  0.0102  0.0010
   98SAPS    C2 9762   2.299   1.170   6.442 -0.5346 -0.7134 -0.3107
   98SAPS    HS 9763   2.241   1.102   6.377 -5.1673 -0.3903  3.0000
   98SAPS   O21 9764   2.221   1.209   6.555  0.3157 -0.1445 -0.1926
   98SAPS   C21 9765   2.135   1.123   6.605  0.3199  0.1229 -0.8423
   98SAPS   O22 9766   2.128   1.006   6.576 -0.0221  0.0505 -0.2784
   98SAPS   C22 9767   2.033   1.196   6.689  0.0252 -0.5403  0.7567
   98SAPS   H2R 9768   2.089   1.250   6.768  1.7883  0.8258 -1.2784
   98SAPS   H2S 9769   1.992   1.275   6.622 -0.6734 -0.8766  0.7807
   98SAPS    C3 9770   2.434   1.107   6.494  0.1868  0.3437 -0.3531
   98SAPS    HX 9771   2.490   1.188   6.545  0.3942  0.6868 -1.1097
   98SAPS    HY 9772   2.499   1.079   6.408 -1.8347  1.2347 -2.2579
   98SAPS   O31 9773   2.409   0.987   6.574  0.3315  0.4174 -0.1565
   98SAPS   C31 9774   2.499   0.942   6.647 -0.9983 -0.5384  1.2470
   98SAPS   O32 9775   2.609   0.995   6.675 -0.0793  0.8931  0.2276
   98SAPS   C32 9776   2.447   0.824   6.719  0.6044  0.1225  0.3742
   98SAPS   H2X 9777   2.400   0.756   6.644 -1.6176 -0.2826  2.0432
   98SAPS   H2Y 9778   2.377   0.854   6.799 -0.0667 -0.9500  0.2061
   98SAPS   C23 9779   1.915   1.118   6.745 -0.6132  0.3913  0.7344
   98SAPS   H3R 9780   1.890   1.019   6.701 -1.7908 -0.0991  2.4448
   98SAPS   H3S 9781   1.821   1.174   6.724 -0.0541  1.1891  0.3042
   98SAPS   C24 9782   1.925   1.106   6.899 -0.3306 -0.1495 -1.1898
   98SAPS   H4R 9783   1.830   1.064   6.938 -0.0482  1.8452  1.9480
   98SAPS   H4S 9784   1.931   1.204   6.952  0.1132 -0.0161 -1.4746
   98SAPS   C25 9785   2.041   1.014   6.945  0.3986  0.3158  0.2260
   98SAPS   H5R 9786   2.051   0.921   6.886  0.6471  0.0209  0.7288
   98SAPS   C26 9787   2.130   1.038   7.043 -0.3886 -0.3805  0.7698
   98SAPS   H6R 9788   2.213   0.966   7.040  0.6664  0.7944 -1.9630
   98SAPS   C27 9789   2.128   1.160   7.128  0.1313 -0.5717 -0.5783
   98SAPS   H7R 9790   2.026   1.178   7.170  0.6354 -0.2870  0.5824
   98SAPS   H7S 9791   2.148   1.251   7.067  1.0924 -0.2256  0.2097
   98SAPS   C28 9792   2.232   1.161   7.242  0.2211  0.3974  0.4722
   98SAPS   H8R 9793   2.308   1.082   7.232 -1.5462 -1.3485  0.1049
   98SAPS   C29 9794   2.234   1.253   7.338 -0.3218 -0.4817  0.6608
   98SAPS   H9R 9795   2.311   1.252   7.417 -0.6189 -1.3238  0.9595
   98SAPS  C210 9796   2.132   1.359   7.360 -0.2294 -0.0413 -0.4699
   98SAPS  H10R 9797   2.099   1.360   7.466 -1.5921  1.2312 -0.8779
   98SAPS  H10S 9798   2.039   1.343   7.303 -0.1380 -1.9517 -0.1628
   98SAPS  C211 9799   2.188   1.500   7.347 -0.7648  0.3243 -0.0771
   98SAPS  H11R 9800   2.246   1.527   7.436 -0.4167 -1.7700  0.3921
   98SAPS  C212 9801   2.199   1.581   7.232  0.4989 -0.0611 -0.2069
   98SAPS  H12R 9802   2.258   1.673   7.239 -0.6491  0.9831 -2.8759
   98SAPS  C213 9803   2.156   1.550   7.091 -0.5690 -0.1222 -0.3258
   98SAPS  H13R 9804   2.080   1.469   7.096 -0.3970 -0.3236 -0.9302
   98SAPS  H13S 9805   2.240   1.500   7.039 -0.2339  0.2455 -0.1390
   98SAPS  C214 9806   2.122   1.664   7.009  0.3962  0.3803  0.5566
   98SAPS  H14R 9807   2.190   1.684   6.925  0.0845 -2.7158 -0.5742
   98SAPS  C215 9808   2.018   1.752   7.020  0.3994  0.2095 -0.2019
   98SAPS  H15R 9809   2.011   1.847   6.966 -0.8543  0.5254  0.4563
   98SAPS  C216 9810   1.915   1.756   7.130  0.1870  0.8393  0.3418
   98SAPS  H16R 9811   1.926   1.667   7.195  1.7749  0.9344  0.2540
   98SAPS  H16S 9812   1.820   1.749   7.073 -0.6254  0.0098  1.7425
   98SAPS  C217 9813   1.909   1.885   7.216  0.1464 -0.1475  0.0039
   98SAPS  H17R 9814   1.823   1.883   7.286  0.0328  0.5163 -0.1083
   98SAPS  H17S 9815   1.906   1.977   7.153 -0.9680 -0.9526 -1.1575
   98SAPS  C218 9816   2.030   1.906   7.313 -0.0730 -0.1919 -0.0350
   98SAPS  H18R 9817   2.107   1.899   7.233 -2.3924  1.3733 -2.6135
   98SAPS  H18S 9818   2.042   1.819   7.380 -1.1314 -0.8438 -0.6610
   98SAPS  C219 9819   2.040   2.047   7.382  0.1854 -0.9504  0.4160
   98SAPS  H19R 9820   2.024   2.128   7.308  1.1261  0.2224  1.4393
   98SAPS  H19S 9821   2.147   2.057   7.413  0.2221  0.8797 -0.2253
   98SAPS  C220 9822   1.939   2.063   7.497  0.1031 -0.2814  0.8507
   98SAPS  H20R 9823   1.945   2.166   7.541 -0.1790  0.2661 -0.3512
   98SAPS  H20S 9824   1.971   1.993   7.577 -1.8939  0.2111  2.1585
   98SAPS  H20T 9825   1.836   2.043   7.460  0.4829  1.2467 -1.1897
   98SAPS   C33 9826   2.555   0.733   6.781 -0.4720  0.0983 -0.2014
   98SAPS   H3X 9827   2.606   0.803   6.849 -0.8372  0.5298 -0.3676
   98SAPS   H3Y 9828   2.626   0.685   6.711  0.1991  0.3348  0.3116
   98SAPS   C34 9829   2.482   0.616   6.860  0.1052 -0.3281 -0.1023
   98SAPS   H4X 9830   2.558   0.568   6.925  1.9435  0.1636 -1.7903
   98SAPS   H4Y 9831   2.443   0.546   6.783 -2.1959  1.0177 -0.2380
   98SAPS   C35 9832   2.356   0.651   6.942  0.0162  0.3211 -0.5237
   98SAPS   H5X 9833   2.323   0.551   6.978  2.0805 -1.2028 -2.5177
   98SAPS   H5Y 9834   2.265   0.686   6.889  0.7727  0.3725 -1.8570
   98SAPS   C36 9835   2.394   0.734   7.069  0.6323  0.2038 -0.0166
   98SAPS   H6X 9836   2.393   0.843   7.046 -1.7000  0.3860  0.6648
   98SAPS   H6Y 9837   2.500   0.714   7.095  0.7655 -0.8602 -1.2586
   98SAPS   C37 9838   2.289   0.713   7.180 -0.1538 -0.1710 -0.3848
   98SAPS   H7X 9839   2.289   0.607   7.214 -1.1724 -1.2578 -3.4736
   98SAPS   H7Y 9840   2.184   0.727   7.144 -0.0821 -1.9720 -1.4051
   98SAPS   C38 9841   2.310   0.787   7.304  0.3803  0.2025 -0.0399
   98SAPS   H8X 9842   2.223   0.749   7.361  0.2667 -0.6788 -0.7718
   98SAPS   H8Y 9843   2.290   0.895   7.287 -1.6243 -0.0521  0.4808
   98SAPS   C39 9844   2.441   0.751   7.375 -0.0228  0.0029  0.8124
   98SAPS   H9X 9845   2.529   0.800   7.328  0.0994 -0.1974  0.8322
   98SAPS   H9Y 9846   2.453   0.641   7.371  0.5085 -0.1540  4.0682
   98SAPS  C310 9847   2.449   0.800   7.515  0.5990 -0.0793  0.1781
   98SAPS  H10X 9848   2.409   0.903   7.517  0.8045  0.0103  2.2938
   98SAPS  H10Y 9849   2.557   0.809   7.538  1.1354  1.4393 -2.4832
   98SAPS  C311 9850   2.383   0.706   7.617 -0.3317  0.4407 -0.0210
   98SAPS  H11X 9851   2.439   0.611   7.613  2.2039  1.8648 -0.3049
   98SAPS  H11Y 9852   2.279   0.675   7.594 -0.0138 -1.8640  1.3897
   98SAPS  C312 9853   2.408   0.771   7.753 -0.4765 -0.1416  0.0842
   98SAPS  H12X 9854   2.341   0.859   7.753  0.9677  0.9887  1.0741
   98SAPS  H12Y 9855   2.517   0.792   7.757 -0.5164  0.1902 -0.5130
   98SAPS  C313 9856   2.368   0.690   7.883 -0.2953 -0.8083  0.2051
   98SAPS  H13X 9857   2.427   0.596   7.887  0.3036 -0.4535 -0.0819
   98SAPS  H13Y 9858   2.260   0.664   7.884  0.0407 -2.3398 -0.0149
   98SAPS  C314 9859   2.397   0.769   8.013 -0.0617 -0.3473 -0.0120
   98SAPS  H14X 9860   2.333   0.859   8.010  0.0145 -0.2847  0.2116
   98SAPS  H14Y 9861   2.501   0.803   8.027 -0.9167  1.6070  2.2193
   98SAPS  C315 9862   2.363   0.689   8.132  0.5788 -0.7507  0.7131
   98SAPS  H15X 9863   2.411   0.589   8.142 -0.0447 -1.1903 -0.4840
   98SAPS  H15Y 9864   2.256   0.665   8.111 -0.6043  3.9039  0.2532
   98SAPS  C316 9865   2.364   0.775   8.265  0.2412 -0.0921 -0.1115
   98SAPS  H16X 9866   2.297   0.862   8.250  0.3839  0.0766  0.2104
   98SAPS  H16Y 9867   2.468   0.812   8.279  0.7413 -0.9134 -1.4581
   98SAPS  C317 9868   2.318   0.692   8.390 -0.5093 -0.0292 -0.6246
   98SAPS  H17X 9869   2.375   0.598   8.398 -0.2692  0.0925 -0.8810
   98SAPS  H17Y 9870   2.209   0.672   8.384 -1.2120  1.0793  4.1542
   98SAPS  C318 9871   2.322   0.765   8.527 -0.1777 -0.1962  0.6734
   98SAPS  H18X 9872   2.249   0.849   8.528 -0.7393 -0.6668 -0.1798
   98SAPS  H18Y 9873   2.423   0.806   8.546 -0.5660  0.3835  1.5568
   98SAPS  H18Z 9874   2.299   0.690   8.606 -0.7726  0.1944  0.8797
   99SAPS     N 9875   2.756   5.954   6.203 -0.4453  0.8321 -0.3159
   99SAPS   HN1 9876   2.713   5.999   6.286 -2.9022  1.1132 -1.6301
   99SAPS   HN2 9877   2.698   5.995   6.127 -4.0576 -1.4174  0.9405
   99SAPS   HN3 9878   2.732   5.852   6.196 -0.1841  0.7432  0.0482
   99SAPS   C12 9879   2.896   5.989   6.187 -0.2037 -0.7980  0.5687
   99SAPS  H12A 9880   2.952   5.964   6.276  1.2852 -2.5587 -0.7510
   99SAPS   C13 9881   2.971   5.917   6.070 -0.4088 -0.5555 -0.0223
   99SAPS  O13A 9882   2.905   5.829   6.011  0.1156  0.3226 -0.2622
   99SAPS  O13B 9883   3.093   5.910   6.097  0.1279  0.1347 -0.5798
   99SAPS   C11 9884   2.904   6.137   6.159  0.0726 -0.2648 -0.1522
   99SAPS  H11A 9885   2.860   6.147   6.058 -1.0999  0.0784  0.3740
   99SAPS  H11B 9886   3.010   6.169   6.153  0.2862 -0.9743 -0.3407
   99SAPS     P 9887   2.855   6.374   6.258  0.2379  0.1182  0.1047
   99SAPS   O13 9888   2.937   6.425   6.145  0.2919 -0.2316  0.2634
   99SAPS   O14 9889   2.725   6.438   6.278 -0.7455 -0.5267 -0.1213
   99SAPS   O12 9890   2.834   6.216   6.253 -0.3867  0.1107 -0.2449
   99SAPS   O11 9891   2.938   6.390   6.386  0.5018  0.6276  0.0219
   99SAPS    C1 9892   3.067   6.338   6.397 -0.0313  0.1480  0.1751
   99SAPS    HA 9893   3.106   6.278   6.311 -0.4973 -1.6325  1.1600
   99SAPS    HB 9894   3.133   6.426   6.416 -1.9338  1.3497  1.5214
   99SAPS    C2 9895   3.063   6.244   6.516 -0.7565 -0.3666 -0.0726
   99SAPS    HS 9896   2.981   6.170   6.504  0.0119 -1.0632 -1.1941
   99SAPS   O21 9897   3.037   6.331   6.630 -0.8385  0.1160 -0.1328
   99SAPS   C21 9898   2.920   6.310   6.689 -0.0517 -0.2003  0.3919
   99SAPS   O22 9899   2.836   6.230   6.658 -0.4151  0.1619 -0.5454
   99SAPS   C22 9900   2.890   6.417   6.792 -0.1467 -0.1775  0.5417
   99SAPS   H2R 9901   2.906   6.520   6.753 -0.0195  0.7659  2.9237
   99SAPS   H2S 9902   2.782   6.418   6.817 -0.0099  1.5763  1.2443
   99SAPS    C3 9903   3.197   6.167   6.544  0.0863  0.1367 -0.9756
   99SAPS    HX 9904   3.283   6.236   6.533 -1.0179  1.3496 -2.3910
   99SAPS    HY 9905   3.199   6.085   6.468 -1.5503 -0.1328 -0.7623
   99SAPS   O31 9906   3.196   6.122   6.683 -0.2289  0.3994  0.0040
   99SAPS   C31 9907   3.234   6.003   6.713 -0.0637  0.8314  0.6780
   99SAPS   O32 9908   3.258   5.910   6.633 -0.4973 -0.3255  0.5241
   99SAPS   C32 9909   3.243   5.977   6.865 -0.3549 -0.0025  0.1954
   99SAPS   H2X 9910   3.156   5.909   6.879  0.0465 -1.1537 -2.3362
   99SAPS   H2Y 9911   3.220   6.072   6.918 -0.9682 -0.2407  0.3591
   99SAPS   C23 9912   2.978   6.408   6.916 -0.0259  0.2063 -0.6230
   99SAPS   H3R 9913   2.964   6.503   6.972  1.2646  0.2917 -0.4330
   99SAPS   H3S 9914   3.086   6.405   6.894  0.3294 -0.4413  1.0422
   99SAPS   C24 9915   2.950   6.285   7.006 -0.2208  0.4510  0.2894
   99SAPS   H4R 9916   2.989   6.202   6.943 -3.1594 -2.0533  1.5170
   99SAPS   H4S 9917   2.840   6.274   7.012 -0.5189  1.3652 -2.1280
   99SAPS   C25 9918   3.026   6.274   7.135 -0.0578 -0.0091 -0.8751
   99SAPS   H5R 9919   3.134   6.296   7.135  0.2070 -0.9521  1.7375
   99SAPS   C26 9920   2.968   6.227   7.249 -0.1028 -0.3009 -0.1192
   99SAPS   H6R 9921   3.035   6.225   7.337  1.2500  0.0841 -1.1083
   99SAPS   C27 9922   2.831   6.177   7.290  0.1438  0.3028  0.8861
   99SAPS   H7R 9923   2.835   6.136   7.394  2.7788  0.7636  1.0312
   99SAPS   H7S 9924   2.799   6.095   7.223 -1.0114 -0.0144  1.7948
   99SAPS   C28 9925   2.717   6.278   7.277  0.3966  0.1635  0.3306
   99SAPS   H8R 9926   2.707   6.334   7.182 -0.7858 -0.2531  0.1949
   99SAPS   C29 9927   2.622   6.300   7.373  0.6592  0.2232 -0.2213
   99SAPS   H9R 9928   2.542   6.370   7.345  2.4816  2.0192 -1.2336
   99SAPS  C210 9929   2.602   6.225   7.505  0.1675  0.3784 -0.7067
   99SAPS  H10R 9930   2.580   6.296   7.587 -1.2366  0.5925 -1.2352
   99SAPS  H10S 9931   2.705   6.188   7.528 -0.3016 -0.9777 -0.6807
   99SAPS  C211 9932   2.504   6.109   7.493  0.1727 -0.0747  0.2778
   99SAPS  H11R 9933   2.517   6.041   7.408  2.7240  0.2059  0.3782
   99SAPS  C212 9934   2.408   6.076   7.584 -0.3931  0.0214 -0.3525
   99SAPS  H12R 9935   2.345   5.987   7.572 -0.2549 -0.4673  2.1073
   99SAPS  C213 9936   2.374   6.146   7.707  0.1758 -0.6018 -0.0134
   99SAPS  H13R 9937   2.265   6.162   7.712 -0.2146 -3.0248  0.3688
   99SAPS  H13S 9938   2.433   6.240   7.710  1.9675 -1.6291 -1.1564
   99SAPS  C214 9939   2.402   6.071   7.832  0.1233 -0.0075  0.0271
   99SAPS  H14R 9940   2.448   5.972   7.821 -0.8262 -0.4808  0.1542
   99SAPS  C215 9941   2.408   6.129   7.954 -0.0121  0.3498 -0.4783
   99SAPS  H15R 9942   2.422   6.069   8.045  0.3050  0.9998 -0.0862
   99SAPS  C216 9943   2.376   6.273   7.979  0.6223  0.1703 -0.1283
   99SAPS  H16R 9944   2.267   6.285   7.964  0.8966  2.9045 -0.4695
   99SAPS  H16S 9945   2.431   6.339   7.908 -2.1552  0.0084 -2.6213
   99SAPS  C217 9946   2.396   6.317   8.127 -0.4563  0.9880  0.5367
   99SAPS  H17R 9947   2.507   6.312   8.127 -0.4720 -1.1993 -1.8692
   99SAPS  H17S 9948   2.359   6.247   8.204  1.7159 -0.6886  0.1528
   99SAPS  C218 9949   2.345   6.455   8.144 -0.2611  0.2421 -0.3929
   99SAPS  H18R 9950   2.234   6.449   8.148 -0.1881 -2.0302  2.1698
   99SAPS  H18S 9951   2.371   6.530   8.068 -0.2228  2.3856  1.6239
   99SAPS  C219 9952   2.383   6.514   8.285  0.0653 -0.7712  0.3131
   99SAPS  H19R 9953   2.492   6.503   8.302  0.1145  0.8491  1.2059
   99SAPS  H19S 9954   2.337   6.454   8.366  1.6565 -1.0324  1.0530
   99SAPS  C220 9955   2.334   6.665   8.301 -0.5484  0.1800  0.0256
   99SAPS  H20R 9956   2.365   6.728   8.215 -0.9399  0.2169 -0.0907
   99SAPS  H20S 9957   2.379   6.703   8.395  1.7335  1.9030 -1.6552
   99SAPS  H20T 9958   2.223   6.665   8.306 -0.7674  2.1805 -2.6165
   99SAPS   C33 9959   3.372   5.911   6.905 -0.7687 -0.2062 -0.3947
   99SAPS   H3X 9960   3.446   5.988   6.936 -1.6848  0.4260  0.2601
   99SAPS   H3Y 9961   3.408   5.834   6.834 -2.0569 -2.9987  1.7777
   99SAPS   C34 9962   3.335   5.825   7.031 -1.2108  0.3594 -0.1646
   99SAPS   H4X 9963   3.263   5.879   7.096  0.0356  2.1066 -0.1627
   99SAPS   H4Y 9964   3.426   5.795   7.089 -1.4932 -0.3511 -0.0688
   99SAPS   C35 9965   3.272   5.689   6.994  0.8955  0.0674 -0.5134
   99SAPS   H5X 9966   3.346   5.641   6.926  1.0012  1.5022 -1.4652
   99SAPS   H5Y 9967   3.184   5.695   6.927  0.4059  1.2574  0.2000
   99SAPS   C36 9968   3.253   5.588   7.117 -0.5000 -0.5245 -0.0872
   99SAPS   H6X 9969   3.210   5.639   7.206 -0.3952  2.7218 -1.7534
   99SAPS   H6Y 9970   3.349   5.536   7.139 -0.9670 -0.6080  2.0053
   99SAPS   C37 9971   3.150   5.476   7.090 -0.6841  0.7444  0.0813
   99SAPS   H7X 9972   3.209   5.388   7.055 -1.4812 -0.8969  2.5725
   99SAPS   H7Y 9973   3.072   5.496   7.014 -1.4961 -0.2716  0.6269
   99SAPS   C38 9974   3.077   5.428   7.215  0.4518  0.4512  0.0194
   99SAPS   H8X 9975   2.999   5.504   7.235  2.1342  1.7681  1.9849
   99SAPS   H8Y 9976   3.143   5.422   7.305 -0.1449 -3.3150  0.3730
   99SAPS   C39 9977   3.016   5.286   7.197 -0.0974  0.2069  0.2359
   99SAPS   H9X 9978   3.098   5.216   7.221 -0.8935 -1.9434 -2.7122
   99SAPS   H9Y 9979   2.988   5.268   7.091 -0.1843  0.5444  0.2010
   99SAPS  C310 9980   2.901   5.254   7.284  0.6148  0.3308 -0.1679
   99SAPS  H10X 9981   2.854   5.167   7.234  0.2543  1.9131 -2.7654
   99SAPS  H10Y 9982   2.821   5.331   7.277 -0.4723 -0.7369  0.3034
   99SAPS  C311 9983   2.934   5.230   7.431  0.0657  0.1009 -0.2009
   99SAPS  H11X 9984   2.994   5.312   7.475  0.6008 -0.2943 -0.1934
   99SAPS  H11Y 9985   3.003   5.144   7.442  0.6969  0.6824  0.4449
   99SAPS  C312 9986   2.807   5.194   7.516  0.1879  0.4042  0.5169
   99SAPS  H12X 9987   2.827   5.127   7.603  0.4654 -1.6024 -1.0053
   99SAPS  H12Y 9988   2.747   5.137   7.442 -1.9529  2.3013  0.7007
   99SAPS  C313 9989   2.735   5.315   7.582  0.0960  0.6410 -0.1370
   99SAPS  H13X 9990   2.642   5.285   7.635  0.6335  0.6066  0.8125
   99SAPS  H13Y 9991   2.715   5.387   7.500  0.9349 -0.6574 -1.5133
   99SAPS  C314 9992   2.818   5.394   7.689 -0.1758 -0.4930 -0.0586
   99SAPS  H14X 9993   2.763   5.487   7.717  2.6546  0.4900  2.9709
   99SAPS  H14Y 9994   2.918   5.429   7.656  0.6453 -0.7413  2.0208
   99SAPS  C315 9995   2.834   5.314   7.824 -0.0197  1.0109 -0.4077
   99SAPS  H15X 9996   2.764   5.229   7.831  2.2407 -0.8387  1.7094
   99SAPS  H15Y 9997   2.802   5.382   7.906 -1.4897 -2.4574  2.1611
   99SAPS  C316 9998   2.970   5.248   7.846 -0.6963 -0.7857  0.1466
   99SAPS  H16X 9999   3.044   5.328   7.869 -2.7314  2.0619 -2.3982
   99SAPS  H16Y10000   3.003   5.198   7.753 -1.8832  0.2762 -0.8838
   99SAPS  C31710001   2.975   5.155   7.958  0.3272 -0.4828 -0.9208
   99SAPS  H17X10002   2.903   5.071   7.946 -0.1953 -0.4762  1.6173
   99SAPS  H17Y10003   2.943   5.221   8.042  1.0727  1.0981 -1.8223
   99SAPS  C31810004   3.117   5.107   7.985  0.8590  0.5972  0.3064
   99SAPS  H18X10005   3.186   5.195   7.982  3.6347 -1.4172  0.6516
   99SAPS  H18Y10006   3.149   5.038   7.904 -0.7352  0.7896 -0.5257
   99SAPS  H18Z10007   3.114   5.064   8.087  2.2135 -0.1080  0.0731
  100SAPS     N10008   5.582   2.381   6.011 -0.3982 -0.5116 -0.3072
  100SAPS   HN110009   5.568   2.398   5.909 -1.1882 -1.0110 -0.2931
  100SAPS   HN210010   5.626   2.288   6.023 -2.0228 -1.1620  0.9795
  100SAPS   HN310011   5.486   2.386   6.051 -0.9701 -0.4312 -1.6068
  100SAPS   C1210012   5.680   2.480   6.073 -0.2381  0.1617  0.3397
  100SAPS  H12A10013   5.777   2.468   6.026 -1.6202  1.6024 -3.2347
  100SAPS   C1310014   5.661   2.636   6.066 -0.4735  0.5318  0.3157
  100SAPS  O13A10015   5.557   2.684   6.015  0.0334 -0.6202  0.6060
  100SAPS  O13B10016   5.759   2.708   6.108  1.0349  0.5197  0.1228
  100SAPS   C1110017   5.702   2.432   6.221  0.1674 -0.2987 -0.1329
  100SAPS  H11A10018   5.608   2.458   6.275  1.0280  1.1491  0.7479
  100SAPS  H11B10019   5.780   2.494   6.271 -0.8197 -0.4817  1.7366
  100SAPS     P10020   5.875   2.239   6.227  0.2626  0.2489  0.1531
  100SAPS   O1310021   5.879   2.088   6.244 -0.3727  0.1560  0.4191
  100SAPS   O1410022   5.959   2.296   6.116 -0.3002  0.2999  0.1091
  100SAPS   O1210023   5.727   2.297   6.227 -0.6140  0.3155 -0.5676
  100SAPS   O1110024   5.922   2.308   6.360  0.1805 -0.5260 -0.7065
  100SAPS    C110025   5.834   2.295   6.474  0.1372 -0.2404  0.1110
  100SAPS    HA10026   5.749   2.367   6.475 -0.9889 -1.5286 -0.1782
  100SAPS    HB10027   5.787   2.194   6.475 -1.9855  0.6259 -2.0976
  100SAPS    C210028   5.907   2.292   6.611 -0.2049 -0.1900  0.2132
  100SAPS    HS10029   5.825   2.279   6.685 -1.9268 -1.5331 -1.8103
  100SAPS   O2110030   5.979   2.413   6.622  0.1019 -0.3440  0.2415
  100SAPS   C2110031   5.921   2.518   6.668  0.4375 -0.4220  0.3315
  100SAPS   O2210032   5.807   2.520   6.710  1.0202 -0.3035 -0.5178
  100SAPS   C2210033   6.004   2.639   6.668  0.3097  0.2822  0.5567
  100SAPS   H2R10034   6.068   2.663   6.579 -1.5529  3.5145 -0.0690
  100SAPS   H2S10035   5.942   2.731   6.676  2.4665  1.8764  0.1821
  100SAPS    C310036   6.019   2.177   6.612 -0.1604 -0.1848 -0.2809
  100SAPS    HX10037   6.099   2.218   6.546  2.2915 -0.1060  2.5295
  100SAPS    HY10038   5.970   2.087   6.568 -0.1068 -1.1456  1.5499
  100SAPS   O3110039   6.082   2.153   6.738  0.1279  0.0459 -0.0254
  100SAPS   C3110040   6.011   2.121   6.847  0.1905 -0.1371 -0.2229
  100SAPS   O3210041   5.888   2.100   6.848 -0.6615  0.6839  0.1670
  100SAPS   C3210042   6.108   2.106   6.966  0.5499  0.2013 -0.0823
  100SAPS   H2X10043   6.153   2.206   6.979 -1.1051  0.8422  1.0429
  100SAPS   H2Y10044   6.176   2.019   6.951  0.5648  0.3774 -1.0833
  100SAPS   C2310045   6.084   2.643   6.802 -0.4696 -0.8119  0.4848
  100SAPS   H3R10046   6.151   2.730   6.787 -1.4252  0.1739  1.6921
  100SAPS   H3S10047   6.155   2.558   6.804 -1.0048 -1.2592  0.7675
  100SAPS   C2410048   5.991   2.671   6.920  0.2113 -0.5565 -0.2350
  100SAPS   H4R10049   5.907   2.598   6.920 -0.6632  0.3993  1.7119
  100SAPS   H4S10050   5.956   2.776   6.915  1.8574  0.0345  0.0676
  100SAPS   C2510051   6.071   2.649   7.046  0.0868 -0.0592  0.9694
  100SAPS   H5R10052   6.135   2.735   7.070  1.3922 -0.3107 -1.3292
  100SAPS   C2610053   6.080   2.548   7.127 -0.1782 -0.0241  0.5370
  100SAPS   H6R10054   6.161   2.544   7.201 -1.3047  0.6331  1.8478
  100SAPS   C2710055   5.998   2.421   7.113  0.6446  0.3868 -0.6291
  100SAPS   H7R10056   6.074   2.343   7.133 -0.8939 -1.8526 -2.8381
  100SAPS   H7S10057   5.956   2.400   7.012 -1.8178 -0.5469  0.5020
  100SAPS   C2810058   5.882   2.413   7.214 -0.2540  0.2496 -0.3722
  100SAPS   H8R10059   5.780   2.439   7.184  0.1735  2.4965 -0.0867
  100SAPS   C2910060   5.903   2.400   7.351 -0.4982 -0.4657 -0.5589
  100SAPS   H9R10061   5.819   2.400   7.422 -1.7396 -0.4103 -1.9713
  100SAPS  C21010062   6.034   2.393   7.425  0.8192  0.2833 -0.1794
  100SAPS  H10R10063   6.115   2.367   7.354  0.1442 -3.0580  0.1257
  100SAPS  H10S10064   6.023   2.317   7.505 -2.4192  1.6217  0.8143
  100SAPS  C21110065   6.056   2.524   7.499 -0.2274 -0.1941 -0.5974
  100SAPS  H11R10066   6.120   2.596   7.444 -0.8597  1.5695  0.8753
  100SAPS  C21210067   6.013   2.560   7.625 -0.3473  0.4169  0.3177
  100SAPS  H12R10068   6.024   2.664   7.659 -1.0242  0.1685  1.3422
  100SAPS  C21310069   5.942   2.471   7.723 -0.3310  0.7647 -0.0964
  100SAPS  H13R10070   5.866   2.405   7.676  1.6666 -3.2558  1.8534
  100SAPS  H13S10071   5.885   2.544   7.785  1.6167  1.6116  0.7766
  100SAPS  C21410072   6.033   2.378   7.801 -0.3483  0.5700  0.2426
  100SAPS  H14R10073   6.100   2.315   7.740  0.5968  1.1106  0.6950
  100SAPS  C21510074   6.066   2.383   7.932  0.3660  0.3115  0.3540
  100SAPS  H15R10075   6.135   2.307   7.972 -0.4194 -0.6246 -0.0299
  100SAPS  C21610076   6.011   2.491   8.027 -0.4863 -0.0203 -0.1507
  100SAPS  H16R10077   5.998   2.447   8.128  0.3370  0.0162 -0.0218
  100SAPS  H16S10078   5.923   2.541   7.982 -0.5009 -0.3084 -0.4469
  100SAPS  C21710079   6.123   2.597   8.039 -0.2192 -0.5592 -0.1478
  100SAPS  H17R10080   6.129   2.662   7.949 -1.6721 -1.7076 -1.1182
  100SAPS  H17S10081   6.223   2.552   8.053 -0.2149 -1.6122 -2.9420
  100SAPS  C21810082   6.094   2.689   8.165  0.4510 -0.3000 -0.0514
  100SAPS  H18R10083   6.068   2.614   8.243  1.1734 -0.6829 -0.1725
  100SAPS  H18S10084   6.007   2.757   8.150 -0.2429 -1.3716 -1.1489
  100SAPS  C21910085   6.219   2.757   8.209 -0.1343 -0.9813 -0.6873
  100SAPS  H19R10086   6.265   2.817   8.128 -0.3021 -0.1900 -0.2027
  100SAPS  H19S10087   6.294   2.678   8.233  1.0383 -0.1198 -1.4301
  100SAPS  C22010088   6.193   2.839   8.340 -0.0907  0.5691  0.4808
  100SAPS  H20R10089   6.285   2.887   8.380  0.0837 -0.6708  1.6372
  100SAPS  H20S10090   6.163   2.764   8.416  0.0673  1.4114  1.3957
  100SAPS  H20T10091   6.110   2.911   8.325  0.5076  1.5506  1.7001
  100SAPS   C3310092   6.018   2.075   7.097  0.6779  0.3893 -0.3208
  100SAPS   H3X10093   5.947   1.994   7.067  1.4093  0.1514 -1.4822
  100SAPS   H3Y10094   5.959   2.167   7.116 -0.9367 -0.2932 -1.6936
  100SAPS   C3410095   6.105   2.046   7.220  0.3488  0.1227 -0.2955
  100SAPS   H4X10096   6.176   2.131   7.228 -0.3619  0.7267 -0.2902
  100SAPS   H4Y10097   6.161   1.952   7.201  2.2426  0.7771  1.5137
  100SAPS   C3510098   6.016   2.041   7.355 -0.0018 -0.2339  0.7423
  100SAPS   H5X10099   5.942   1.959   7.352 -1.3697  0.9647  0.8459
  100SAPS   H5Y10100   5.962   2.137   7.365  0.5143 -0.0805  2.2914
  100SAPS   C3610101   6.102   2.031   7.480  0.3387  0.2891  0.3496
  100SAPS   H6X10102   6.190   2.099   7.482 -2.2371  3.9015  1.4101
  100SAPS   H6Y10103   6.137   1.926   7.473  1.8825  0.8162 -0.4216
  100SAPS   C3710104   6.022   2.050   7.605  0.6733  0.1312 -0.1585
  100SAPS   H7X10105   5.934   1.983   7.616  1.2704 -0.3545  2.2675
  100SAPS   H7Y10106   5.973   2.148   7.589 -0.5318 -0.3433  0.4481
  100SAPS   C3810107   6.110   2.051   7.726 -0.2295 -0.5254  0.0003
  100SAPS   H8X10108   6.059   2.098   7.813 -4.8614 -2.6476 -1.2603
  100SAPS   H8Y10109   6.209   2.098   7.708 -0.6432  0.9747  1.4324
  100SAPS   C3910110   6.123   1.905   7.762 -0.2089 -0.4092  0.1429
  100SAPS   H9X10111   6.128   1.849   7.666  0.1944  1.0356 -0.6973
  100SAPS   H9Y10112   6.029   1.879   7.816 -0.7908  3.0350  0.9964
  100SAPS  C31010113   6.245   1.889   7.860  0.0229 -0.5589 -0.3270
  100SAPS  H10X10114   6.241   1.963   7.943  2.5597  1.0364 -1.4953
  100SAPS  H10Y10115   6.342   1.889   7.806  1.1754  0.7422  1.6193
  100SAPS  C31110116   6.249   1.754   7.933 -0.0818 -0.6260 -0.2589
  100SAPS  H11X10117   6.161   1.749   8.001  0.6394  2.5262  1.0836
  100SAPS  H11Y10118   6.332   1.747   8.006 -0.2805 -0.5148 -0.0195
  100SAPS  C31210119   6.243   1.633   7.837  0.6363 -0.4056 -0.1506
  100SAPS  H12X10120   6.326   1.640   7.763 -0.5647 -0.8932 -1.6153
  100SAPS  H12Y10121   6.148   1.640   7.780  0.5368 -2.2917 -0.2760
  100SAPS  C31310122   6.265   1.498   7.910  0.1260 -0.4237 -0.3535
  100SAPS  H13X10123   6.372   1.496   7.939  0.1652 -2.2279 -0.4935
  100SAPS  H13Y10124   6.258   1.411   7.841  0.9776 -2.3078  1.7932
  100SAPS  C31410125   6.177   1.471   8.026 -0.2609 -0.1519 -0.3685
  100SAPS  H14X10126   6.072   1.470   7.990 -1.0583 -1.2701  1.8030
  100SAPS  H14Y10127   6.180   1.555   8.099 -0.1955 -1.3810  1.1025
  100SAPS  C31510128   6.207   1.342   8.103 -0.2804  0.4411  1.1894
  100SAPS  H15X10129   6.312   1.336   8.139 -0.5449  0.3651  1.9605
  100SAPS  H15Y10130   6.186   1.255   8.037  0.2532 -0.2169  1.8655
  100SAPS  C31610131   6.124   1.309   8.231 -0.6056  0.4393  0.1591
  100SAPS  H16X10132   6.158   1.211   8.269 -3.0093 -0.7754 -0.5797
  100SAPS  H16Y10133   6.017   1.303   8.203 -0.4814 -2.5102 -0.0108
  100SAPS  C31710134   6.135   1.409   8.342  0.5893 -0.1374 -0.8793
  100SAPS  H17X10135   6.077   1.359   8.423  0.2086 -0.1603 -1.1646
  100SAPS  H17Y10136   6.077   1.498   8.310 -1.9193 -1.2129  0.3660
  100SAPS  C31810137   6.275   1.433   8.403  0.0010  0.0911  0.1395
  100SAPS  H18X10138   6.340   1.479   8.326  0.4133 -2.2214 -0.9623
  100SAPS  H18Y10139   6.316   1.336   8.437  1.8488  1.0805  0.8538
  100SAPS  H18Z10140   6.261   1.504   8.488  1.1340 -0.9472  1.2340
  101OSM      N10141   5.677   2.536  10.961  0.3724  0.3765  0.0820
  101OSM    C1510142   5.735   2.666  10.909 -0.2224  0.5408 -0.1294
  101OSM   H15A10143   5.671   2.751  10.930  0.5163  0.8245  1.0848
  101OSM   H15B10144   5.731   2.657  10.802 -1.0354  2.5107 -0.3235
  101OSM   H15C10145   5.839   2.684  10.928 -0.1167 -0.2446  0.0601
  101OSM    C1410146   5.777   2.434  10.918  0.2923  0.0809  0.7290
  101OSM   H14A10147   5.748   2.336  10.951  0.6438 -0.6082 -0.9038
  101OSM   H14B10148   5.873   2.452  10.965 -0.2805 -1.6841  2.7360
  101OSM   H14C10149   5.781   2.433  10.810 -4.1298 -1.5259  0.3896
  101OSM    C1310150   5.677   2.539  11.112 -0.0239 -0.5085 -0.3371
  101OSM   H13A10151   5.606   2.608  11.156 -2.3342 -3.0422  0.1272
  101OSM   H13B10152   5.774   2.565  11.152 -0.9974  1.6303  0.7863
  101OSM   H13C10153   5.643   2.444  11.148 -0.3888  0.0836  0.9444
  101OSM    C1210154   5.538   2.507  10.895  0.2810 -0.1845 -0.4535
  101OSM   H12A10155   5.472   2.576  10.945  0.2687 -0.9206  0.6009
  101OSM   H12B10156   5.502   2.408  10.922 -0.6411 -0.1837 -1.5830
  101OSM    C1110157   5.537   2.522  10.740  0.0578  0.5331 -0.0153
  101OSM   H11A10158   5.558   2.628  10.715  1.1758  0.0995 -1.0176
  101OSM   H11B10159   5.432   2.512  10.705 -0.0383 -1.7548  0.7304
  101OSM      P10160   5.561   2.284  10.648  0.2838 -0.3041  0.0494
  101OSM    O1310161   5.656   2.201  10.568  0.1102  0.3844 -0.1224
  101OSM    O1410162   5.513   2.226  10.772 -0.1885  0.0093 -0.1227
  101OSM    O1110163   5.438   2.323  10.566 -0.0256  0.4329  0.6464
  101OSM    O1210164   5.628   2.424  10.679  0.7078 -1.0348 -0.3182
  101OSM    C1S10165   5.428   2.396  10.439 -0.1309  0.3906 -0.0032
  101OSM    H1S10166   5.531   2.410  10.403 -0.6246 -2.9436 -3.3581
  101OSM    H1T10167   5.397   2.501  10.457 -1.8216  0.2138 -1.5905
  101OSM     NF10168   5.352   2.385  10.206 -0.0610  0.6311  0.1963
  101OSM    HNF10169   5.268   2.433  10.183  0.7703  1.4212 -1.3411
  101OSM    C2S10170   5.346   2.314  10.334  0.2635 -0.4354  0.0385
  101OSM    H2S10171   5.396   2.215  10.322 -0.1756 -0.6077 -0.4096
  101OSM    C3S10172   5.203   2.292  10.383 -0.0888  0.2076  0.8551
  101OSM    H3S10173   5.136   2.381  10.377  2.1463  1.8883 -1.0342
  101OSM     O310174   5.191   2.252  10.515  0.1620  0.0902  0.3338
  101OSM    HO310175   5.274   2.279  10.555  0.0470  0.2713  0.4511
  101OSM    C4S10176   5.143   2.191  10.294  0.6986 -0.2150  0.0322
  101OSM    H4S10177   5.076   2.239  10.222 -0.0757  0.2470  1.0227
  101OSM    C5S10178   5.152   2.058  10.304  0.5151  0.5825 -0.2007
  101OSM    H5S10179   5.214   2.013  10.383  1.6685  1.3099 -0.6667
  101OSM    C6S10180   5.083   1.969  10.207 -0.2793  1.0048 -0.1574
  101OSM    H6S10181   5.007   2.019  10.144 -2.4175 -0.9512  0.7369
  101OSM    H6T10182   5.035   1.894  10.273 -1.9040  1.4208 -0.8158
  101OSM    C7S10183   5.184   1.897  10.106 -0.2412 -0.4733  0.0674
  101OSM    H7S10184   5.257   1.829  10.156 -1.2167 -0.8006  1.0837
  101OSM    H7T10185   5.236   1.979  10.052 -3.3531  0.2927 -2.0071
  101OSM    C8S10186   5.110   1.813  10.006  0.0737 -0.1315  0.4067
  101OSM    H8S10187   5.036   1.888   9.971  0.6697  0.4430  0.3524
  101OSM    H8T10188   5.044   1.737  10.052  0.8192 -0.7211  0.5174
  101OSM    C9S10189   5.203   1.745   9.904 -0.2041  0.6252  0.7827
  101OSM    H9S10190   5.276   1.700   9.974  0.0052  1.6390  1.2327
  101OSM    H9T10191   5.263   1.824   9.853 -1.5210  1.7968  0.9852
  101OSM   C10S10192   5.141   1.641   9.808  0.1965 -0.3337  0.3039
  101OSM   H10S10193   5.031   1.634   9.818  0.1441  0.2530  0.1720
  101OSM   H10T10194   5.165   1.544   9.858 -0.2540 -0.3240  0.5394
  101OSM   C11S10195   5.208   1.641   9.671  0.8964  0.3030  0.6599
  101OSM   H11S10196   5.317   1.653   9.688  0.6799 -0.3422  2.7892
  101OSM   H11T10197   5.170   1.732   9.620  2.5271  0.1926 -0.8452
  101OSM   C12S10198   5.165   1.527   9.587 -0.8439 -0.1281 -0.4479
  101OSM   H12S10199   5.058   1.499   9.589 -0.4899 -1.5634  0.1852
  101OSM   H12T10200   5.220   1.437   9.624 -0.6247  0.6360  1.1545
  101OSM   C13S10201   5.212   1.541   9.440  0.3517  0.1302 -0.1005
  101OSM   H13S10202   5.320   1.516   9.447  0.2845  0.2489  2.3907
  101OSM   H13T10203   5.205   1.644   9.399 -0.0286 -0.1410 -0.7437
  101OSM   C14S10204   5.138   1.444   9.341  0.0188  0.2234 -0.8972
  101OSM   H14S10205   5.028   1.456   9.338  0.0528  0.4461 -1.3024
  101OSM   H14T10206   5.152   1.343   9.385 -2.2393 -0.4676 -1.6050
  101OSM   C15S10207   5.202   1.450   9.199 -0.6165 -0.5800 -0.3687
  101OSM   H15S10208   5.312   1.435   9.205 -0.1415  2.6853  0.9732
  101OSM   H15T10209   5.189   1.554   9.162  2.1220  0.2900  0.8676
  101OSM   C16S10210   5.140   1.340   9.105  0.7859 -0.1217  0.1120
  101OSM   H16S10211   5.030   1.356   9.102  0.4536 -2.1148  0.3011
  101OSM   H16T10212   5.139   1.240   9.154  1.7132 -0.4965 -0.6131
  101OSM   C17S10213   5.189   1.347   8.967  0.6720 -0.0084  0.1397
  101OSM   H17S10214   5.300   1.340   8.977  0.4838 -0.7331  2.1828
  101OSM   H17T10215   5.167   1.448   8.927  0.0840  0.2144  1.0056
  101OSM   C18S10216   5.145   1.229   8.886  0.1969 -0.0778  0.0449
  101OSM   H18S10217   5.185   1.137   8.935 -0.9471 -0.8946 -0.4891
  101OSM   H18T10218   5.197   1.238   8.788  0.1504 -2.1502 -0.2208
  101OSM   H18U10219   5.035   1.218   8.876  0.1114  1.2351 -0.5669
  101OSM    C1F10220   5.464   2.388  10.129  0.3179 -0.0269  0.7961
  101OSM     OF10221   5.550   2.310  10.159 -0.2053  0.0595 -0.5169
  101OSM    C2F10222   5.471   2.492  10.013 -0.4030 -0.7576  0.7962
  101OSM    H2F10223   5.556   2.553  10.050 -1.4542  0.8554  0.5961
  101OSM    H2G10224   5.384   2.560  10.011  0.8639  0.9800  2.2034
  101OSM    C3F10225   5.520   2.427   9.881 -0.3086 -0.0625 -0.1608
  101OSM    H3F10226   5.426   2.373   9.855 -0.0821 -0.4977 -0.0905
  101OSM    H3G10227   5.589   2.342   9.898 -2.7077 -2.4970 -1.6293
  101OSM    C4F10228   5.565   2.527   9.773  0.0491 -0.2877  0.0746
  101OSM    H4F10229   5.663   2.569   9.805 -1.6986  2.5542  2.1903
  101OSM    H4G10230   5.493   2.611   9.771  1.9309  1.4364  1.1464
  101OSM    C5F10231   5.552   2.468   9.634  0.2383 -0.2561 -0.2333
  101OSM    H5F10232   5.587   2.556   9.576  3.1250  0.5110  2.4197
  101OSM    H5G10233   5.448   2.439   9.609 -0.0387  0.1458  0.4521
  101OSM    C6F10234   5.652   2.355   9.594 -0.0297 -0.0386 -0.5541
  101OSM    H6F10235   5.608   2.264   9.642 -2.4075  0.9459 -0.7381
  101OSM    H6G10236   5.754   2.382   9.626 -0.6430  0.9864  0.6128
  101OSM    C7F10237   5.655   2.316   9.445 -0.2123 -0.1781 -0.1729
  101OSM    H7F10238   5.556   2.351   9.410  0.1163  0.7687 -0.2106
  101OSM    H7G10239   5.652   2.205   9.444  1.8566 -0.4224  3.2545
  101OSM    C8F10240   5.778   2.375   9.375  0.4533  0.1120  0.0223
  101OSM    H8F10241   5.862   2.310   9.408  0.7834  0.6159  0.1917
  101OSM    H8G10242   5.800   2.478   9.410  0.2942  0.9548 -2.2013
  101OSM    C9F10243   5.756   2.406   9.234 -0.0903  0.1324 -0.7982
  101OSM    H9F10244   5.688   2.490   9.213  1.9620  1.5112 -2.3680
  101OSM   C10F10245   5.790   2.340   9.125 -0.2145  0.6647  0.2208
  101OSM   H10F10246   5.745   2.372   9.030 -4.0021 -1.2060  1.1573
  101OSM   C11F10247   5.872   2.209   9.118 -0.1371  0.2606  0.0952
  101OSM   H11F10248   5.904   2.180   9.221  2.6606  0.0699 -0.7333
  101OSM   H11G10249   5.967   2.220   9.062  1.1505  1.0602  2.3131
  101OSM   C12F10250   5.784   2.091   9.070 -0.3623 -0.3045 -1.0013
  101OSM   H12F10251   5.692   2.089   9.133 -1.4344  4.6606 -2.0292
  101OSM   H12G10252   5.851   2.002   9.074  2.1797  1.5082 -0.3821
  101OSM   C13F10253   5.736   2.096   8.923 -0.2513 -0.1453  0.1792
  101OSM   H13F10254   5.813   2.057   8.854  1.1674 -0.0742  1.6759
  101OSM   H13G10255   5.725   2.204   8.900 -0.8565  0.0449  1.2753
  101OSM   C14F10256   5.602   2.023   8.892 -0.4416  0.7239  0.4796
  101OSM   H14F10257   5.523   2.056   8.963 -1.4258 -0.4094 -0.0709
  101OSM   H14G10258   5.631   1.921   8.924 -0.3212  1.1098  1.6804
  101OSM   C15F10259   5.539   2.039   8.753 -0.0074 -0.1806  0.0482
  101OSM   H15F10260   5.461   1.959   8.753  0.3234 -0.5491  1.9705
  101OSM   H15G10261   5.604   2.014   8.666  0.2724 -0.9487  0.4677
  101OSM   C16F10262   5.463   2.169   8.738 -0.0778 -0.0489 -0.0617
  101OSM   H16F10263   5.524   2.261   8.724 -0.8775  0.2717 -1.7944
  101OSM   H16G10264   5.403   2.187   8.830 -2.1644 -0.2641 -1.3106
  101OSM   C17F10265   5.363   2.164   8.620  0.8336 -0.3139 -0.0723
  101OSM   H17F10266   5.321   2.267   8.628  2.3218  0.2248  1.3346
  101OSM   H17G10267   5.284   2.090   8.646  0.6140 -0.0358  0.0667
  101OSM   C18F10268   5.428   2.147   8.487 -0.3394  0.3379 -0.0983
  101OSM   H18F10269   5.438   2.040   8.458 -0.9765  0.0374  0.7435
  101OSM   H18G10270   5.534   2.180   8.497 -0.5422  0.8404  0.4136
  101OSM   H18H10271   5.377   2.208   8.410  2.7769  1.2329 -1.6544
  102OSM      N10272   4.696   0.600  10.908  0.0932  0.2118  0.0131
  102OSM    C1510273   4.758   0.462  10.943  0.0427  0.4096 -0.1307
  102OSM   H15A10274   4.728   0.435  11.043 -3.9097  0.4171 -1.1218
  102OSM   H15B10275   4.865   0.450  10.948  0.0248  0.4900  0.4833
  102OSM   H15C10276   4.735   0.389  10.867  0.3353 -0.8771  0.9775
  102OSM    C1410277   4.550   0.585  10.932 -0.0976  0.3366  0.1118
  102OSM   H14A10278   4.539   0.573  11.039 -0.8021 -1.5213 -0.1289
  102OSM   H14B10279   4.504   0.503  10.879  1.5479  0.2499 -1.2680
  102OSM   H14C10280   4.503   0.674  10.893 -3.0647 -1.8926 -1.8401
  102OSM    C1310281   4.748   0.699  11.007  0.0858 -0.4377 -0.3530
  102OSM   H13A10282   4.714   0.799  10.986  1.3145  0.2701  0.9119
  102OSM   H13B10283   4.856   0.701  11.011  0.0973  0.7637 -0.9727
  102OSM   H13C10284   4.714   0.671  11.106 -1.6653 -0.6349 -0.9758
  102OSM    C1210285   4.733   0.629  10.767 -0.0915  0.6973 -0.2156
  102OSM   H12A10286   4.683   0.563  10.698 -0.6748  0.4134  0.4660
  102OSM   H12B10287   4.836   0.604  10.747 -0.2567 -0.4136  0.2632
  102OSM    C1110288   4.724   0.780  10.727  0.4300 -0.2601  0.2792
  102OSM   H11A10289   4.627   0.819  10.765  0.0882 -1.5929  0.8351
  102OSM   H11B10290   4.732   0.781  10.616  1.7988  1.0467  0.3713
  102OSM      P10291   4.979   0.856  10.703 -0.2938  0.0360  0.2934
  102OSM    O1310292   5.053   0.970  10.746 -0.7944  0.3762 -0.0536
  102OSM    O1410293   5.026   0.726  10.740 -0.0862  0.0463  0.7593
  102OSM    O1110294   4.965   0.856  10.545  0.2198  0.3142  0.0408
  102OSM    O1210295   4.837   0.864  10.767  0.1634 -0.1009 -0.1529
  102OSM    C1S10296   4.887   0.965  10.480 -0.1702  0.1717 -0.3093
  102OSM    H1S10297   4.934   1.064  10.499 -3.0626  1.1509  2.9927
  102OSM    H1T10298   4.783   0.975  10.519 -0.5138  0.2701 -1.2254
  102OSM     NF10299   4.831   1.074  10.270 -0.0662  0.1529  0.1183
  102OSM    HNF10300   4.736   1.062  10.242 -0.7686 -0.3941  2.5228
  102OSM    C2S10301   4.885   0.949  10.324 -0.0443 -0.2410  0.1948
  102OSM    H2S10302   4.986   0.933  10.280  0.6251 -0.2846  1.6758
  102OSM    C3S10303   4.803   0.820  10.296 -0.5613 -0.2142  0.0606
  102OSM    H3S10304   4.698   0.835  10.328 -0.7134 -0.1857 -0.4560
  102OSM     O310305   4.838   0.704  10.370  0.2915  0.2484 -0.4703
  102OSM    HO310306   4.909   0.731  10.428 -0.7818  2.0345  0.1080
  102OSM    C4S10307   4.804   0.792  10.148 -0.4590  0.5319 -0.0463
  102OSM    H4S10308   4.905   0.789  10.104 -0.8766 -2.3241 -0.9994
  102OSM    C5S10309   4.693   0.763  10.078  0.8925  0.0308 -0.0825
  102OSM    H5S10310   4.597   0.751  10.130  0.4937  3.4935  0.2221
  102OSM    C6S10311   4.701   0.742   9.927  0.0001  0.1339 -0.3833
  102OSM    H6S10312   4.691   0.632   9.914  3.4440 -0.3272 -0.1763
  102OSM    H6T10313   4.795   0.768   9.875  0.6069 -2.7065 -0.8935
  102OSM    C7S10314   4.587   0.808   9.853 -0.2661 -0.8803  1.0133
  102OSM    H7S10315   4.583   0.918   9.862 -0.2193 -0.7946  0.0074
  102OSM    H7T10316   4.483   0.796   9.893 -1.5438  0.3203 -1.6995
  102OSM    C8S10317   4.577   0.769   9.701  0.2381 -0.6132  0.1736
  102OSM    H8S10318   4.470   0.785   9.676 -0.0669 -1.3390  0.9630
  102OSM    H8T10319   4.591   0.659   9.693  0.3380 -0.4619 -2.3556
  102OSM    C9S10320   4.682   0.845   9.620 -0.3665 -0.3641 -0.0349
  102OSM    H9S10321   4.779   0.795   9.635 -1.0595 -1.1928  2.1649
  102OSM    H9T10322   4.697   0.946   9.665 -1.0033 -0.7250  1.0270
  102OSM   C10S10323   4.652   0.855   9.468 -0.2255  0.4758 -0.8114
  102OSM   H10S10324   4.685   0.766   9.411  3.1102  0.6368  0.5897
  102OSM   H10T10325   4.723   0.933   9.431  1.5306 -0.8135 -0.2766
  102OSM   C11S10326   4.507   0.894   9.437  0.3573  0.2138  0.2046
  102OSM   H11S10327   4.482   0.989   9.488  0.4605  0.1888  0.3036
  102OSM   H11T10328   4.432   0.820   9.472 -1.2090  1.8712  0.4320
  102OSM   C12S10329   4.482   0.905   9.283  0.4771 -0.6914 -0.1781
  102OSM   H12S10330   4.377   0.937   9.266  0.2888 -1.0251  0.3163
  102OSM   H12T10331   4.498   0.805   9.239 -0.0751 -1.2211  0.7866
  102OSM   C13S10332   4.576   1.008   9.215 -0.1423 -0.0964 -0.5541
  102OSM   H13S10333   4.684   0.983   9.217 -0.0497 -0.2389 -3.3421
  102OSM   H13T10334   4.572   1.107   9.266 -1.7276 -1.1462  1.5056
  102OSM   C14S10335   4.528   1.033   9.066 -0.2371 -0.4168 -0.3912
  102OSM   H14S10336   4.595   1.108   9.019  0.0532 -0.8556 -0.6889
  102OSM   H14T10337   4.429   1.084   9.068  0.8684  1.8847 -0.7242
  102OSM   C15S10338   4.509   0.900   8.997  0.2460  0.4726 -0.3766
  102OSM   H15S10339   4.432   0.838   9.046 -0.4702  0.1450 -1.8686
  102OSM   H15T10340   4.600   0.836   9.005  0.8243  1.5182  2.7331
  102OSM   C16S10341   4.464   0.907   8.851 -0.7892  0.1584  0.1606
  102OSM   H16S10342   4.362   0.950   8.840 -0.6278  0.5461  0.1807
  102OSM   H16T10343   4.457   0.803   8.812  0.7704 -0.4685  1.4512
  102OSM   C17S10344   4.550   0.992   8.763 -0.1554 -0.1506  0.1213
  102OSM   H17S10345   4.658   0.966   8.757  0.5697  2.3647  1.1647
  102OSM   H17T10346   4.551   1.096   8.799  1.0152  0.1490 -0.7094
  102OSM   C18S10347   4.503   0.994   8.618 -0.4545  0.2590 -0.4432
  102OSM   H18S10348   4.401   1.039   8.619  0.0892  1.5561 -1.2340
  102OSM   H18T10349   4.506   0.894   8.570 -0.7694 -0.3443  0.7365
  102OSM   H18U10350   4.568   1.057   8.554 -0.5871 -1.9387 -2.9127
  102OSM    C1F10351   4.913   1.179  10.261  0.1436  0.3928  0.8958
  102OSM     OF10352   5.034   1.173  10.261  0.4976  0.2593 -0.0537
  102OSM    C2F10353   4.841   1.313  10.243 -0.3177  0.7828 -0.7843
  102OSM    H2F10354   4.871   1.376  10.329  0.0459 -0.3163 -0.0854
  102OSM    H2G10355   4.731   1.295  10.239 -0.9314  3.4116  1.5501
  102OSM    C3F10356   4.875   1.384  10.114 -0.1397 -0.3441 -0.5673
  102OSM    H3F10357   4.984   1.376  10.096  0.4287  3.0618  0.5580
  102OSM    H3G10358   4.840   1.489  10.129 -1.0326 -0.5662 -1.0301
  102OSM    C4F10359   4.799   1.327   9.995  0.4784 -0.3478  0.3376
  102OSM    H4F10360   4.691   1.347  10.011 -0.2636 -1.0501 -3.1155
  102OSM    H4G10361   4.821   1.218   9.991  0.8512 -0.2609  0.0193
  102OSM    C5F10362   4.828   1.377   9.849  0.5085 -0.5775 -0.4954
  102OSM    H5F10363   4.930   1.335   9.833 -0.9722 -4.7757 -0.0880
  102OSM    H5G10364   4.827   1.488   9.845  0.7327 -0.1964  4.4336
  102OSM    C6F10365   4.733   1.314   9.749  0.0226  0.5803  0.1181
  102OSM    H6F10366   4.635   1.364   9.762  0.2710  0.7864  1.3353
  102OSM    H6G10367   4.715   1.208   9.776 -0.5667  0.1255 -1.9105
  102OSM    C7F10368   4.778   1.333   9.607  0.7316 -0.1609  0.4383
  102OSM    H7F10369   4.885   1.306   9.606  0.6489 -0.6525  1.8318
  102OSM    H7G10370   4.786   1.442   9.586  2.4996 -0.3030  0.2178
  102OSM    C8F10371   4.703   1.258   9.499 -0.9042  0.3092  0.3655
  102OSM    H8F10372   4.593   1.274   9.504 -0.8224  0.7197  0.9113
  102OSM    H8G10373   4.714   1.151   9.526 -0.7660 -0.0941 -1.1638
  102OSM    C9F10374   4.758   1.293   9.362 -0.2008 -0.3210  0.1651
  102OSM    H9F10375   4.858   1.251   9.341  0.1500  0.2759  0.6045
  102OSM   C10F10376   4.690   1.353   9.267  0.2288  0.4579  0.3041
  102OSM   H10F10377   4.735   1.375   9.169  0.3971 -0.1382  0.2435
  102OSM   C11F10378   4.551   1.416   9.266  0.9052 -0.0163 -0.3730
  102OSM   H11F10379   4.509   1.414   9.369  1.0215 -0.7675 -0.3299
  102OSM   H11G10380   4.475   1.369   9.200 -0.2143 -1.1759  1.6521
  102OSM   C12F10381   4.538   1.560   9.213 -0.0490 -0.0022  0.2772
  102OSM   H12F10382   4.548   1.551   9.102  0.4238 -1.1247  0.3930
  102OSM   H12G10383   4.618   1.623   9.256 -1.0924  1.6269 -0.0771
  102OSM   C13F10384   4.405   1.627   9.251  0.0729  0.5130 -0.2650
  102OSM   H13F10385   4.402   1.653   9.359  1.3569 -1.9354  0.4399
  102OSM   H13G10386   4.318   1.566   9.220 -2.1864  3.2865  0.2782
  102OSM   C14F10387   4.399   1.760   9.179  0.2056  0.8494 -1.1645
  102OSM   H14F10388   4.377   1.738   9.073 -0.3761  3.6073 -1.6956
  102OSM   H14G10389   4.497   1.813   9.177  1.1600 -0.6764  1.1701
  102OSM   C15F10390   4.296   1.867   9.233  0.5902  0.1004  0.0932
  102OSM   H15F10391   4.204   1.818   9.272  0.3881  0.7131  0.4096
  102OSM   H15G10392   4.262   1.920   9.141 -1.2101  0.9381  1.1706
  102OSM   C16F10393   4.345   1.964   9.349  0.4790 -0.7053  0.3173
  102OSM   H16F10394   4.437   2.019   9.320  0.1055  0.2670  0.9222
  102OSM   H16G10395   4.371   1.898   9.434  1.0860  0.1807  0.8325
  102OSM   C17F10396   4.229   2.056   9.394 -0.6068  0.7336 -0.8499
  102OSM   H17F10397   4.163   1.995   9.459 -1.4730  1.7173 -0.7707
  102OSM   H17G10398   4.171   2.097   9.309 -3.9804 -1.5475  0.1471
  102OSM   C18F10399   4.266   2.171   9.500  0.1339  0.0312  0.4237
  102OSM   H18F10400   4.333   2.234   9.439  2.0474 -1.4165  0.9462
  102OSM   H18G10401   4.307   2.130   9.594 -0.2006 -0.5099  0.3369
  102OSM   H18H10402   4.166   2.215   9.521 -1.2477 -2.6230 -0.1442
  103OSM      N10403   3.652   5.818  10.551 -0.2593  0.4829 -0.4520
  103OSM    C1510404   3.725   5.733  10.447  0.1293  0.0276  0.0575
  103OSM   H15A10405   3.831   5.732  10.468  0.1851 -1.2495 -0.1928
  103OSM   H15B10406   3.701   5.757  10.345  0.2779 -0.5312 -0.1101
  103OSM   H15C10407   3.686   5.633  10.462 -0.5556  0.0627 -1.3974
  103OSM    C1410408   3.711   5.952  10.561  0.6787  0.3855  0.1165
  103OSM   H14A10409   3.668   5.994  10.652  1.6596  0.4950  0.5374
  103OSM   H14B10410   3.674   6.007  10.476  0.3288 -0.7018 -0.4485
  103OSM   H14C10411   3.818   5.956  10.573  0.4803  0.2706  2.5568
  103OSM    C1310412   3.512   5.826  10.503  0.0118  0.1072 -0.0639
  103OSM   H13A10413   3.459   5.733  10.512  0.8163 -0.2888  0.8626
  103OSM   H13B10414   3.508   5.851  10.398  2.0065 -0.6550 -0.3755
  103OSM   H13C10415   3.458   5.905  10.554 -0.0200 -0.4535  0.7848
  103OSM    C1210416   3.650   5.754  10.689 -0.6204 -0.5398 -0.0585
  103OSM   H12A10417   3.589   5.813  10.755  0.1208  1.1616 -0.8527
  103OSM   H12B10418   3.743   5.747  10.742 -0.3402 -1.1833 -0.6156
  103OSM    C1110419   3.585   5.606  10.699  0.2822  0.4872  0.1549
  103OSM   H11A10420   3.603   5.589  10.807  0.0356  2.2630  0.4979
  103OSM   H11B10421   3.646   5.538  10.635 -1.2401 -0.9002  0.1024
  103OSM      P10422   3.362   5.467  10.684  0.1356 -0.1614  0.1067
  103OSM    O1310423   3.392   5.407  10.819 -0.0278 -0.3034  0.1220
  103OSM    O1410424   3.221   5.494  10.648  0.0700 -0.0513 -0.2466
  103OSM    O1110425   3.412   5.367  10.567 -0.3368  0.3573  0.7567
  103OSM    O1210426   3.448   5.598  10.664  0.0718 -0.4121  0.4485
  103OSM    C1S10427   3.433   5.422  10.435  0.7658 -0.3450 -0.8917
  103OSM    H1S10428   3.516   5.496  10.434 -1.0681  1.8331 -0.4794
  103OSM    H1T10429   3.344   5.477  10.398 -0.3336 -0.8821  0.8497
  103OSM     NF10430   3.514   5.358  10.220 -0.3472 -0.4256 -0.0137
  103OSM    HNF10431   3.454   5.356  10.141 -0.3222 -1.0466 -0.0236
  103OSM    C2S10432   3.469   5.302  10.345 -0.2650 -0.5417  0.0424
  103OSM    H2S10433   3.550   5.256  10.406  1.6075  1.1908 -1.0288
  103OSM    C3S10434   3.357   5.194  10.336 -0.8949  0.2594 -0.0143
  103OSM    H3S10435   3.258   5.239  10.312 -0.4167  0.0779 -2.5615
  103OSM     O310436   3.333   5.131  10.458 -0.4136  0.0455 -0.0818
  103OSM    HO310437   3.354   5.204  10.517 -1.8776  3.5089 -3.4247
  103OSM    C4S10438   3.396   5.093  10.225  0.0757 -0.3426 -0.2920
  103OSM    H4S10439   3.481   5.027  10.248  0.0032  0.4883  2.9345
  103OSM    C5S10440   3.322   5.085  10.116 -0.2616 -0.0252 -0.1332
  103OSM    H5S10441   3.232   5.147  10.104 -1.0933 -1.2284 -0.2904
  103OSM    C6S10442   3.343   4.980  10.015 -0.4492 -0.1686 -0.0171
  103OSM    H6S10443   3.260   4.907  10.021 -1.7135  1.3006  0.9381
  103OSM    H6T10444   3.434   4.917  10.029 -1.1121 -1.0606  0.3390
  103OSM    C7S10445   3.346   5.034   9.870  0.0416  0.6760 -0.5080
  103OSM    H7S10446   3.447   5.080   9.858  1.1308 -2.1122 -3.2454
  103OSM    H7T10447   3.271   5.111   9.843 -0.8536  0.2449  0.6348
  103OSM    C8S10448   3.340   4.911   9.772 -0.3109 -0.1681  0.8418
  103OSM    H8S10449   3.264   4.836   9.802  1.2510 -2.9448 -1.5474
  103OSM    H8T10450   3.431   4.847   9.775 -0.6618 -0.7021  0.3556
  103OSM    C9S10451   3.334   4.958   9.626  0.1400  0.6537 -0.0152
  103OSM    H9S10452   3.398   5.046   9.602  2.8023 -1.2408 -0.2379
  103OSM    H9T10453   3.226   4.973   9.605 -0.3389 -0.7730  1.2854
  103OSM   C10S10454   3.351   4.846   9.520 -0.4846 -0.3091  0.0568
  103OSM   H10S10455   3.306   4.752   9.558  0.5981 -0.8543  0.0549
  103OSM   H10T10456   3.458   4.829   9.494 -0.9848 -2.0889 -1.0751
  103OSM   C11S10457   3.262   4.880   9.396 -0.2177 -0.1571 -0.2256
  103OSM   H11S10458   3.295   4.983   9.373 -0.9076 -0.0684 -0.8457
  103OSM   H11T10459   3.158   4.883   9.435  0.6665  0.0006  2.3205
  103OSM   C12S10460   3.284   4.780   9.288  0.1453 -0.5246  0.1418
  103OSM   H12S10461   3.253   4.679   9.321  1.5749 -1.4599 -1.2330
  103OSM   H12T10462   3.391   4.784   9.257  0.3968 -2.9496  0.5268
  103OSM   C13S10463   3.195   4.800   9.171 -0.6526 -0.6335 -0.7237
  103OSM   H13S10464   3.227   4.898   9.131 -0.0067 -0.4724  0.1620
  103OSM   H13T10465   3.087   4.805   9.193 -0.3796 -0.5767  0.6727
  103OSM   C14S10466   3.227   4.686   9.068 -0.0829  0.6300 -0.4015
  103OSM   H14S10467   3.187   4.587   9.097 -1.4397  1.0802 -0.6820
  103OSM   H14T10468   3.338   4.681   9.061  0.0708  1.8487  0.7243
  103OSM   C15S10469   3.150   4.721   8.938  0.2673  0.7082  0.2023
  103OSM   H15S10470   3.166   4.825   8.903  0.3894 -0.2108 -2.8237
  103OSM   H15T10471   3.040   4.728   8.936  0.3189  1.5282 -0.0301
  103OSM   C16S10472   3.194   4.628   8.822 -0.0131  0.1992 -0.4885
  103OSM   H16S10473   3.154   4.531   8.855 -1.9502  1.6208  1.6435
  103OSM   H16T10474   3.305   4.628   8.821 -0.0026 -0.9118  0.0740
  103OSM   C17S10475   3.131   4.658   8.688 -0.4699  0.0396  0.4323
  103OSM   H17S10476   3.168   4.756   8.652  0.2707 -0.5333 -0.4084
  103OSM   H17T10477   3.021   4.651   8.699 -0.5361  0.3619 -0.0187
  103OSM   C18S10478   3.177   4.556   8.585  0.2539  0.3257  0.1400
  103OSM   H18S10479   3.288   4.564   8.579  0.1381  0.8880 -3.0515
  103OSM   H18T10480   3.138   4.587   8.486 -0.4239  0.3541  0.4096
  103OSM   H18U10481   3.144   4.451   8.602  0.0692 -0.2296 -3.0149
  103OSM    C1F10482   3.632   5.414  10.199 -0.0809 -0.0933 -0.0006
  103OSM     OF10483   3.726   5.409  10.278  0.4686 -0.0798 -0.0116
  103OSM    C2F10484   3.643   5.469  10.063 -0.0017 -0.3257 -0.2230
  103OSM    H2F10485   3.746   5.510  10.055 -0.6779  1.6123  0.3276
  103OSM    H2G10486   3.580   5.560  10.054 -0.3022 -0.5198 -0.0775
  103OSM    C3F10487   3.611   5.371   9.947  0.2169  0.1198 -0.3687
  103OSM    H3F10488   3.502   5.350   9.939 -0.4668  3.2640 -0.8020
  103OSM    H3G10489   3.668   5.276   9.956 -2.9202 -1.7366  1.3867
  103OSM    C4F10490   3.639   5.423   9.800 -0.9605 -0.0079 -0.9596
  103OSM    H4F10491   3.749   5.423   9.787 -0.8358  0.2917 -0.0112
  103OSM    H4G10492   3.608   5.528   9.780  1.3169  1.2042  1.3386
  103OSM    C5F10493   3.558   5.340   9.701 -0.0730 -0.3132 -0.7596
  103OSM    H5F10494   3.453   5.370   9.717 -0.0318 -0.6010  0.0909
  103OSM    H5G10495   3.582   5.234   9.723  0.0326 -0.1651 -0.1406
  103OSM    C6F10496   3.576   5.366   9.552  0.1766  0.5680 -0.8829
  103OSM    H6F10497   3.681   5.400   9.536  1.0185 -1.9153 -1.1617
  103OSM    H6G10498   3.504   5.446   9.525 -0.8458  0.0769  0.2900
  103OSM    C7F10499   3.557   5.239   9.471 -0.6977  0.4270 -0.1696
  103OSM    H7F10500   3.456   5.196   9.487 -0.8617  0.8780  0.0064
  103OSM    H7G10501   3.631   5.161   9.499  0.3021  1.3665 -0.1457
  103OSM    C8F10502   3.589   5.244   9.323  0.1047  0.6789 -0.5846
  103OSM    H8F10503   3.583   5.141   9.283  0.3212 -0.4969  2.1864
  103OSM    H8G10504   3.689   5.287   9.301  0.4768 -0.5796 -1.4686
  103OSM    C9F10505   3.479   5.322   9.256 -0.3637  0.5834 -0.6459
  103OSM    H9F10506   3.380   5.330   9.302 -0.4916 -1.7734 -0.3877
  103OSM   C10F10507   3.483   5.370   9.132 -1.0003  0.1922 -0.2684
  103OSM   H10F10508   3.397   5.423   9.088 -0.3765  0.0773 -1.6396
  103OSM   C11F10509   3.600   5.366   9.038 -0.5173  0.1566 -0.3560
  103OSM   H11F10510   3.681   5.299   9.073 -0.7831  0.3504  0.6409
  103OSM   H11G10511   3.643   5.467   9.021 -1.2335  0.9507  2.1412
  103OSM   C12F10512   3.555   5.306   8.904  0.3392 -0.2507  0.1866
  103OSM   H12F10513   3.496   5.214   8.924  0.6363 -1.6617 -4.2325
  103OSM   H12G10514   3.642   5.293   8.835 -0.7106 -1.5217 -0.9584
  103OSM   C13F10515   3.461   5.389   8.819  0.5059 -0.8275  0.1251
  103OSM   H13F10516   3.415   5.467   8.884  1.7413  0.5988 -0.6507
  103OSM   H13G10517   3.516   5.454   8.748 -0.5870  2.9194  2.4322
  103OSM   C14F10518   3.344   5.324   8.738 -0.0795 -0.2278  0.0074
  103OSM   H14F10519   3.274   5.275   8.809  0.4916 -0.6309  0.2946
  103OSM   H14G10520   3.388   5.252   8.667  2.2883 -0.6132  1.7630
  103OSM   C15F10521   3.273   5.442   8.670  0.1318  0.8549  1.2961
  103OSM   H15F10522   3.244   5.516   8.747  1.8022  0.0309  2.7803
  103OSM   H15G10523   3.176   5.395   8.640  0.9308 -0.8496  1.2551
  103OSM   C16F10524   3.348   5.495   8.556 -0.0697  0.2959 -0.5299
  103OSM   H16F10525   3.455   5.516   8.579  0.0039 -1.0473  0.4853
  103OSM   H16G10526   3.298   5.590   8.530  0.6220  1.2847  1.5321
  103OSM   C17F10527   3.357   5.404   8.433  0.7416 -0.1030 -0.9120
  103OSM   H17F10528   3.255   5.402   8.389  1.1761  0.7723 -2.0078
  103OSM   H17G10529   3.385   5.298   8.453  2.7463  0.4788 -0.4834
  103OSM   C18F10530   3.453   5.462   8.330 -0.2513 -0.8358 -0.4177
  103OSM   H18F10531   3.446   5.406   8.234 -0.2438 -2.6526  0.6096
  103OSM   H18G10532   3.558   5.471   8.365 -0.8421  0.9400  1.0644
  103OSM   H18H10533   3.415   5.564   8.307  1.3870  0.1653  1.0344
  104OSM      N10534   1.543   3.010  10.783 -0.1148  0.2711  0.2331
  104OSM    C1510535   1.584   2.920  10.663 -0.1490 -0.2674  0.6761
  104OSM   H15A10536   1.620   2.822  10.692  1.0844  0.0629  0.3365
  104OSM   H15B10537   1.662   2.976  10.612  0.0672  1.3850  2.6545
  104OSM   H15C10538   1.501   2.891  10.601 -0.0483 -1.1214  0.9278
  104OSM    C1410539   1.475   3.134  10.741  0.1965  0.1732 -0.3410
  104OSM   H14A10540   1.532   3.204  10.682 -0.3274  1.4463  0.6246
  104OSM   H14B10541   1.434   3.189  10.825  0.6135  1.8916 -1.2227
  104OSM   H14C10542   1.389   3.105  10.683  0.3404 -1.5082  0.2016
  104OSM    C1310543   1.440   2.928  10.854 -0.1501 -0.5007 -0.0477
  104OSM   H13A10544   1.378   2.991  10.917  1.9903  1.8825 -0.2042
  104OSM   H13B10545   1.488   2.856  10.918  1.8879 -1.0100 -2.0420
  104OSM   H13C10546   1.379   2.870  10.786 -0.8565  0.1370  0.0256
  104OSM    C1210547   1.673   3.036  10.861  0.1731  0.2224 -0.1886
  104OSM   H12A10548   1.732   2.947  10.875  0.2722 -0.2069 -2.9152
  104OSM   H12B10549   1.633   3.066  10.957  0.3346 -1.2325  0.3608
  104OSM    C1110550   1.767   3.145  10.808 -0.2905  0.6756  0.7167
  104OSM   H11A10551   1.854   3.157  10.877  0.4327 -1.5706  0.2799
  104OSM   H11B10552   1.711   3.240  10.794 -2.1859 -0.3370  1.0414
  104OSM      P10553   1.957   3.057  10.669 -0.0145 -0.4510  0.2916
  104OSM    O1310554   2.055   3.164  10.701 -0.2921  0.6032  1.0497
  104OSM    O1410555   1.957   2.929  10.741 -0.3196 -0.2233  0.1026
  104OSM    O1110556   1.980   3.020  10.514  0.1849  0.4707  0.5889
  104OSM    O1210557   1.814   3.115  10.676 -0.5926 -0.5795  0.9420
  104OSM    C1S10558   2.013   2.883  10.474 -0.5539 -0.0109  0.1099
  104OSM    H1S10559   1.924   2.818  10.481  0.1163 -1.3564 -2.7032
  104OSM    H1T10560   2.093   2.849  10.543 -1.4252  1.8155  2.1479
  104OSM     NF10561   2.089   2.739  10.281 -0.4472  0.3242 -0.5822
  104OSM    HNF10562   2.176   2.693  10.292 -1.3339 -1.0333  1.3493
  104OSM    C2S10563   2.070   2.878  10.328 -0.2376  0.3569  0.0667
  104OSM    H2S10564   1.998   2.921  10.254  0.0836  1.0947  0.1734
  104OSM    C3S10565   2.201   2.965  10.310  0.2468  0.0750  0.0502
  104OSM    H3S10566   2.287   2.915  10.359  0.1780  1.0895  1.2609
  104OSM     O310567   2.190   3.092  10.368 -0.7450 -0.0067 -0.1206
  104OSM    HO310568   2.112   3.084  10.424 -0.5502 -1.8946 -0.0415
  104OSM    C4S10569   2.242   2.974  10.163  0.1105 -0.3689  0.0293
  104OSM    H4S10570   2.312   2.894  10.133  1.1905  0.7346 -0.4780
  104OSM    C5S10571   2.214   3.071  10.075 -0.1371  0.3979 -0.1649
  104OSM    H5S10572   2.151   3.153  10.113  1.4349  0.8516  1.6107
  104OSM    C6S10573   2.257   3.077   9.924  0.0729  0.0291  0.3251
  104OSM    H6S10574   2.330   2.994   9.914  0.7728 -0.0425  4.1561
  104OSM    H6T10575   2.299   3.175   9.894 -0.0445 -1.0076 -3.8538
  104OSM    C7S10576   2.138   3.059   9.826 -1.0494 -0.0602 -0.2777
  104OSM    H7S10577   2.169   3.096   9.726 -0.1588 -0.7016 -0.2437
  104OSM    H7T10578   2.055   3.125   9.859  1.7827  2.1733  3.0033
  104OSM    C8S10579   2.101   2.910   9.807  0.4087  0.1530 -0.5004
  104OSM    H8S10580   2.041   2.874   9.894 -0.2042  2.4569  0.0956
  104OSM    H8T10581   2.190   2.844   9.811 -0.6942 -1.3787  3.6627
  104OSM    C9S10582   2.023   2.885   9.673 -0.2981  0.0265 -0.0790
  104OSM    H9S10583   1.943   2.961   9.664 -0.1448  0.2054  0.0487
  104OSM    H9T10584   1.975   2.787   9.690 -0.5051  0.0056 -0.7957
  104OSM   C10S10585   2.102   2.888   9.544 -0.1819 -0.1762 -0.0595
  104OSM   H10S10586   2.200   2.837   9.553  1.3395  2.2495 -1.5825
  104OSM   H10T10587   2.130   2.995   9.530 -1.4422 -0.1344 -2.8238
  104OSM   C11S10588   2.020   2.847   9.417 -0.1825  0.4296  0.2345
  104OSM   H11S10589   1.944   2.918   9.379 -0.9616 -0.9869 -0.9140
  104OSM   H11T10590   1.972   2.748   9.432 -1.3003  0.7616 -0.9958
  104OSM   C12S10591   2.110   2.825   9.289  0.3849  0.0402 -0.2946
  104OSM   H12S10592   2.154   2.723   9.287 -0.0040 -0.1207 -0.9824
  104OSM   H12T10593   2.180   2.911   9.295  1.6911 -0.9868 -0.4368
  104OSM   C13S10594   2.026   2.838   9.166 -0.1463  0.3502 -0.5171
  104OSM   H13S10595   1.960   2.927   9.174 -3.3204 -1.9540  1.0076
  104OSM   H13T10596   1.966   2.745   9.152 -0.3989  0.2099  1.3033
  104OSM   C14S10597   2.106   2.835   9.039  0.5103  0.3337 -0.0417
  104OSM   H14S10598   2.159   2.738   9.034 -0.5130 -0.2265 -0.3902
  104OSM   H14T10599   2.191   2.901   9.067  1.4308 -0.8410 -0.0048
  104OSM   C15S10600   2.023   2.863   8.914  0.1800  0.2179 -0.2698
  104OSM   H15S10601   2.081   2.855   8.820 -0.2492  0.5430 -0.5638
  104OSM   H15T10602   1.984   2.967   8.909 -1.7608 -0.3968  0.7761
  104OSM   C16S10603   1.900   2.783   8.902  0.1193 -0.4044 -0.1621
  104OSM   H16S10604   1.840   2.801   8.811 -0.6933 -2.1990 -0.0203
  104OSM   H16T10605   1.830   2.789   8.989  2.6025  0.7754  1.8866
  104OSM   C17S10606   1.930   2.632   8.874 -0.5510 -0.1267 -0.1184
  104OSM   H17S10607   1.990   2.589   8.957  1.5916 -1.9366 -2.4408
  104OSM   H17T10608   1.997   2.629   8.785  1.6225  0.9748  1.3797
  104OSM   C18S10609   1.806   2.550   8.872  0.3232 -0.2402  0.0203
  104OSM   H18S10610   1.825   2.441   8.863 -1.1677 -0.6298  1.2467
  104OSM   H18T10611   1.756   2.567   8.774  2.3436 -2.7822 -1.5992
  104OSM   H18U10612   1.742   2.575   8.959  1.2064  2.0000  0.0887
  104OSM    C1F10613   1.992   2.657  10.249 -0.1928  0.1935  0.0339
  104OSM     OF10614   1.873   2.691  10.260  0.0562  0.1505  0.4432
  104OSM    C2F10615   2.036   2.521  10.207 -0.1429 -0.0908 -0.2535
  104OSM    H2F10616   1.967   2.447  10.255  0.8681  0.3767  2.0421
  104OSM    H2G10617   2.135   2.498  10.252 -1.0917 -3.6477  0.3519
  104OSM    C3F10618   2.036   2.482  10.051  0.0551  0.2564 -0.1276
  104OSM    H3F10619   1.942   2.531  10.018 -0.0706 -0.1623 -0.3988
  104OSM    H3G10620   2.044   2.373  10.035 -1.5098 -0.0232  0.8743
  104OSM    C4F10621   2.154   2.548   9.972  0.0912  0.6382  0.2599
  104OSM    H4F10622   2.236   2.477   9.991  0.9946  1.8141  0.8989
  104OSM    H4G10623   2.170   2.643  10.028 -1.1551  0.1896  1.4669
  104OSM    C5F10624   2.125   2.569   9.827  0.0252  0.0684 -0.0047
  104OSM    H5F10625   2.199   2.645   9.793 -1.4001  1.7946  0.5916
  104OSM    H5G10626   2.027   2.618   9.810 -0.0257  0.2322  0.7101
  104OSM    C6F10627   2.134   2.450   9.735 -0.3062  0.0738 -0.3175
  104OSM    H6F10628   2.061   2.379   9.779  0.2814 -1.2813 -1.4697
  104OSM    H6G10629   2.236   2.406   9.737 -1.0901 -1.8135  0.5182
  104OSM    C7F10630   2.090   2.484   9.595  0.3240 -0.2532 -0.8232
  104OSM    H7F10631   2.156   2.566   9.557  0.1404  0.5358  0.5243
  104OSM    H7G10632   1.987   2.526   9.598  0.0270 -0.9592 -1.0700
  104OSM    C8F10633   2.091   2.372   9.489  0.4363 -0.2439  0.7667
  104OSM    H8F10634   2.012   2.298   9.516 -1.1623  1.0990 -0.0715
  104OSM    H8G10635   2.191   2.323   9.495  0.4872 -0.1006  1.1466
  104OSM    C9F10636   2.070   2.410   9.344  0.1854  0.1777  0.0979
  104OSM    H9F10637   1.977   2.466   9.326  1.0728  1.1884 -1.5912
  104OSM   C10F10638   2.149   2.367   9.244 -0.1638  0.9484 -0.9935
  104OSM   H10F10639   2.122   2.396   9.141  0.0066  1.5146 -0.8810
  104OSM   C11F10640   2.273   2.282   9.253  0.7487  0.7783  0.5578
  104OSM   H11F10641   2.267   2.177   9.289  0.7241  0.4771 -0.2925
  104OSM   H11G10642   2.339   2.339   9.322 -1.7882  3.4605  0.9538
  104OSM   C12F10643   2.336   2.278   9.114 -0.4176  0.5126 -0.2172
  104OSM   H12F10644   2.445   2.253   9.119 -0.0708  2.0731  0.8954
  104OSM   H12G10645   2.337   2.381   9.072  0.9090  0.7178  0.2700
  104OSM   C13F10646   2.261   2.185   9.015  0.3251 -0.0508 -0.2684
  104OSM   H13F10647   2.162   2.235   9.003  1.0821  0.9620 -3.3472
  104OSM   H13G10648   2.247   2.081   9.051  0.1768 -0.9198 -2.6377
  104OSM   C14F10649   2.334   2.164   8.885 -0.2239 -0.2819 -0.3128
  104OSM   H14F10650   2.430   2.113   8.908  1.3731  2.3959 -0.4975
  104OSM   H14G10651   2.350   2.264   8.838  1.4658 -0.0368  0.6933
  104OSM   C15F10652   2.245   2.086   8.794 -0.5632  0.4181  0.2363
  104OSM   H15F10653   2.156   2.151   8.787  0.0639  1.5039  1.7999
  104OSM   H15G10654   2.208   1.992   8.841 -1.4182  0.7083  0.1598
  104OSM   C16F10655   2.301   2.048   8.650 -0.4588  0.4920 -0.0111
  104OSM   H16F10656   2.365   1.958   8.657 -0.2978  0.5092 -1.1739
  104OSM   H16G10657   2.356   2.140   8.619  0.5078 -0.1441 -0.2413
  104OSM   C17F10658   2.191   2.027   8.546  0.6254  0.3050 -0.5631
  104OSM   H17F10659   2.124   2.114   8.532 -0.8787 -0.6335  0.4825
  104OSM   H17G10660   2.133   1.940   8.583  1.9962 -0.1645  0.5773
  104OSM   C18F10661   2.256   1.984   8.416  0.0275 -0.0284 -0.7665
  104OSM   H18F10662   2.317   2.070   8.382 -0.2895  0.8141  0.7009
  104OSM   H18G10663   2.176   1.962   8.343  1.1569 -0.8970 -1.7784
  104OSM   H18H10664   2.322   1.896   8.430  1.0419  0.4968 -2.0494
  105OSM      N10665   2.951   2.622  11.190  0.1929 -0.4869  1.0922
  105OSM    C1510666   3.093   2.661  11.168 -0.1386  0.1176 -0.1948
  105OSM   H15A10667   3.105   2.724  11.081 -0.4225  0.4724  0.0216
  105OSM   H15B10668   3.164   2.583  11.145 -1.3095 -1.4163  1.1551
  105OSM   H15C10669   3.116   2.721  11.254 -2.9832  1.4178 -0.2155
  105OSM    C1410670   2.943   2.558  11.326  0.2463 -0.4201  1.0228
  105OSM   H14A10671   2.855   2.495  11.329 -0.2737  0.1190 -1.1244
  105OSM   H14B10672   2.940   2.633  11.404 -2.4103  0.8569 -0.1795
  105OSM   H14C10673   3.028   2.493  11.340  0.1514 -0.7299  0.2346
  105OSM    C1310674   2.866   2.747  11.193 -0.0857 -0.2367  0.2987
  105OSM   H13A10675   2.897   2.812  11.273  0.7543  0.7207 -0.7781
  105OSM   H13B10676   2.761   2.722  11.203 -0.2238  0.5766  0.9528
  105OSM   H13C10677   2.876   2.793  11.096 -0.6846 -0.5852  0.0656
  105OSM    C1210678   2.896   2.527  11.090 -0.0515  0.0984  1.0028
  105OSM   H12A10679   2.789   2.517  11.096  0.0323 -0.6897  1.3280
  105OSM   H12B10680   2.934   2.429  11.115  2.8479  1.4123  2.3248
  105OSM    C1110681   2.924   2.561  10.937  0.6624  0.0977  0.0968
  105OSM   H11A10682   2.906   2.480  10.864  1.4590  0.5202 -0.5729
  105OSM   H11B10683   3.034   2.577  10.935  0.6244  0.3070 -1.3830
  105OSM      P10684   2.725   2.668  10.799 -0.1067  0.2490 -0.1313
  105OSM    O1310685   2.623   2.581  10.855  0.5335  0.5171  0.7265
  105OSM    O1410686   2.673   2.807  10.780 -0.3507  0.0058  0.2655
  105OSM    O1110687   2.771   2.610  10.663 -0.0070 -0.6271  0.0040
  105OSM    O1210688   2.855   2.676  10.889 -0.3941 -0.1624 -0.5303
  105OSM    C1S10689   2.724   2.489  10.598  0.8234  0.1970  0.2337
  105OSM    H1S10690   2.615   2.509  10.591  0.4743 -1.3455  0.7655
  105OSM    H1T10691   2.739   2.395  10.656  2.7150  0.1561 -0.2641
  105OSM     NF10692   2.688   2.385  10.376 -0.1968  0.4896 -0.5114
  105OSM    HNF10693   2.731   2.297  10.356 -0.5788  0.4714 -1.2888
  105OSM    C2S10694   2.768   2.489  10.450 -0.2076  0.3782 -0.0144
  105OSM    H2S10695   2.757   2.592  10.411  1.0151  0.0192 -1.4263
  105OSM    C3S10696   2.923   2.464  10.441 -0.4242 -0.2366 -0.5157
  105OSM    H3S10697   2.948   2.360  10.471 -1.7417 -0.6037 -0.6284
  105OSM     O310698   3.012   2.548  10.510  0.1927  0.1636  0.0528
  105OSM    HO310699   2.953   2.618  10.538 -1.8864 -1.4091 -0.1218
  105OSM    C4S10700   2.968   2.469  10.296 -0.0689  0.2304 -0.4864
  105OSM    H4S10701   2.930   2.559  10.245  0.3324  1.0078  0.5557
  105OSM    C5S10702   3.045   2.379  10.234  0.1034 -0.0446  0.1936
  105OSM    H5S10703   3.088   2.296  10.291  1.0223  1.3625  1.6129
  105OSM    C6S10704   3.082   2.382  10.086  0.7340 -0.0154 -1.0501
  105OSM    H6S10705   2.988   2.391  10.027  1.6760 -0.6933 -2.7182
  105OSM    H6T10706   3.105   2.280  10.047 -1.2556  0.0654 -2.6065
  105OSM    C7S10707   3.194   2.479  10.050  0.5464 -0.3045  0.7346
  105OSM    H7S10708   3.267   2.483  10.135  1.0362 -0.2641  0.3167
  105OSM    H7T10709   3.151   2.580  10.029 -1.8319 -1.5976 -1.0098
  105OSM    C8S10710   3.268   2.447   9.924  0.1211 -0.0495  0.2795
  105OSM    H8S10711   3.311   2.346   9.938  0.3676  0.2835  2.2615
  105OSM    H8T10712   3.353   2.513   9.899  0.9540 -1.4988 -0.7822
  105OSM    C9S10713   3.180   2.446   9.799 -0.6740  0.7524 -1.1853
  105OSM    H9S10714   3.127   2.542   9.786 -1.5348  0.2800 -1.1988
  105OSM    H9T10715   3.099   2.371   9.803  0.8091 -1.0435 -2.6494
  105OSM   C10S10716   3.265   2.406   9.671 -0.2283  0.1727 -0.1403
  105OSM   H10S10717   3.308   2.304   9.680 -0.5446  0.1454  1.2039
  105OSM   H10T10718   3.351   2.476   9.660 -0.3886  0.2790 -0.8160
  105OSM   C11S10719   3.187   2.414   9.538 -0.3484  0.9990 -0.0031
  105OSM   H11S10720   3.113   2.497   9.546 -1.2818  0.3243 -1.1934
  105OSM   H11T10721   3.124   2.323   9.547 -0.4710  1.2223  1.6136
  105OSM   C12S10722   3.288   2.424   9.422 -0.4103  0.7071  0.0590
  105OSM   H12S10723   3.354   2.337   9.443 -0.8753  0.7854  1.9678
  105OSM   H12T10724   3.357   2.510   9.438  1.5624 -0.5913 -0.9945
  105OSM   C13S10725   3.212   2.426   9.286  0.4721 -0.3812 -0.9854
  105OSM   H13S10726   3.152   2.517   9.263 -0.5719 -0.6757  0.4838
  105OSM   H13T10727   3.143   2.340   9.275 -0.5283  0.1553  0.7676
  105OSM   C14S10728   3.304   2.421   9.164  0.9268  0.4617  0.1926
  105OSM   H14S10729   3.348   2.319   9.166  0.2912  0.1812  2.5829
  105OSM   H14T10730   3.378   2.503   9.177  0.8529  0.4717  0.5822
  105OSM   C15S10731   3.232   2.449   9.036 -0.2603 -0.8859  0.4393
  105OSM   H15S10732   3.195   2.554   9.035  1.5734 -0.1607 -1.9467
  105OSM   H15T10733   3.151   2.374   9.022 -1.1986  0.1199  0.3315
  105OSM   C16S10734   3.334   2.442   8.920  0.0063  0.2855 -0.8687
  105OSM   H16S10735   3.386   2.344   8.929 -0.7178 -0.2548 -2.2563
  105OSM   H16T10736   3.409   2.521   8.940  0.9021 -0.3161 -1.7624
  105OSM   C17S10737   3.276   2.446   8.774 -0.1662 -0.0078 -0.6857
  105OSM   H17S10738   3.245   2.551   8.755 -4.1909 -0.7076  0.9271
  105OSM   H17T10739   3.182   2.385   8.772 -1.4466  1.8717 -0.2780
  105OSM   C18S10740   3.380   2.412   8.665 -0.3858  0.5993 -0.1873
  105OSM   H18S10741   3.334   2.431   8.566 -1.3020  0.3192  0.1701
  105OSM   H18T10742   3.424   2.310   8.668  0.8752  1.1361  2.1029
  105OSM   H18U10743   3.462   2.485   8.685  1.7713 -1.5824 -0.5876
  105OSM    C1F10744   2.560   2.402  10.337 -0.5623  0.4858  0.0476
  105OSM     OF10745   2.497   2.499  10.365 -0.4288  0.8197 -0.1224
  105OSM    C2F10746   2.510   2.297  10.241 -0.8674  0.1140 -0.4437
  105OSM    H2F10747   2.493   2.202  10.297 -3.3042  0.9584  0.3723
  105OSM    H2G10748   2.597   2.276  10.174 -1.0049 -0.1936 -0.5268
  105OSM    C3F10749   2.391   2.332  10.158 -0.2543  0.8376 -0.6645
  105OSM    H3F10750   2.407   2.424  10.097  0.1194 -0.4115 -2.5402
  105OSM    H3G10751   2.309   2.363  10.226 -1.7554 -2.6028 -0.6757
  105OSM    C4F10752   2.352   2.223  10.057 -0.6078  0.2735  0.1942
  105OSM    H4F10753   2.243   2.238  10.039 -0.3670  0.7787 -0.9437
  105OSM    H4G10754   2.366   2.117  10.088  1.2509 -0.2530 -2.1624
  105OSM    C5F10755   2.430   2.249   9.929 -0.3288  0.7458  0.4931
  105OSM    H5F10756   2.537   2.240   9.957 -0.3708 -2.4114 -0.0110
  105OSM    H5G10757   2.406   2.354   9.901 -0.5131  0.3462 -0.9643
  105OSM    C6F10758   2.393   2.145   9.825 -0.3958 -0.3932 -0.4126
  105OSM    H6F10759   2.285   2.140   9.799  0.0131 -0.4272 -2.2538
  105OSM    H6G10760   2.429   2.043   9.850 -1.2849 -0.2743  1.5467
  105OSM    C7F10761   2.448   2.181   9.688 -0.5724 -0.3971  0.2567
  105OSM    H7F10762   2.554   2.210   9.704 -1.0202  0.9910  0.8863
  105OSM    H7G10763   2.397   2.275   9.655  0.4345  0.3945  0.8822
  105OSM    C8F10764   2.415   2.072   9.587 -0.1952  0.3108  0.0355
  105OSM    H8F10765   2.427   2.109   9.483  0.5210  0.3199  0.1181
  105OSM    H8G10766   2.306   2.051   9.598 -0.3421  0.0944 -1.5898
  105OSM    C9F10767   2.501   1.950   9.608  0.3426 -0.6311 -0.4681
  105OSM    H9F10768   2.565   1.959   9.697 -1.0640  1.6209  0.3774
  105OSM   C10F10769   2.502   1.833   9.540  0.1113  0.0199  0.6865
  105OSM   H10F10770   2.572   1.754   9.570 -1.6234 -2.0592 -0.4194
  105OSM   C11F10771   2.425   1.783   9.419 -0.2577 -0.6120  0.0215
  105OSM   H11F10772   2.354   1.867   9.402  1.2563  0.7155 -0.0183
  105OSM   H11G10773   2.374   1.692   9.457  2.4325 -0.7374  3.9777
  105OSM   C12F10774   2.514   1.753   9.299  0.6994 -0.0116 -0.7783
  105OSM   H12F10775   2.456   1.697   9.223  1.2708 -4.3451  1.6437
  105OSM   H12G10776   2.593   1.683   9.334  1.8423  1.3537 -0.5096
  105OSM   C13F10777   2.595   1.866   9.227 -0.2440 -0.5335 -0.1859
  105OSM   H13F10778   2.653   1.908   9.312 -1.2856  0.3222  0.1221
  105OSM   H13G10779   2.521   1.940   9.190 -2.5110 -1.6632  1.7956
  105OSM   C14F10780   2.679   1.807   9.112 -0.0348  0.3410  0.1953
  105OSM   H14F10781   2.743   1.735   9.167 -0.2558 -0.4308 -0.5293
  105OSM   H14G10782   2.744   1.886   9.068 -0.8640  0.8812 -0.0924
  105OSM   C15F10783   2.591   1.742   9.005  0.3508 -0.3441  0.4082
  105OSM   H15F10784   2.503   1.807   8.989 -0.9576 -2.0389  0.3941
  105OSM   H15G10785   2.541   1.646   9.032  0.4101 -0.5396 -0.1763
  105OSM   C16F10786   2.664   1.709   8.872  0.4825  0.6208 -0.0698
  105OSM   H16F10787   2.764   1.665   8.894 -0.0317 -1.6471 -1.8803
  105OSM   H16G10788   2.678   1.807   8.822 -0.6847 -0.2268 -2.1698
  105OSM   C17F10789   2.579   1.620   8.776 -0.3132 -0.1940  0.0845
  105OSM   H17F10790   2.631   1.617   8.678  0.6604  0.4251  0.5633
  105OSM   H17G10791   2.479   1.666   8.765 -0.1013  0.3644  0.4545
  105OSM   C18F10792   2.562   1.476   8.818  0.1537 -0.8128 -0.4863
  105OSM   H18F10793   2.661   1.430   8.840 -0.0890 -0.5185  1.4308
  105OSM   H18G10794   2.506   1.419   8.740 -0.9982  0.7356 -0.8400
  105OSM   H18H10795   2.506   1.457   8.912 -1.4926 -1.3617 -1.5425
  106OSM      N10796   4.727   1.428  10.780 -0.8019  0.1591 -0.9545
  106OSM    C1510797   4.670   1.386  10.912 -0.0998 -0.1301 -0.0232
  106OSM   H15A10798   4.562   1.388  10.914 -0.1074 -0.7962  0.8924
  106OSM   H15B10799   4.708   1.454  10.987 -2.2451  0.4947  0.5379
  106OSM   H15C10800   4.698   1.282  10.925 -0.5901 -0.3875 -0.9437
  106OSM    C1410801   4.665   1.563  10.744 -0.5674  0.0491 -0.1732
  106OSM   H14A10802   4.708   1.606  10.655 -0.3941 -0.4506 -0.3309
  106OSM   H14B10803   4.690   1.628  10.827 -0.0824  2.8927 -2.4080
  106OSM   H14C10804   4.559   1.547  10.737 -0.4348 -0.5581 -0.8973
  106OSM    C1310805   4.877   1.438  10.797 -0.1326 -0.2143 -0.3432
  106OSM   H13A10806   4.925   1.483  10.710  0.5539  0.0350  0.1513
  106OSM   H13B10807   4.927   1.345  10.818 -0.3732 -0.1653  0.4442
  106OSM   H13C10808   4.895   1.505  10.879 -2.7414  0.9270 -0.6265
  106OSM    C1210809   4.698   1.332  10.672  0.1218 -0.1069  0.0523
  106OSM   H12A10810   4.756   1.242  10.684  1.8019  1.0660  1.0838
  106OSM   H12B10811   4.737   1.378  10.582 -0.5735  0.1694 -0.1223
  106OSM    C1110812   4.553   1.288  10.630 -0.1060 -0.0989  0.0308
  106OSM   H11A10813   4.510   1.251  10.726  1.6853  0.8124  1.2276
  106OSM   H11B10814   4.555   1.200  10.562  0.2097 -0.6045  0.6893
  106OSM      P10815   4.526   1.452  10.429  0.0278  0.2906  0.4443
  106OSM    O1310816   4.466   1.588  10.424  0.4989  0.0811 -0.4236
  106OSM    O1410817   4.674   1.448  10.426  0.8432  0.3096  0.5359
  106OSM    O1110818   4.467   1.354  10.321  0.1907  0.3295 -0.5372
  106OSM    O1210819   4.480   1.396  10.570 -1.0845 -0.1236  0.2210
  106OSM    C1S10820   4.336   1.293  10.325  0.0084  0.5694  0.7900
  106OSM    H1S10821   4.259   1.366  10.356 -0.5188  0.1007  0.5996
  106OSM    H1T10822   4.338   1.211  10.400  0.6258 -0.2551 -0.0880
  106OSM     NF10823   4.166   1.179  10.184 -0.0440  0.3010 -0.4019
  106OSM    HNF10824   4.143   1.084  10.201 -2.6856  0.7830 -0.8998
  106OSM    C2S10825   4.305   1.221  10.184  0.4146  0.5102 -0.2110
  106OSM    H2S10826   4.318   1.287  10.095  1.3423  1.1694  0.3839
  106OSM    C3S10827   4.401   1.100  10.143  0.4540 -0.3346 -0.4137
  106OSM    H3S10828   4.365   1.019  10.210 -0.5502  1.0881  0.8538
  106OSM     O310829   4.541   1.116  10.176 -0.3218 -0.3683 -0.2205
  106OSM    HO310830   4.548   1.199  10.224 -0.4816 -0.0016 -0.8119
  106OSM    C4S10831   4.383   1.070   9.997  0.2640 -0.5056 -0.3577
  106OSM    H4S10832   4.316   0.984   9.979 -1.9546  0.9559  0.4659
  106OSM    C5S10833   4.425   1.148   9.899  0.0038 -0.3433 -0.0817
  106OSM    H5S10834   4.483   1.238   9.921  2.0334 -0.6136 -3.6273
  106OSM    C6S10835   4.406   1.114   9.747  0.1480 -0.7980 -0.3266
  106OSM    H6S10836   4.433   1.011   9.717 -0.9015 -0.7631 -1.4773
  106OSM    H6T10837   4.461   1.189   9.687  2.4672 -1.2609  1.0875
  106OSM    C7S10838   4.257   1.125   9.707  0.0757 -0.9275  0.0596
  106OSM    H7S10839   4.191   1.053   9.759  0.3027  0.0653  1.8026
  106OSM    H7T10840   4.247   1.106   9.598  1.0869  0.5137 -0.3139
  106OSM    C8S10841   4.190   1.270   9.745 -0.4839  0.3089  0.0244
  106OSM    H8S10842   4.264   1.342   9.705 -0.0126  0.1760  0.6312
  106OSM    H8T10843   4.191   1.276   9.856 -0.5766  0.2472  0.0286
  106OSM    C9S10844   4.044   1.285   9.692 -0.0570 -0.2354 -0.3618
  106OSM    H9S10845   3.996   1.373   9.739 -0.0990 -0.3716 -0.1508
  106OSM    H9T10846   3.983   1.199   9.727 -0.1583  0.1379  0.4000
  106OSM   C10S10847   4.026   1.274   9.540  0.5188 -0.0798 -1.2536
  106OSM   H10S10848   3.915   1.278   9.530  0.4680  3.6889 -0.3838
  106OSM   H10T10849   4.068   1.181   9.496  0.2619 -0.5428 -0.5449
  106OSM   C11S10850   4.069   1.409   9.473  0.8055  0.2899  0.4376
  106OSM   H11S10851   4.162   1.453   9.514  1.2323 -1.0176  0.9354
  106OSM   H11T10852   3.996   1.487   9.503  0.0380 -0.4978  0.6837
  106OSM   C12S10853   4.089   1.394   9.322 -0.0492 -0.0229  0.3481
  106OSM   H12S10854   4.108   1.496   9.284 -3.1994  0.8203  0.6897
  106OSM   H12T10855   3.994   1.362   9.273 -0.3536  1.0038  0.2464
  106OSM   C13S10856   4.204   1.296   9.285  0.2598  0.0511 -0.0933
  106OSM   H13S10857   4.211   1.202   9.344 -2.2817  0.5022  1.0852
  106OSM   H13T10858   4.294   1.357   9.307 -1.2145  2.3458 -0.1256
  106OSM   C14S10859   4.198   1.257   9.138 -0.4157  0.0057  0.2950
  106OSM   H14S10860   4.098   1.212   9.116 -1.1367  1.9172 -0.4968
  106OSM   H14T10861   4.284   1.188   9.123 -0.5795 -0.9597  3.0947
  106OSM   C15S10862   4.227   1.373   9.043 -0.0040 -0.1047 -0.6764
  106OSM   H15S10863   4.323   1.428   9.056  1.3551 -2.0565 -1.9425
  106OSM   H15T10864   4.140   1.440   9.056  0.2565  0.0499  0.3554
  106OSM   C16S10865   4.226   1.323   8.896  0.1010  0.1546 -0.1097
  106OSM   H16S10866   4.129   1.275   8.869 -0.5102  1.1247  0.3300
  106OSM   H16T10867   4.292   1.234   8.889 -3.1497 -2.6781  1.9750
  106OSM   C17S10868   4.275   1.416   8.780  0.0423 -0.0531 -0.3759
  106OSM   H17S10869   4.369   1.462   8.818  0.0260  1.5476 -2.1603
  106OSM   H17T10870   4.195   1.492   8.775  0.0297 -0.1029 -1.0217
  106OSM   C18S10871   4.300   1.356   8.635  0.9804  0.1785  0.0850
  106OSM   H18S10872   4.336   1.427   8.557  0.8273 -1.6610 -1.7593
  106OSM   H18T10873   4.205   1.312   8.599 -0.5317  1.6745  2.0843
  106OSM   H18U10874   4.375   1.274   8.635 -0.1463 -0.8779  0.1968
  106OSM    C1F10875   4.074   1.279  10.177 -0.1695  0.0940 -0.7894
  106OSM     OF10876   4.111   1.400  10.188 -0.1021  0.1768 -0.0171
  106OSM    C2F10877   3.929   1.239  10.168 -0.5729 -0.5978 -0.2585
  106OSM    H2F10878   3.879   1.275  10.261  1.1475  0.1492  0.4196
  106OSM    H2G10879   3.919   1.128  10.168  1.4578 -0.8242  0.9055
  106OSM    C3F10880   3.864   1.304  10.045 -0.0317 -0.3767 -0.1757
  106OSM    H3F10881   3.922   1.279   9.954 -0.8159  1.7610 -1.3281
  106OSM    H3G10882   3.867   1.414  10.060 -0.3606 -0.6846  2.7420
  106OSM    C4F10883   3.720   1.271  10.015  0.2432  0.3808  0.0008
  106OSM    H4F10884   3.661   1.248  10.106  0.4554 -0.2575 -0.0133
  106OSM    H4G10885   3.722   1.171   9.966  0.6789 -0.2968  1.3461
  106OSM    C5F10886   3.636   1.373   9.937 -0.2374 -0.1446  0.5720
  106OSM    H5F10887   3.614   1.462  10.000 -3.3939 -0.9496  0.8022
  106OSM    H5G10888   3.532   1.335   9.924 -0.4312 -0.7731  3.4483
  106OSM    C6F10889   3.699   1.417   9.804 -0.2439  0.0856  0.4099
  106OSM    H6F10890   3.717   1.320   9.753 -1.1721  0.2496 -0.2496
  106OSM    H6G10891   3.796   1.468   9.821  0.4270 -0.9824 -0.0881
  106OSM    C7F10892   3.616   1.505   9.713 -0.1357 -0.5419  0.0459
  106OSM    H7F10893   3.594   1.598   9.769  0.7943 -1.4080  1.9411
  106OSM    H7G10894   3.523   1.452   9.683  0.7690 -1.2636 -1.6269
  106OSM    C8F10895   3.686   1.549   9.575  0.8672 -0.6304  0.6006
  106OSM    H8F10896   3.613   1.601   9.510  0.5891  0.0188  1.4197
  106OSM    H8G10897   3.713   1.458   9.517  1.9043  0.9723 -1.5733
  106OSM    C9F10898   3.804   1.643   9.590 -0.3224 -0.6265 -0.3400
  106OSM    H9F10899   3.863   1.644   9.683  1.2754  0.7456 -1.3030
  106OSM   C10F10900   3.837   1.735   9.500  0.0373 -0.9318 -0.5544
  106OSM   H10F10901   3.926   1.797   9.520 -0.7559 -0.2632  1.0998
  106OSM   C11F10902   3.769   1.770   9.370 -0.7359 -0.3285  0.5269
  106OSM   H11F10903   3.721   1.868   9.393  1.4503  1.1056 -0.7671
  106OSM   H11G10904   3.690   1.704   9.328 -1.0962  2.0304 -2.8338
  106OSM   C12F10905   3.886   1.807   9.269 -0.3180  0.1663 -0.2136
  106OSM   H12F10906   3.948   1.717   9.248 -1.6355 -1.0886  1.0315
  106OSM   H12G10907   3.951   1.889   9.307  3.8603 -3.0425  0.3281
  106OSM   C13F10908   3.842   1.861   9.130 -0.1304  0.0020 -0.0666
  106OSM   H13F10909   3.766   1.941   9.145 -0.7213 -0.4138 -0.7607
  106OSM   H13G10910   3.798   1.781   9.066 -0.5420  0.4666 -0.3657
  106OSM   C14F10911   3.957   1.917   9.051  0.4427  0.0644 -0.3191
  106OSM   H14F10912   4.043   1.846   9.055 -1.3709 -2.1822  1.0356
  106OSM   H14G10913   3.994   2.011   9.096  0.5766  0.0553 -0.4076
  106OSM   C15F10914   3.920   1.953   8.910 -0.0433  0.3532  0.9283
  106OSM   H15F10915   3.848   2.037   8.921  0.7286  1.0889  0.4472
  106OSM   H15G10916   3.877   1.867   8.854  0.4581 -0.2628  1.4651
  106OSM   C16F10917   4.044   2.010   8.845  0.7770 -0.3810 -0.1098
  106OSM   H16F10918   4.101   2.081   8.908 -0.6890  2.2926 -1.6045
  106OSM   H16G10919   4.013   2.078   8.763 -2.0110  0.6306  1.6244
  106OSM   C17F10920   4.137   1.900   8.795 -0.0190 -0.3960 -0.5354
  106OSM   H17F10921   4.141   1.811   8.862 -1.7061 -0.8306 -0.9637
  106OSM   H17G10922   4.236   1.946   8.776 -0.3438  0.3183 -0.5240
  106OSM   C18F10923   4.087   1.833   8.667 -0.5215 -0.6415  0.0655
  106OSM   H18F10924   4.058   1.919   8.603  0.5489  1.0143  1.7317
  106OSM   H18G10925   4.000   1.765   8.681  0.6180 -2.0369  0.6697
  106OSM   H18H10926   4.163   1.773   8.612 -1.6443 -1.7842 -0.2962
  107OSM      N10927   4.168   5.062  11.181  0.0284 -0.3899  0.2531
  107OSM    C1510928   4.129   4.921  11.178  0.1851  0.5831 -0.4501
  107OSM   H15A10929   4.121   4.879  11.277  4.2666  1.5144  0.4459
  107OSM   H15B10930   4.202   4.862  11.124  0.2527 -0.0354  0.2919
  107OSM   H15C10931   4.039   4.901  11.121 -0.9893  0.0337  1.4981
  107OSM    C1410932   4.083   5.133  11.278  0.5281  0.1893 -0.0700
  107OSM   H14A10933   4.110   5.089  11.373  0.4689  0.9798  0.3203
  107OSM   H14B10934   3.976   5.124  11.265 -0.1454  0.1595  4.2036
  107OSM   H14C10935   4.099   5.238  11.296 -2.7667  1.0980 -1.4857
  107OSM    C1310936   4.311   5.074  11.227 -0.8792  0.0145  0.0074
  107OSM   H13A10937   4.379   5.017  11.165  2.2810  1.6769  1.6925
  107OSM   H13B10938   4.325   5.023  11.321  3.4285 -2.5134 -1.6794
  107OSM   H13C10939   4.332   5.178  11.246 -1.0157 -0.2581  1.8429
  107OSM    C1210940   4.147   5.131  11.041  1.0632 -0.3434 -0.1924
  107OSM   H12A10941   4.154   5.238  11.056  1.8677 -0.5546  1.0663
  107OSM   H12B10942   4.049   5.109  11.000  0.5318 -0.6621  1.1990
  107OSM    C1110943   4.240   5.110  10.921 -0.4444  0.1218  0.1025
  107OSM   H11A10944   4.203   5.165  10.832 -2.0353 -0.7880  0.1605
  107OSM   H11B10945   4.241   5.000  10.900  3.2815 -0.0330  0.4110
  107OSM      P10946   4.492   5.072  10.884 -0.3748  0.4625  0.0644
  107OSM    O1310947   4.614   5.154  10.880 -0.7362  0.3119 -0.1838
  107OSM    O1410948   4.502   4.943  10.945  0.2057  0.0974 -0.6472
  107OSM    O1110949   4.446   5.059  10.732 -0.0350 -0.2943 -0.1533
  107OSM    O1210950   4.374   5.153  10.952 -0.2695  0.8868  0.1002
  107OSM    C1S10951   4.437   5.188  10.658  0.5731 -0.2585  0.7052
  107OSM    H1S10952   4.519   5.258  10.681 -1.8852  3.5084 -0.9756
  107OSM    H1T10953   4.350   5.249  10.691  0.7390  1.3722 -1.6472
  107OSM     NF10954   4.426   5.295  10.437 -0.4521 -0.6357 -0.0765
  107OSM    HNF10955   4.338   5.335  10.414 -0.1277  0.0185 -0.1901
  107OSM    C2S10956   4.418   5.164  10.503  0.2889 -0.0100  0.3378
  107OSM    H2S10957   4.503   5.097  10.480  0.8063 -0.0311  2.1359
  107OSM    C3S10958   4.287   5.080  10.483 -0.2525 -0.6789 -0.7150
  107OSM    H3S10959   4.203   5.141  10.523 -0.9537 -0.8138 -1.9518
  107OSM     O310960   4.272   4.961  10.571 -0.1805 -0.8360 -0.2306
  107OSM    HO310961   4.348   4.974  10.628 -0.1373  0.6241 -0.5625
  107OSM    C4S10962   4.265   5.046  10.338  0.1712  0.4196 -0.4349
  107OSM    H4S10963   4.229   5.136  10.286 -1.7093 -0.3908 -0.6077
  107OSM    C5S10964   4.296   4.930  10.276  0.5983 -0.4592 -0.0513
  107OSM    H5S10965   4.349   4.855  10.336  1.1414  1.1095  1.5148
  107OSM    C6S10966   4.280   4.903  10.131  0.2640  0.2767  0.1173
  107OSM    H6S10967   4.218   4.812  10.119 -3.2164  2.3816  0.6418
  107OSM    H6T10968   4.381   4.888  10.086 -0.7758 -1.3322 -1.8126
  107OSM    C7S10969   4.202   5.004  10.034 -0.2090 -0.0003 -0.7490
  107OSM    H7S10970   4.251   5.103  10.043  1.4129 -0.9272  1.9542
  107OSM    H7T10971   4.093   5.007  10.056  0.0804  3.2576  0.7701
  107OSM    C8S10972   4.211   4.973   9.888 -0.4262  0.3721 -0.9455
  107OSM    H8S10973   4.141   5.033   9.826 -1.0101  1.1427  0.4052
  107OSM    H8T10974   4.190   4.864   9.882 -0.7538  0.3040  0.9019
  107OSM    C9S10975   4.357   5.001   9.839  0.6651  0.2406  0.2525
  107OSM    H9S10976   4.424   4.931   9.893  2.0671  2.1608  1.1022
  107OSM    H9T10977   4.383   5.101   9.879 -0.6856  0.4599  0.6572
  107OSM   C10S10978   4.380   4.996   9.685  0.1442 -0.7018 -0.9498
  107OSM   H10S10979   4.301   5.060   9.639 -0.0914  0.2432  0.6905
  107OSM   H10T10980   4.362   4.889   9.659 -0.6389 -1.1501  1.2283
  107OSM   C11S10981   4.518   5.046   9.630 -0.3804 -0.2604 -0.8130
  107OSM   H11S10982   4.610   5.009   9.681  0.8721  1.8079 -1.4505
  107OSM   H11T10983   4.508   5.155   9.646 -0.3257 -0.5830  1.7612
  107OSM   C12S10984   4.531   5.037   9.477 -0.7771  0.1413 -0.1417
  107OSM   H12S10985   4.609   5.109   9.445 -1.6758  1.5672  0.7895
  107OSM   H12T10986   4.431   5.056   9.432 -0.4164  1.9016 -0.2724
  107OSM   C13S10987   4.558   4.892   9.431  0.6736 -0.2636 -0.0522
  107OSM   H13S10988   4.490   4.830   9.494  0.9404  0.4049  0.9124
  107OSM   H13T10989   4.665   4.867   9.440  1.1721  2.4183  2.6574
  107OSM   C14S10990   4.515   4.862   9.280 -0.0930  0.2489  0.4132
  107OSM   H14S10991   4.576   4.924   9.210 -1.2108 -0.4542 -1.2388
  107OSM   H14T10992   4.408   4.880   9.255 -0.1691 -2.2430 -1.3822
  107OSM   C15S10993   4.545   4.717   9.242  0.0288 -0.0071 -0.5009
  107OSM   H15S10994   4.474   4.639   9.278  1.7354 -1.0712  0.7561
  107OSM   H15T10995   4.644   4.689   9.285  0.1261  0.6715 -0.2646
  107OSM   C16S10996   4.556   4.695   9.088 -0.5625 -0.4859 -0.8403
  107OSM   H16S10997   4.553   4.584   9.079  1.6602 -0.6432 -0.2499
  107OSM   H16T10998   4.654   4.724   9.046 -0.0052 -1.0760  0.0225
  107OSM   C17S10999   4.427   4.744   9.019  0.6834 -0.0475  0.4647
  107OSM   H17S11000   4.432   4.854   9.033  0.1992 -0.0233  0.4662
  107OSM   H17T11001   4.338   4.689   9.056  1.1037 -1.1253 -0.0925
  107OSM   C18S11002   4.426   4.713   8.866  1.0673  0.2076 -0.2571
  107OSM   H18S11003   4.446   4.606   8.844  0.3948 -0.0188  0.1806
  107OSM   H18T11004   4.508   4.769   8.817  0.9904  0.1252 -0.4829
  107OSM   H18U11005   4.338   4.753   8.811  0.1119  0.1636  1.1705
  107OSM    C1F11006   4.535   5.373  10.435 -0.2322 -0.2464 -0.1042
  107OSM     OF11007   4.644   5.325  10.481 -0.6996  0.1607  0.9995
  107OSM    C2F11008   4.517   5.516  10.381 -0.4840 -0.1730 -0.3993
  107OSM    H2F11009   4.569   5.579  10.457  0.2481 -0.4729 -0.6439
  107OSM    H2G11010   4.413   5.545  10.359 -2.2298 -2.5662  3.6202
  107OSM    C3F11011   4.590   5.530  10.247 -0.2959 -1.0598  0.4323
  107OSM    H3F11012   4.696   5.502  10.263  1.0130  4.0609  2.7760
  107OSM    H3G11013   4.584   5.636  10.212  0.5824 -1.6708 -1.7298
  107OSM    C4F11014   4.526   5.446  10.132  0.0227  0.1150 -0.1028
  107OSM    H4F11015   4.421   5.479  10.121 -0.2124 -0.0745  1.3458
  107OSM    H4G11016   4.510   5.341  10.164 -0.3861 -0.5993 -2.4277
  107OSM    C5F11017   4.620   5.434  10.013 -0.1184  0.0240 -0.6049
  107OSM    H5F11018   4.724   5.411  10.041 -0.4951  0.8470  1.6706
  107OSM    H5G11019   4.601   5.540   9.986 -2.5781  0.4964  2.3246
  107OSM    C6F11020   4.581   5.338   9.896 -0.1737  0.0137  0.3017
  107OSM    H6F11021   4.487   5.287   9.926  1.6683 -3.8224  0.0785
  107OSM    H6G11022   4.653   5.255   9.881  0.0865  0.3079 -0.0815
  107OSM    C7F11023   4.559   5.416   9.762  0.1257 -0.2902  0.1861
  107OSM    H7F11024   4.513   5.511   9.796  0.5986 -0.1812  0.5270
  107OSM    H7G11025   4.505   5.357   9.685  1.0942 -2.1601  0.8783
  107OSM    C8F11026   4.704   5.456   9.707 -0.1554  0.3140 -0.1258
  107OSM    H8F11027   4.767   5.476   9.796  2.1407 -0.9281 -1.4001
  107OSM    H8G11028   4.692   5.554   9.655 -0.8621  0.5999  0.5502
  107OSM    C9F11029   4.759   5.343   9.616  1.0004 -0.7893  0.2046
  107OSM    H9F11030   4.800   5.249   9.657  2.3616  1.3511  4.3366
  107OSM   C10F11031   4.755   5.352   9.481  0.0360  0.0320 -0.5674
  107OSM   H10F11032   4.790   5.266   9.422  0.6967 -0.9618  1.2054
  107OSM   C11F11033   4.703   5.474   9.404 -0.9165  0.3069 -0.2086
  107OSM   H11F11034   4.789   5.535   9.368 -0.4291 -0.6483 -0.6972
  107OSM   H11G11035   4.636   5.529   9.473 -0.6332 -1.7179  1.8002
  107OSM   C12F11036   4.618   5.431   9.289  0.4175 -0.0508 -0.1930
  107OSM   H12F11037   4.572   5.523   9.245 -0.3155  0.8146  2.2053
  107OSM   H12G11038   4.528   5.371   9.313  0.7430 -1.2578 -1.7606
  107OSM   C13F11039   4.692   5.352   9.183 -0.8767 -0.2963  0.2883
  107OSM   H13F11040   4.767   5.294   9.242  0.1166 -0.1391 -0.7946
  107OSM   H13G11041   4.762   5.420   9.129  1.5346 -0.5818  2.8211
  107OSM   C14F11042   4.612   5.263   9.093  0.9264 -0.1051 -0.0308
  107OSM   H14F11043   4.556   5.334   9.028 -1.3777 -2.2751 -0.6040
  107OSM   H14G11044   4.545   5.192   9.145  0.3982  1.0319  0.8878
  107OSM   C15F11045   4.704   5.176   9.015 -0.4066  0.5461 -0.3008
  107OSM   H15F11046   4.736   5.091   9.078 -3.1249  0.1063  0.6362
  107OSM   H15G11047   4.793   5.237   8.988 -1.7952  2.2568 -1.2544
  107OSM   C16F11048   4.643   5.132   8.882  0.3703 -0.0319  0.6102
  107OSM   H16F11049   4.605   5.215   8.819 -0.7890 -1.3483 -0.5126
  107OSM   H16G11050   4.550   5.075   8.906 -0.5049  0.8939 -0.5039
  107OSM   C17F11051   4.751   5.049   8.805 -0.0732 -0.9669  0.7813
  107OSM   H17F11052   4.845   5.101   8.776  1.7970 -3.0452  2.7244
  107OSM   H17G11053   4.703   5.021   8.709  0.3533  2.0600 -0.4364
  107OSM   C18F11054   4.801   4.925   8.873  0.3233  0.0578  0.1030
  107OSM   H18F11055   4.879   4.867   8.819  1.9709  0.8064  1.5920
  107OSM   H18G11056   4.728   4.844   8.899  0.6833  0.1454  1.4378
  107OSM   H18H11057   4.854   4.958   8.965  0.5550 -0.3664  0.1249
  108OSM      N11058   1.491   2.413  10.424  0.5514 -0.0587  0.3474
  108OSM    C1511059   1.397   2.535  10.414 -0.2419 -0.4118 -0.8126
  108OSM   H15A11060   1.418   2.584  10.320 -0.6216 -1.3745 -1.4217
  108OSM   H15B11061   1.403   2.601  10.499 -1.9848 -1.2123 -0.0025
  108OSM   H15C11062   1.294   2.503  10.410 -0.1110 -0.8455 -0.8504
  108OSM    C1411063   1.441   2.316  10.527  0.5362 -0.0894 -0.0358
  108OSM   H14A11064   1.432   2.367  10.622 -1.1537 -1.5291  0.6326
  108OSM   H14B11065   1.512   2.237  10.548  0.7592  0.3528  0.9670
  108OSM   H14C11066   1.347   2.272  10.498  1.0657 -1.3518  0.1074
  108OSM    C1311067   1.493   2.356  10.291  0.0532 -0.5988  0.2363
  108OSM   H13A11068   1.535   2.256  10.296  1.1167 -0.2114 -0.4441
  108OSM   H13B11069   1.553   2.419  10.226  0.4689  1.4581  2.4781
  108OSM   H13C11070   1.393   2.347  10.253 -0.7386  0.5393  1.9427
  108OSM    C1211071   1.625   2.469  10.471  0.5593  0.3148 -0.6795
  108OSM   H12A11072   1.661   2.539  10.397 -0.4080  1.2081 -0.3307
  108OSM   H12B11073   1.700   2.394  10.456  0.8399  0.1798  1.2397
  108OSM    C1111074   1.639   2.525  10.612  0.5319  0.3188 -0.9007
  108OSM   H11A11075   1.549   2.584  10.639  0.3993  0.3037 -1.3023
  108OSM   H11B11076   1.721   2.600  10.610 -2.0280  3.3702  0.3899
  108OSM      P11077   1.817   2.361  10.714  0.1528 -0.0272 -0.0995
  108OSM    O1311078   1.917   2.474  10.725  0.3351  0.8392  0.4351
  108OSM    O1411079   1.834   2.257  10.821  0.3654  0.4150 -0.6248
  108OSM    O1111080   1.847   2.288  10.580 -0.3501  0.7507 -0.1024
  108OSM    O1211081   1.670   2.427  10.711 -0.4230 -0.0258 -0.1280
  108OSM    C1S11082   1.782   2.162  10.554 -0.0876  0.2027  0.3535
  108OSM    H1S11083   1.675   2.169  10.581 -0.2505 -2.9644  0.9476
  108OSM    H1T11084   1.823   2.073  10.607 -3.1632 -1.2879  0.4108
  108OSM     NF11085   1.736   1.992  10.390  0.7008 -0.5744  0.4641
  108OSM    HNF11086   1.793   1.911  10.402  0.8967 -0.2384  2.0205
  108OSM    C2S11087   1.800   2.118  10.405 -0.5836 -0.2284  0.0032
  108OSM    H2S11088   1.759   2.195  10.336  0.6689 -0.7128 -1.3332
  108OSM    C3S11089   1.953   2.104  10.379  0.6541 -0.0925 -1.1162
  108OSM    H3S11090   1.992   2.017  10.436  1.1321  1.2905  0.7845
  108OSM     O311091   2.043   2.208  10.423 -0.3210  0.2254  0.0251
  108OSM    HO311092   1.996   2.265  10.484  2.8485  2.7812  0.3026
  108OSM    C4S11093   1.982   2.076  10.230 -0.2297  0.2520 -0.3452
  108OSM    H4S11094   1.945   2.163  10.173 -3.7258  0.9641  2.6417
  108OSM    C5S11095   2.038   1.966  10.179 -0.0624  0.6509  0.5644
  108OSM    H5S11096   2.048   1.888  10.256 -0.8190  0.3550  0.3667
  108OSM    C6S11097   2.056   1.931  10.037  0.1982  0.1446 -0.2911
  108OSM    H6S11098   2.009   1.831  10.026 -0.5553  0.0426  2.8343
  108OSM    H6T11099   2.165   1.931  10.017  0.6053 -1.9349  1.5409
  108OSM    C7S11100   2.002   2.018   9.924 -0.4716  0.5635 -0.0134
  108OSM    H7S11101   2.054   2.116   9.927  1.7142 -0.5202 -0.3810
  108OSM    H7T11102   1.894   2.045   9.934 -0.0082  1.6437  3.0453
  108OSM    C8S11103   2.034   1.957   9.790 -0.3918 -0.0629  0.2876
  108OSM    H8S11104   2.016   1.848   9.803 -0.7798 -0.3034 -1.8921
  108OSM    H8T11105   2.144   1.967   9.785 -0.3130 -0.5979  0.8482
  108OSM    C9S11106   1.955   2.006   9.667 -0.4841 -0.2233  0.8923
  108OSM    H9S11107   1.976   2.114   9.652 -1.1696 -0.1635  0.2599
  108OSM    H9T11108   1.847   1.981   9.673  0.2390 -3.4609  4.4276
  108OSM   C10S11109   1.996   1.936   9.538  0.6011 -0.2665 -0.0375
  108OSM   H10S11110   1.984   1.827   9.554  1.8536 -0.3265  0.5555
  108OSM   H10T11111   2.098   1.962   9.503  0.5224 -0.4702 -0.4216
  108OSM   C11S11112   1.915   1.992   9.418 -0.2591  0.4786 -0.2160
  108OSM   H11S11113   1.927   2.100   9.396 -1.0721  0.7277  0.4896
  108OSM   H11T11114   1.807   1.975   9.439 -0.0274 -1.9874 -0.6676
  108OSM   C12S11115   1.949   1.921   9.292  0.2875  0.8280 -0.1943
  108OSM   H12S11116   1.940   1.812   9.310  1.5171  1.0587  2.1998
  108OSM   H12T11117   2.056   1.929   9.265  0.1542 -0.0447 -1.0439
  108OSM   C13S11118   1.869   1.964   9.170 -0.1168 -0.3389 -0.6027
  108OSM   H13S11119   1.883   2.074   9.167  4.1848 -0.7170 -0.9119
  108OSM   H13T11120   1.761   1.942   9.181  0.0432 -0.6593  0.5194
  108OSM   C14S11121   1.925   1.910   9.034 -0.0042 -0.5195 -0.6921
  108OSM   H14S11122   1.926   1.800   9.045 -0.0994 -0.4425  0.0893
  108OSM   H14T11123   2.032   1.939   9.024  0.7281 -2.7606  0.1595
  108OSM   C15S11124   1.842   1.953   8.910  0.5624  0.6167 -0.0386
  108OSM   H15S11125   1.740   1.910   8.901 -0.4752  2.9328 -0.0179
  108OSM   H15T11126   1.910   1.913   8.831  1.0208 -0.4468  0.8633
  108OSM   C16S11127   1.840   2.099   8.870 -0.8547 -0.1567 -0.1283
  108OSM   H16S11128   1.941   2.140   8.887 -1.0347  1.0679 -1.8608
  108OSM   H16T11129   1.769   2.153   8.937 -0.6532  1.0119 -0.8476
  108OSM   C17S11130   1.794   2.122   8.729  0.2750  0.2518 -0.2988
  108OSM   H17S11131   1.882   2.111   8.662 -0.3316 -0.7804 -0.9542
  108OSM   H17T11132   1.771   2.231   8.722  1.2542  0.5217  0.4938
  108OSM   C18S11133   1.676   2.036   8.675  0.2006  0.4965  0.0825
  108OSM   H18S11134   1.687   1.928   8.700  3.5173  0.6905 -0.1637
  108OSM   H18T11135   1.684   2.034   8.564  1.6640  0.8285  0.1632
  108OSM   H18U11136   1.574   2.074   8.696 -0.9763 -1.4804 -1.6114
  108OSM    C1F11137   1.602   1.972  10.385  0.5435  0.5638  0.2215
  108OSM     OF11138   1.521   2.066  10.391  0.3029 -0.0957  0.3881
  108OSM    C2F11139   1.559   1.830  10.378  0.7672 -0.4776 -0.7489
  108OSM    H2F11140   1.581   1.798  10.482  0.6635 -0.4307 -0.7119
  108OSM    H2G11141   1.633   1.776  10.316  0.0227 -0.1425 -1.9865
  108OSM    C3F11142   1.412   1.805  10.341  0.3946 -0.2247  0.4425
  108OSM    H3F11143   1.348   1.862  10.412  1.2837 -0.3317  1.3581
  108OSM    H3G11144   1.389   1.698  10.360  0.6149 -0.1895  0.9318
  108OSM    C4F11145   1.371   1.835  10.195 -0.2821  0.0214 -0.0875
  108OSM    H4F11146   1.384   1.944  10.179  1.2071  0.0199  0.9509
  108OSM    H4G11147   1.267   1.795  10.195 -0.4786  0.2292  3.3630
  108OSM    C5F11148   1.458   1.760  10.089  0.7968  0.2927 -0.2101
  108OSM    H5F11149   1.485   1.659  10.127 -1.6016 -0.1117  0.5859
  108OSM    H5G11150   1.545   1.829  10.078  3.5778 -2.4773  2.3204
  108OSM    C6F11151   1.395   1.747   9.953  0.7328  0.1268 -0.0848
  108OSM    H6F11152   1.473   1.713   9.883  0.6872 -1.9386  0.8146
  108OSM    H6G11153   1.366   1.851   9.924 -2.8210 -0.2468  1.6202
  108OSM    C7F11154   1.271   1.653   9.953  0.8985  0.5038  0.2001
  108OSM    H7F11155   1.191   1.711  10.004 -0.4038 -0.2865 -0.8615
  108OSM    H7G11156   1.293   1.554  10.000  0.7648  0.3037 -0.1517
  108OSM    C8F11157   1.199   1.621   9.822  0.0307 -0.6955 -0.2805
  108OSM    H8F11158   1.193   1.713   9.760  1.2920  0.0154  0.5911
  108OSM    H8G11159   1.101   1.575   9.845 -0.0647 -0.0930  0.5634
  108OSM    C9F11160   1.289   1.529   9.745 -0.0413 -0.3280  1.0609
  108OSM    H9F11161   1.391   1.523   9.788 -0.1565 -0.2877  1.3406
  108OSM   C10F11162   1.255   1.445   9.642  0.2547 -0.4006 -0.0368
  108OSM   H10F11163   1.332   1.374   9.610  1.4415  0.0989  1.6190
  108OSM   C11F11164   1.122   1.432   9.575  0.2600  0.4445  0.0517
  108OSM   H11F11165   1.057   1.507   9.625  1.7442  0.2341  2.4225
  108OSM   H11G11166   1.080   1.334   9.605  2.9564 -0.4184  1.2457
  108OSM   C12F11167   1.098   1.465   9.427  0.3409  0.3880  0.1664
  108OSM   H12F11168   1.141   1.565   9.405 -2.5587  1.5318 -0.7513
  108OSM   H12G11169   0.991   1.476   9.400  0.8520  0.5997 -1.9474
  108OSM   C13F11170   1.157   1.360   9.326 -0.3785 -0.5753 -0.3313
  108OSM   H13F11171   1.121   1.258   9.349  1.0286 -0.7052  1.6677
  108OSM   H13G11172   1.268   1.360   9.336 -0.1390  0.1393 -2.5732
  108OSM   C14F11173   1.121   1.385   9.180  0.2393 -0.2935  0.1124
  108OSM   H14F11174   1.012   1.398   9.167  0.1882 -1.9578 -1.6105
  108OSM   H14G11175   1.149   1.296   9.120  1.8302  0.6908 -0.6828
  108OSM   C15F11176   1.181   1.512   9.125 -0.9105  0.0693 -0.1327
  108OSM   H15F11177   1.291   1.522   9.132 -0.8811  1.0974 -1.6111
  108OSM   H15G11178   1.146   1.607   9.172  0.5705  1.4600 -1.7103
  108OSM   C16F11179   1.136   1.536   8.985  0.3663 -0.1316 -0.0762
  108OSM   H16F11180   1.185   1.625   8.939  0.9390 -0.0215  0.7259
  108OSM   H16G11181   1.028   1.559   8.996  0.3731 -0.0285 -0.2102
  108OSM   C17F11182   1.160   1.426   8.888  0.1662  0.1565 -0.1551
  108OSM   H17F11183   1.125   1.460   8.787 -0.4637 -1.8261 -0.6474
  108OSM   H17G11184   1.101   1.337   8.918  0.7734  0.1850  1.1542
  108OSM   C18F11185   1.308   1.389   8.875 -0.7005 -0.1159  0.3660
  108OSM   H18F11186   1.329   1.323   8.961 -2.3627 -1.3702 -0.1565
  108OSM   H18G11187   1.377   1.477   8.873 -1.8788  0.9917  3.3153
  108OSM   H18H11188   1.317   1.333   8.779 -1.5174  0.3270  0.0181
  109OSM      N11189   0.557   2.232  10.729 -0.6891 -0.3105 -0.2454
  109OSM    C1511190   0.551   2.316  10.860 -0.7445  0.3123 -0.0659
  109OSM   H15A11191   0.468   2.282  10.920 -1.3715 -2.1284 -2.1246
  109OSM   H15B11192   0.544   2.423  10.855 -0.8552  0.3205  0.2452
  109OSM   H15C11193   0.643   2.297  10.912  0.9679  1.5312 -2.4433
  109OSM    C1411194   0.681   2.278  10.662  0.3533  0.1305  0.3538
  109OSM   H14A11195   0.769   2.269  10.724  1.3361  0.8912 -0.8613
  109OSM   H14B11196   0.672   2.378  10.622  1.5998  0.3868  0.6632
  109OSM   H14C11197   0.700   2.208  10.581  0.4377 -2.9994  2.8814
  109OSM    C1311198   0.567   2.088  10.752  0.2088  0.0777 -0.0308
  109OSM   H13A11199   0.492   2.058  10.824  0.1803 -0.5992 -0.3331
  109OSM   H13B11200   0.663   2.058  10.792  0.5602  1.2846  0.0561
  109OSM   H13C11201   0.540   2.031  10.664  1.8415 -1.0338  0.1460
  109OSM    C1211202   0.430   2.262  10.638 -0.3367  0.7083 -0.1724
  109OSM   H12A11203   0.435   2.364  10.602  1.6701  0.3902 -0.9702
  109OSM   H12B11204   0.344   2.258  10.703  1.1170  1.9950  1.9646
  109OSM    C1111205   0.408   2.173  10.516 -0.1659  1.0337 -0.0379
  109OSM   H11A11206   0.506   2.170  10.465  1.0337  0.8043  2.1527
  109OSM   H11B11207   0.329   2.209  10.447  0.4293 -0.1554 -1.3939
  109OSM      P11208   0.234   1.999  10.602  0.2989  0.1138 -0.4938
  109OSM    O1311209   0.242   1.866  10.664 -0.2645 -0.0142 -0.1764
  109OSM    O1411210   0.173   2.103  10.688 -0.4752 -0.7259  0.1523
  109OSM    O1111211   0.147   1.985  10.469 -0.1650  1.2504 -0.3656
  109OSM    O1211212   0.378   2.033  10.555 -0.0304  0.0533 -0.6099
  109OSM    C1S11213   0.066   2.093  10.424  0.9477 -0.3264  0.6763
  109OSM    H1S11214   0.112   2.194  10.434 -1.8504  0.9954  1.0570
  109OSM    H1T11215  -0.024   2.105  10.488 -2.9226  0.5806 -4.2934
  109OSM     NF11216  -0.050   2.192  10.218 -0.1776  0.3490 -0.4527
  109OSM    HNF11217  -0.150   2.200  10.212 -0.4635 -2.7146 -1.6571
  109OSM    C2S11218   0.010   2.069  10.276  0.2535 -0.5408 -0.5120
  109OSM    H2S11219   0.094   2.041  10.209 -0.2797 -1.7636 -0.6858
  109OSM    C3S11220  -0.087   1.947  10.286  0.1019  0.4980  0.0781
  109OSM    H3S11221  -0.168   1.981  10.353  0.9132 -0.7959  1.8126
  109OSM     O311222  -0.035   1.835  10.350 -0.0309  0.2980 -0.0895
  109OSM    HO311223   0.047   1.873  10.383 -0.4928  0.4689  0.9079
  109OSM    C4S11224  -0.152   1.914  10.154  0.6193  0.2690 -0.0680
  109OSM    H4S11225  -0.234   1.985  10.133  0.8374  1.1050  1.6871
  109OSM    C5S11226  -0.108   1.816  10.061  0.3564 -0.1392 -0.1591
  109OSM    H5S11227  -0.027   1.743  10.079 -0.6605 -1.4889 -0.9191
  109OSM    C6S11228  -0.181   1.792   9.933  0.7567  1.0777 -1.2755
  109OSM    H6S11229  -0.283   1.836   9.933  0.8182  1.2536 -2.4522
  109OSM    H6T11230  -0.194   1.681   9.935  2.0682  0.8673  2.4651
  109OSM    C7S11231  -0.095   1.839   9.816  0.3954 -0.0508  0.2212
  109OSM    H7S11232   0.005   1.790   9.819  0.5525  0.1899 -0.6824
  109OSM    H7T11233  -0.104   1.949   9.807 -0.5722 -0.1857 -0.6388
  109OSM    C8S11234  -0.145   1.789   9.683 -0.2628  1.2024  0.3179
  109OSM    H8S11235  -0.246   1.835   9.681 -0.5936  0.5052  0.3961
  109OSM    H8T11236  -0.145   1.678   9.677 -0.2880  1.2052  0.2581
  109OSM    C9S11237  -0.063   1.853   9.565 -0.0744 -0.1848 -0.5192
  109OSM    H9S11238   0.041   1.818   9.581 -0.0068 -0.0009 -0.5607
  109OSM    H9T11239  -0.057   1.963   9.577  0.5932 -0.3638  0.9546
  109OSM   C10S11240  -0.116   1.807   9.432  0.0171 -0.1879  0.6116
  109OSM   H10S11241  -0.222   1.837   9.415  0.5347  0.9294 -0.8051
  109OSM   H10T11242  -0.100   1.697   9.424 -0.8429 -0.5080  2.6609
  109OSM   C11S11243  -0.048   1.883   9.322  0.0976  0.1175  0.1370
  109OSM   H11S11244   0.062   1.875   9.336 -0.0089  0.5717  1.3620
  109OSM   H11T11245  -0.068   1.990   9.346  0.3127 -0.1417  1.5217
  109OSM   C12S11246  -0.104   1.846   9.189 -0.5883  0.6305 -0.2977
  109OSM   H12S11247  -0.210   1.878   9.194 -0.5373  0.9770 -1.2492
  109OSM   H12T11248  -0.098   1.738   9.165 -1.3844  0.6184 -0.4754
  109OSM   C13S11249  -0.042   1.931   9.073 -0.0170  0.7674 -0.1493
  109OSM   H13S11250   0.054   1.885   9.040 -0.0017  2.0751 -2.0979
  109OSM   H13T11251  -0.002   2.028   9.111  2.5045 -0.0143 -0.6154
  109OSM   C14S11252  -0.137   1.939   8.958 -0.7475 -0.0648  0.0272
  109OSM   H14S11253  -0.237   1.975   8.990 -0.2226 -1.3374  3.5750
  109OSM   H14T11254  -0.164   1.839   8.920 -1.9347 -0.0071  0.6917
  109OSM   C15S11255  -0.069   2.016   8.843  0.7429  0.0895 -0.3831
  109OSM   H15S11256   0.031   1.974   8.822  1.2525  2.0777 -2.1894
  109OSM   H15T11257  -0.052   2.120   8.878  0.2361  0.8251 -2.2173
  109OSM   C16S11258  -0.155   2.013   8.716 -1.0071 -0.8754 -0.4728
  109OSM   H16S11259  -0.248   2.072   8.729  0.4941  1.9127 -1.5629
  109OSM   H16T11260  -0.173   1.908   8.684  0.0054 -1.1414 -0.2087
  109OSM   C17S11261  -0.073   2.075   8.601  0.2626  0.2595 -0.8449
  109OSM   H17S11262   0.024   2.023   8.585  0.5719  0.0637  1.3614
  109OSM   H17T11263  -0.052   2.183   8.615 -0.6150  0.6248 -2.1925
  109OSM   C18S11264  -0.139   2.048   8.468  0.1696  0.1414  0.6024
  109OSM   H18S11265  -0.242   2.088   8.462 -0.5665 -1.3159  2.6372
  109OSM   H18T11266  -0.160   1.940   8.454 -1.4684  0.6324 -1.3389
  109OSM   H18U11267  -0.082   2.095   8.384  1.2478  1.4255  1.9935
  109OSM    C1F11268   0.029   2.289  10.175 -0.1185  0.2255  0.3378
  109OSM     OF11269   0.151   2.277  10.189 -0.5248  0.6689 -0.4707
  109OSM    C2F11270  -0.033   2.400  10.092  0.1437  0.0366  0.4168
  109OSM    H2F11271  -0.082   2.468  10.164  1.4814 -0.3779  1.7808
  109OSM    H2G11272  -0.109   2.353  10.026  2.3424 -1.8383 -0.9299
  109OSM    C3F11273   0.068   2.490  10.012 -0.7477 -0.2205 -0.2718
  109OSM    H3F11274   0.147   2.428   9.965 -0.3070 -0.9871  1.4065
  109OSM    H3G11275   0.111   2.557  10.090  0.8590 -1.1520 -0.3179
  109OSM    C4F11276   0.004   2.565   9.896 -0.1046 -1.1649 -0.1673
  109OSM    H4F11277  -0.072   2.631   9.944  1.2257 -0.6905  1.3786
  109OSM    H4G11278  -0.055   2.497   9.830 -1.9658  0.4027 -0.2142
  109OSM    C5F11279   0.110   2.646   9.812  0.3252  0.1594  0.1428
  109OSM    H5F11280   0.203   2.586   9.810  2.0367  2.5254  2.4083
  109OSM    H5G11281   0.140   2.736   9.869  1.4392 -0.3244  0.3551
  109OSM    C6F11282   0.072   2.668   9.666  0.0913  0.1290 -0.7451
  109OSM    H6F11283  -0.016   2.736   9.668  1.5926  2.1629 -0.6014
  109OSM    H6G11284   0.041   2.566   9.635  0.9647 -0.8408  1.3434
  109OSM    C7F11285   0.175   2.723   9.565  0.4895 -0.2035  0.2029
  109OSM    H7F11286   0.263   2.655   9.554  0.8959  0.4602 -0.7438
  109OSM    H7G11287   0.203   2.828   9.589 -1.7320  0.4294  0.2491
  109OSM    C8F11288   0.117   2.711   9.425 -0.3652 -0.7160  0.1332
  109OSM    H8F11289   0.022   2.770   9.423  0.2077  0.2326  0.2393
  109OSM    H8G11290   0.093   2.606   9.400 -0.2264 -0.0502 -3.1935
  109OSM    C9F11291   0.215   2.752   9.322  0.1192  0.1167 -0.4301
  109OSM    H9F11292   0.320   2.771   9.347  0.0644 -2.1881  2.0943
  109OSM   C10F11293   0.179   2.755   9.187 -0.0644  1.1531  0.1345
  109OSM   H10F11294   0.260   2.751   9.113 -0.2856 -1.8209 -0.0925
  109OSM   C11F11295   0.037   2.742   9.130 -0.5816 -0.2095 -0.0141
  109OSM   H11F11296  -0.018   2.654   9.169 -0.7784 -0.6460 -1.2258
  109OSM   H11G11297   0.058   2.717   9.023  2.5760  3.3876 -0.4540
  109OSM   C12F11298  -0.040   2.875   9.124  0.5637 -0.3694  0.2264
  109OSM   H12F11299   0.027   2.963   9.116 -0.1308  0.4450  2.3858
  109OSM   H12G11300  -0.096   2.898   9.218  0.0167 -1.1349  0.0953
  109OSM   C13F11301  -0.152   2.889   9.017 -0.3308 -0.1892 -0.4593
  109OSM   H13F11302  -0.236   2.946   9.062  0.4492  0.5395  0.1209
  109OSM   H13G11303  -0.190   2.787   8.998 -1.4940  0.0461  0.4961
  109OSM   C14F11304  -0.108   2.968   8.890 -0.2980 -1.0854 -0.3045
  109OSM   H14F11305  -0.020   2.914   8.850  2.7823  1.5505  2.3719
  109OSM   H14G11306  -0.067   3.066   8.923  0.2403 -0.7583 -1.8726
  109OSM   C15F11307  -0.208   2.990   8.774 -0.1853  0.2155  0.1468
  109OSM   H15F11308  -0.271   3.078   8.800 -0.4830 -0.2830  1.1604
  109OSM   H15G11309  -0.274   2.901   8.771 -2.5932  1.8646  1.1263
  109OSM   C16F11310  -0.146   3.007   8.633 -0.1768  0.3895  0.3663
  109OSM   H16F11311  -0.075   2.925   8.614 -0.5933  0.2656 -0.7412
  109OSM   H16G11312  -0.085   3.100   8.635  1.2170 -0.5056  0.2344
  109OSM   C17F11313  -0.256   2.992   8.525 -0.3346 -0.1485 -0.3909
  109OSM   H17F11314  -0.339   3.062   8.545  0.4748  0.6165  0.3694
  109OSM   H17G11315  -0.283   2.884   8.533 -0.6519 -0.0266  0.2028
  109OSM   C18F11316  -0.205   3.023   8.377 -0.1330  0.0601 -0.4836
  109OSM   H18F11317  -0.165   3.126   8.364  0.7032 -0.1796  0.1458
  109OSM   H18G11318  -0.294   2.994   8.318 -0.4081 -2.7078  1.1148
  109OSM   H18H11319  -0.113   2.961   8.368  0.8892  1.2634  1.1371
  110OSM      N11320   3.416   3.589  10.909 -0.2728 -0.0740  1.0769
  110OSM    C1511321   3.295   3.530  10.961  1.1947 -0.3772  0.2849
  110OSM   H15A11322   3.205   3.582  10.931  1.9323  0.3504 -0.7842
  110OSM   H15B11323   3.312   3.538  11.067  0.4196  0.7277  0.3487
  110OSM   H15C11324   3.282   3.430  10.924 -1.8374  0.3667 -1.0510
  110OSM    C1411325   3.437   3.722  10.972  0.2644 -0.0684 -0.3147
  110OSM   H14A11326   3.419   3.718  11.078  0.1159  0.2413 -0.3289
  110OSM   H14B11327   3.374   3.799  10.931 -1.6144 -0.8554  0.9898
  110OSM   H14C11328   3.532   3.770  10.952  0.0657  0.4654  0.0154
  110OSM    C1311329   3.528   3.504  10.956 -0.1937  0.6758 -0.8109
  110OSM   H13A11330   3.615   3.527  10.896  0.3680  1.9475  0.4084
  110OSM   H13B11331   3.514   3.400  10.935 -1.2920  1.2524 -3.2239
  110OSM   H13C11332   3.551   3.518  11.061 -2.2435 -0.9182 -0.0899
  110OSM    C1211333   3.413   3.587  10.757 -0.0847  0.2395 -0.0300
  110OSM   H12A11334   3.478   3.664  10.720 -1.1042  1.0777 -0.1087
  110OSM   H12B11335   3.314   3.612  10.723  0.4341 -2.6065 -4.5667
  110OSM    C1111336   3.442   3.450  10.688 -0.1326 -0.0360  0.1638
  110OSM   H11A11337   3.415   3.456  10.580  0.2472 -1.6032 -0.0338
  110OSM   H11B11338   3.375   3.368  10.722  2.0603 -2.4015 -0.8777
  110OSM      P11339   3.681   3.496  10.618 -0.0795 -0.3668  0.0822
  110OSM    O1311340   3.685   3.637  10.666 -0.5836 -0.3128  0.2083
  110OSM    O1411341   3.805   3.422  10.612  0.1771  0.1836  0.1316
  110OSM    O1111342   3.625   3.502  10.467 -0.1307  0.0668  0.2522
  110OSM    O1211343   3.580   3.412  10.696 -0.4578  1.0735 -0.0482
  110OSM    C1S11344   3.628   3.380  10.399  0.3579 -0.3626  0.0142
  110OSM    H1S11345   3.590   3.296  10.460  0.3944 -1.7655 -1.8125
  110OSM    H1T11346   3.735   3.361  10.377  0.5887  0.3428  0.4993
  110OSM     NF11347   3.566   3.239  10.208 -0.3356  0.2771 -0.2787
  110OSM    HNF11348   3.654   3.223  10.165 -0.1379 -1.5857  0.7211
  110OSM    C2S11349   3.546   3.374  10.266 -0.1010 -0.2874  0.0962
  110OSM    H2S11350   3.445   3.375  10.313  0.4112 -0.4388  1.2299
  110OSM    C3S11351   3.567   3.496  10.168 -0.1685 -0.8199  0.3132
  110OSM    H3S11352   3.651   3.458  10.106 -0.1931  0.2643 -0.4109
  110OSM     O311353   3.607   3.626  10.221  0.8208  0.0929  0.4386
  110OSM    HO311354   3.630   3.605  10.312 -1.3295  0.9068  1.2405
  110OSM    C4S11355   3.447   3.507  10.079 -0.8131 -0.0148  0.1109
  110OSM    H4S11356   3.456   3.444   9.989 -0.3629  1.5349 -0.9729
  110OSM    C5S11357   3.328   3.574  10.084 -0.3043 -0.3896  0.6957
  110OSM    H5S11358   3.313   3.641  10.170  0.5898  0.6270  0.0809
  110OSM    C6S11359   3.214   3.569   9.982  0.1762  0.2819  0.0212
  110OSM    H6S11360   3.158   3.665   9.972 -3.5542 -1.6217  0.6855
  110OSM    H6T11361   3.144   3.492  10.022 -0.1912  0.4130 -0.3534
  110OSM    C7S11362   3.262   3.519   9.842  1.3247 -0.3316  0.6233
  110OSM    H7S11363   3.271   3.408   9.840  2.9950 -0.2120  0.5312
  110OSM    H7T11364   3.356   3.566   9.808  1.2906 -0.4757  0.3282
  110OSM    C8S11365   3.146   3.546   9.742  1.3226 -0.2818  0.5293
  110OSM    H8S11366   3.120   3.654   9.740 -2.5939 -1.0732  0.8330
  110OSM    H8T11367   3.053   3.503   9.784  0.4473 -1.3244 -2.2486
  110OSM    C9S11368   3.173   3.483   9.603  0.5285 -0.2454  0.3444
  110OSM    H9S11369   3.186   3.373   9.617 -2.2940 -1.2958 -3.5551
  110OSM    H9T11370   3.268   3.532   9.574  0.0653  1.5117  1.6677
  110OSM   C10S11371   3.064   3.500   9.498  0.0328 -0.4789  1.0423
  110OSM   H10S11372   3.042   3.609   9.490 -0.2806 -0.6333 -0.3811
  110OSM   H10T11373   2.975   3.447   9.536  0.3853 -0.5498  1.7837
  110OSM   C11S11374   3.099   3.439   9.361 -0.0968 -0.4303  0.6968
  110OSM   H11S11375   3.143   3.339   9.378 -0.5508 -1.0295 -1.3339
  110OSM   H11T11376   3.183   3.498   9.317  1.5558 -1.8994  1.7334
  110OSM   C12S11377   2.973   3.418   9.276  0.5406 -0.1560  0.3149
  110OSM   H12S11378   2.941   3.523   9.258  4.0221  1.3786  2.1261
  110OSM   H12T11379   2.887   3.366   9.324 -0.1691 -2.3600 -2.9815
  110OSM   C13S11380   3.010   3.358   9.141 -0.3522 -0.2290 -0.2301
  110OSM   H13S11381   3.027   3.249   9.150 -0.4998 -0.0831  4.0963
  110OSM   H13T11382   3.113   3.396   9.119  0.1211 -0.2375  1.7574
  110OSM   C14S11383   2.901   3.386   9.032  0.1216 -0.5127 -0.7012
  110OSM   H14S11384   2.893   3.493   9.004 -0.9496 -0.3567  0.1816
  110OSM   H14T11385   2.803   3.360   9.077  1.2313 -1.9673  1.0071
  110OSM   C15S11386   2.921   3.296   8.908 -0.1336  0.6666 -0.7236
  110OSM   H15S11387   2.899   3.190   8.936  0.4023  0.6021 -0.5382
  110OSM   H15T11388   3.026   3.309   8.876 -0.1145  0.2794 -0.8207
  110OSM   C16S11389   2.825   3.327   8.796  0.0163 -0.3615  0.1254
  110OSM   H16S11390   2.846   3.433   8.768  1.0914 -0.4879  0.4089
  110OSM   H16T11391   2.717   3.322   8.823  0.2189 -0.4857  0.9661
  110OSM   C17S11392   2.847   3.247   8.663  0.4354  0.2046  0.3186
  110OSM   H17S11393   2.758   3.251   8.596  0.3163  6.0634  0.3332
  110OSM   H17T11394   2.871   3.143   8.696  1.3091 -0.2017 -1.4435
  110OSM   C18S11395   2.966   3.307   8.590 -0.1512  0.5671 -0.0159
  110OSM   H18S11396   3.044   3.337   8.664 -1.1853 -0.2624  1.4573
  110OSM   H18T11397   2.948   3.396   8.526  3.4455  0.5269 -1.3010
  110OSM   H18U11398   3.003   3.222   8.530 -2.3649 -0.2036 -0.3809
  110OSM    C1F11399   3.514   3.131  10.268  0.3517 -0.1574  0.1174
  110OSM     OF11400   3.434   3.140  10.364  0.4253  0.0799  0.6698
  110OSM    C2F11401   3.555   2.995  10.209 -0.6658 -0.0824 -0.4529
  110OSM    H2F11402   3.607   2.932  10.284  1.9021  0.2796 -1.8127
  110OSM    H2G11403   3.632   3.018  10.132 -0.0829  1.0723  0.4481
  110OSM    C3F11404   3.436   2.902  10.169  0.0936 -0.3180 -0.6613
  110OSM    H3F11405   3.366   2.896  10.256 -0.0410  2.4040 -0.5106
  110OSM    H3G11406   3.482   2.802  10.151 -0.3126 -0.9006  1.2741
  110OSM    C4F11407   3.368   2.966  10.052 -0.2078  0.5683  0.4984
  110OSM    H4F11408   3.440   2.977   9.968 -2.5414 -1.1985 -1.9065
  110OSM    H4G11409   3.326   3.066  10.076 -1.4999  0.2282 -0.2742
  110OSM    C5F11410   3.250   2.878  10.008 -0.4064 -0.5483  0.3328
  110OSM    H5F11411   3.189   2.873  10.101 -0.5307  0.3485  0.3017
  110OSM    H5G11412   3.290   2.778   9.978  1.3220  0.4747 -0.9347
  110OSM    C6F11413   3.144   2.945   9.910 -0.5132 -0.2727  0.9105
  110OSM    H6F11414   3.092   3.030   9.960 -0.2175 -0.5050  1.6200
  110OSM    H6G11415   3.065   2.870   9.891  0.6628 -1.3695  0.2090
  110OSM    C7F11416   3.204   2.987   9.768  0.3055 -0.0077 -0.2779
  110OSM    H7F11417   3.216   2.896   9.706 -2.7473 -0.9982  0.3896
  110OSM    H7G11418   3.299   3.036   9.798  0.9932 -3.6769  4.7494
  110OSM    C8F11419   3.111   3.083   9.691  0.5491  0.6183 -0.2329
  110OSM    H8F11420   3.109   3.182   9.742  3.0548  0.9461 -0.6747
  110OSM    H8G11421   3.007   3.045   9.704  0.9551 -0.5266 -0.2687
  110OSM    C9F11422   3.152   3.107   9.545 -0.0917 -0.1583 -0.2035
  110OSM    H9F11423   3.242   3.166   9.522 -0.5086  0.2772 -0.7214
  110OSM   C10F11424   3.094   3.053   9.437  0.0573 -0.3270  0.8407
  110OSM   H10F11425   3.147   3.073   9.342 -0.3295 -1.3072  0.4035
  110OSM   C11F11426   2.974   2.968   9.418  0.0712 -0.4833  0.3195
  110OSM   H11F11427   2.891   3.002   9.484 -1.1709  0.8214 -1.8102
  110OSM   H11G11428   3.001   2.862   9.437 -0.6570 -0.4089  2.0327
  110OSM   C12F11429   2.936   2.959   9.276  0.3286  0.5317  0.3907
  110OSM   H12F11430   2.908   3.054   9.226  0.3644 -0.9900 -2.7525
  110OSM   H12G11431   2.849   2.892   9.263  1.0075 -0.6409  1.5793
  110OSM   C13F11432   3.034   2.885   9.182 -0.3394  0.0105  0.3859
  110OSM   H13F11433   3.032   2.777   9.207 -1.1909  0.6069  3.2923
  110OSM   H13G11434   3.135   2.924   9.206 -0.5176 -0.6439  2.4015
  110OSM   C14F11435   2.997   2.904   9.035  0.5178 -0.2345 -0.2931
  110OSM   H14F11436   3.018   3.011   9.012  0.3884 -0.4917 -1.7393
  110OSM   H14G11437   2.888   2.890   9.018  0.1809 -0.4828  1.8818
  110OSM   C15F11438   3.086   2.832   8.937  0.6969  0.1842  0.3725
  110OSM   H15F11439   3.054   2.726   8.927 -2.0779  0.8339  1.3837
  110OSM   H15G11440   3.192   2.830   8.969  1.0221 -1.3159 -0.6771
  110OSM   C16F11441   3.083   2.890   8.789 -0.3974 -0.1722  0.3633
  110OSM   H16F11442   3.169   2.844   8.736 -1.0150  0.1527 -0.9689
  110OSM   H16G11443   3.111   2.997   8.797  1.2097 -0.3525 -2.0235
  110OSM   C17F11444   2.950   2.873   8.710  0.1699 -0.3609  0.0370
  110OSM   H17F11445   2.964   2.890   8.601 -1.1882 -0.0565 -0.1053
  110OSM   H17G11446   2.869   2.943   8.737  0.0889  0.2063 -1.5600
  110OSM   C18F11447   2.892   2.733   8.716  0.3661  0.3231  0.1198
  110OSM   H18F11448   2.856   2.710   8.819  0.2477  1.3462  0.3213
  110OSM   H18G11449   2.966   2.661   8.676 -2.0141 -1.8457 -0.6763
  110OSM   H18H11450   2.807   2.737   8.644  0.3957  1.5011  0.1293
  111OSM      N11451   3.343   6.728  11.148  0.1307  0.4516  0.2659
  111OSM    C1511452   3.472   6.658  11.145  0.9617 -0.2422 -0.2790
  111OSM   H15A11453   3.489   6.603  11.053 -0.6229 -1.1165 -0.0772
  111OSM   H15B11454   3.480   6.589  11.227 -0.7618  1.0133  1.0169
  111OSM   H15C11455   3.551   6.728  11.169  2.7998 -2.4221  0.3422
  111OSM    C1411456   3.240   6.615  11.118 -0.6348  0.0854  0.2767
  111OSM   H14A11457   3.144   6.664  11.120 -0.3955  1.1016 -3.8667
  111OSM   H14B11458   3.261   6.541  11.195  0.5835 -1.7083 -1.6630
  111OSM   H14C11459   3.257   6.560  11.026 -1.7035 -2.1462  1.3143
  111OSM    C1311460   3.319   6.780  11.290 -0.6690  0.6326  0.3512
  111OSM   H13A11461   3.216   6.813  11.298 -2.0640 -3.2957  0.3338
  111OSM   H13B11462   3.391   6.859  11.307 -1.4830  1.3963  0.3533
  111OSM   H13C11463   3.341   6.701  11.360 -2.7723 -0.0337  0.3145
  111OSM    C1211464   3.334   6.835  11.041 -0.3742  0.7134 -0.3486
  111OSM   H12A11465   3.404   6.914  11.064 -0.4958  0.8635 -0.4888
  111OSM   H12B11466   3.233   6.875  11.046 -0.3498  0.7087  0.2641
  111OSM    C1111467   3.366   6.792  10.894 -0.7085 -0.0043  0.1251
  111OSM   H11A11468   3.307   6.861  10.829  0.3039  0.4877 -0.2885
  111OSM   H11B11469   3.335   6.689  10.867  1.8588 -0.5561 -0.9415
  111OSM      P11470   3.589   6.939  10.883 -0.4313  0.2546 -0.3763
  111OSM    O1311471   3.533   7.040  10.975 -0.5829  0.3145 -0.3289
  111OSM    O1411472   3.731   6.901  10.910 -0.0226  0.0297  0.5113
  111OSM    O1111473   3.571   6.987  10.735 -0.2616  0.1553  0.3021
  111OSM    O1211474   3.503   6.807  10.870 -0.1143  0.0083 -0.0747
  111OSM    C1S11475   3.683   6.964  10.644 -0.0729 -0.7848 -0.2327
  111OSM    H1S11476   3.764   6.899  10.683  1.8802 -0.2145 -3.0357
  111OSM    H1T11477   3.733   7.057  10.610  0.0351 -0.3046  1.1668
  111OSM     NF11478   3.739   6.858  10.424  0.2228  0.4245 -0.3449
  111OSM    HNF11479   3.782   6.934  10.375  1.0433 -1.2184 -2.3046
  111OSM    C2S11480   3.627   6.901  10.510  0.4246 -0.5796 -0.8308
  111OSM    H2S11481   3.571   6.808  10.534 -0.4505  0.3239  0.7858
  111OSM    C3S11482   3.537   7.008  10.448  0.2480  0.1613 -0.4426
  111OSM    H3S11483   3.605   7.090  10.417  0.3261 -0.3544 -1.6918
  111OSM     O311484   3.434   7.074  10.519 -0.0607  0.1238  0.5305
  111OSM    HO311485   3.448   7.029  10.603 -0.5075  1.8134  1.5592
  111OSM    C4S11486   3.469   6.945  10.323 -0.0570 -0.1565 -0.1753
  111OSM    H4S11487   3.544   6.938  10.242  0.7824  0.2184  0.5535
  111OSM    C5S11488   3.354   6.877  10.295 -0.2999  0.3975  0.1013
  111OSM    H5S11489   3.285   6.860  10.379 -0.8735  2.5205  0.1344
  111OSM    C6S11490   3.317   6.835  10.150 -0.0409 -0.0661  0.6303
  111OSM    H6S11491   3.213   6.866  10.123  0.1576 -1.7897 -2.6596
  111OSM    H6T11492   3.315   6.724  10.153 -0.6445 -0.0714  0.2434
  111OSM    C7S11493   3.399   6.890  10.024  0.2191  0.0367  1.0173
  111OSM    H7S11494   3.503   6.856  10.045  0.1426 -1.7266 -1.1712
  111OSM    H7T11495   3.410   7.000  10.037  2.4273  0.1710 -1.2479
  111OSM    C8S11496   3.366   6.836   9.882 -1.0668 -0.4958 -0.0948
  111OSM    H8S11497   3.259   6.859   9.862 -1.8222 -0.9535  2.8446
  111OSM    H8T11498   3.376   6.729   9.910  0.1385  0.5109  4.1880
  111OSM    C9S11499   3.467   6.873   9.765  0.0758 -0.1351 -0.0692
  111OSM    H9S11500   3.563   6.828   9.798 -0.2880 -0.3817  0.6867
  111OSM    H9T11501   3.473   6.984   9.771 -2.4633  0.0921 -0.2560
  111OSM   C10S11502   3.414   6.825   9.627 -0.2963  0.2945 -0.8137
  111OSM   H10S11503   3.306   6.841   9.609 -0.2911  1.1982 -0.1290
  111OSM   H10T11504   3.424   6.714   9.626  0.2106  0.3137  0.3813
  111OSM   C11S11505   3.492   6.862   9.505  0.1089 -0.1325  0.6839
  111OSM   H11S11506   3.598   6.853   9.536 -0.0165 -3.2063  0.5847
  111OSM   H11T11507   3.461   6.968   9.496  0.6454  0.0078  0.4650
  111OSM   C12S11508   3.454   6.781   9.381 -0.9539  0.3060 -0.0972
  111OSM   H12S11509   3.346   6.756   9.383 -1.1889  1.1486 -1.2288
  111OSM   H12T11510   3.518   6.690   9.389 -1.0113  0.4294  2.9741
  111OSM   C13S11511   3.493   6.864   9.255 -0.8126  0.5311 -0.3767
  111OSM   H13S11512   3.600   6.894   9.268 -1.1071  1.4945 -0.1327
  111OSM   H13T11513   3.446   6.964   9.258 -0.4524  0.7411 -1.2541
  111OSM   C14S11514   3.478   6.779   9.122 -0.1409  0.3544 -0.4259
  111OSM   H14S11515   3.373   6.772   9.086 -0.2653  1.9211 -0.4361
  111OSM   H14T11516   3.508   6.675   9.146 -0.4641  0.2261 -0.5700
  111OSM   C15S11517   3.558   6.834   8.999 -0.3731 -0.1185  0.3739
  111OSM   H15S11518   3.666   6.809   9.010  0.0069  1.0646 -0.4888
  111OSM   H15T11519   3.544   6.944   8.993  0.8850  0.2553  3.1860
  111OSM   C16S11520   3.513   6.771   8.866 -0.0388 -0.6038  0.2870
  111OSM   H16S11521   3.403   6.767   8.854  0.2719 -3.3840 -3.6954
  111OSM   H16T11522   3.537   6.662   8.864 -4.7963 -1.8360 -0.9782
  111OSM   C17S11523   3.584   6.840   8.747 -0.4047 -0.6055  0.6196
  111OSM   H17S11524   3.689   6.857   8.779 -1.3443  0.9826  3.1032
  111OSM   H17T11525   3.539   6.939   8.722  0.2065 -0.6957 -0.9367
  111OSM   C18S11526   3.576   6.759   8.623  0.3240 -0.4738  0.1347
  111OSM   H18S11527   3.477   6.771   8.574  0.4797  1.5285  0.2379
  111OSM   H18T11528   3.595   6.654   8.655 -3.0650 -0.7394  1.6280
  111OSM   H18U11529   3.650   6.795   8.548 -0.3375  0.1680 -0.2266
  111OSM    C1F11530   3.807   6.747  10.451 -0.2655 -0.3698  0.6402
  111OSM     OF11531   3.769   6.676  10.542  0.1984  0.3084  0.1422
  111OSM    C2F11532   3.940   6.735  10.375 -0.2533 -0.8541 -0.2369
  111OSM    H2F11533   4.010   6.784  10.445 -0.1103 -1.3607 -0.0201
  111OSM    H2G11534   3.943   6.788  10.277 -1.4615 -1.0254 -0.3801
  111OSM    C3F11535   3.981   6.595  10.344 -0.0174 -0.1798  0.9377
  111OSM    H3F11536   3.993   6.534  10.436  0.5823  0.1220  1.0630
  111OSM    H3G11537   4.081   6.588  10.295  0.0093  0.2429  0.9283
  111OSM    C4F11538   3.882   6.522  10.251  0.0605 -0.3599 -0.1257
  111OSM    H4F11539   3.781   6.545  10.292  1.0437 -0.4894  2.5735
  111OSM    H4G11540   3.914   6.416  10.257  4.0357  0.6189 -1.2696
  111OSM    C5F11541   3.892   6.554  10.097  0.6128  0.0863  0.1963
  111OSM    H5F11542   3.978   6.516  10.037 -0.1702 -1.4767 -0.0088
  111OSM    H5G11543   3.885   6.665  10.090  1.9664  0.1954  0.3758
  111OSM    C6F11544   3.768   6.505  10.020  0.8460 -0.0636 -0.2158
  111OSM    H6F11545   3.678   6.545  10.072  1.0241  0.7785 -0.5437
  111OSM    H6G11546   3.772   6.394  10.024 -0.0967 -0.1182  3.5358
  111OSM    C7F11547   3.768   6.560   9.874 -0.1194 -0.0763 -0.4815
  111OSM    H7F11548   3.861   6.516   9.832 -0.3912  0.5873 -1.8242
  111OSM    H7G11549   3.769   6.672   9.871 -0.1095  0.0502  2.0820
  111OSM    C8F11550   3.651   6.519   9.776 -0.0858  0.1475 -0.7812
  111OSM    H8F11551   3.581   6.595   9.818  1.9842  1.7584 -0.0696
  111OSM    H8G11552   3.633   6.413   9.803  3.4260  0.2127  2.4813
  111OSM    C9F11553   3.681   6.561   9.636 -0.1454  0.1505  0.1187
  111OSM    H9F11554   3.724   6.662   9.638  1.4871 -0.5206  0.6514
  111OSM   C10F11555   3.663   6.484   9.527 -0.3081 -0.0476 -0.1655
  111OSM   H10F11556   3.683   6.526   9.427  2.3975 -0.3381  0.1783
  111OSM   C11F11557   3.614   6.346   9.521  0.4368  0.0034 -0.4678
  111OSM   H11F11558   3.514   6.346   9.473  1.5629  0.8440 -2.9630
  111OSM   H11G11559   3.597   6.302   9.622  1.2437 -0.1671 -0.4053
  111OSM   C12F11560   3.703   6.260   9.435  0.7064  0.8007  0.2394
  111OSM   H12F11561   3.649   6.164   9.419  2.0663 -0.1588  1.1698
  111OSM   H12G11562   3.797   6.236   9.488  0.5267 -3.1831 -0.9120
  111OSM   C13F11563   3.735   6.314   9.299 -0.1667  0.1451  0.2853
  111OSM   H13F11564   3.820   6.251   9.263  3.6054  3.0031  3.2874
  111OSM   H13G11565   3.791   6.410   9.302 -0.7142  0.4635  0.4210
  111OSM   C14F11566   3.613   6.311   9.201 -0.1433 -0.2269 -0.0047
  111OSM   H14F11567   3.542   6.395   9.219  1.9031  1.8967 -1.3097
  111OSM   H14G11568   3.553   6.219   9.217 -0.6747  0.2283  0.6677
  111OSM   C15F11569   3.647   6.288   9.055  1.0595  0.6845  0.7113
  111OSM   H15F11570   3.564   6.270   8.984  2.3135 -1.0252 -0.4104
  111OSM   H15G11571   3.720   6.204   9.056 -0.3115 -0.5618  2.4057
  111OSM   C16F11572   3.723   6.394   8.987 -0.7224 -0.1767  0.4554
  111OSM   H16F11573   3.819   6.415   9.038 -1.0449  0.9458  0.6220
  111OSM   H16G11574   3.668   6.490   8.971 -1.3453 -0.6638 -0.4659
  111OSM   C17F11575   3.764   6.351   8.838 -0.6710  0.3267 -0.4725
  111OSM   H17F11576   3.670   6.326   8.783  0.6321  0.7170 -3.0503
  111OSM   H17G11577   3.818   6.254   8.845  0.2138  0.7861 -0.7867
  111OSM   C18F11578   3.849   6.462   8.765 -0.4634  0.9465 -0.2493
  111OSM   H18F11579   3.791   6.557   8.760 -0.6688  0.8287 -0.1704
  111OSM   H18G11580   3.880   6.451   8.659  1.4274 -0.7383  0.4284
  111OSM   H18H11581   3.939   6.482   8.827 -0.0534 -1.4634  0.0267
  112OSM      N11582   4.159   5.765  11.181 -0.4536  0.4535 -0.4455
  112OSM    C1511583   4.202   5.888  11.117 -0.3801 -0.1925  0.5337
  112OSM   H15A11584   4.156   5.973  11.165 -1.1092  0.0651 -0.5943
  112OSM   H15B11585   4.178   5.886  11.012 -0.8805  0.3880  0.6352
  112OSM   H15C11586   4.310   5.895  11.124 -0.3727 -1.1479  1.9376
  112OSM    C1411587   4.205   5.761  11.317 -0.3238  0.0566 -0.2588
  112OSM   H14A11588   4.151   5.680  11.365 -1.2264  1.6615  1.5485
  112OSM   H14B11589   4.166   5.847  11.371  2.1358  1.4082 -0.5178
  112OSM   H14C11590   4.311   5.752  11.331 -0.4490  0.3936  1.0190
  112OSM    C1311591   4.014   5.768  11.180 -0.5964 -0.1881  0.0722
  112OSM   H13A11592   3.975   5.684  11.235  1.2668 -0.2557  1.3738
  112OSM   H13B11593   3.969   5.772  11.081  0.1098  0.2321 -0.2380
  112OSM   H13C11594   3.982   5.860  11.225  2.9030  0.3308  1.8123
  112OSM    C1211595   4.203   5.645  11.097 -0.0647 -0.0169  0.4237
  112OSM   H12A11596   4.170   5.562  11.157  1.0690 -0.0261  1.0557
  112OSM   H12B11597   4.310   5.634  11.092 -0.1882 -0.8779 -2.5778
  112OSM    C1111598   4.145   5.630  10.945 -0.1855  0.8181 -0.0414
  112OSM   H11A11599   4.184   5.533  10.907 -1.6006 -0.2944  1.2207
  112OSM   H11B11600   4.182   5.707  10.874  4.7265 -1.2644 -0.1576
  112OSM      P11601   3.920   5.489  10.960  0.3270 -0.1550 -0.2322
  112OSM    O1311602   3.954   5.406  11.076 -0.6806 -0.2354  0.2545
  112OSM    O1411603   3.784   5.532  10.945  0.5367 -0.1753 -0.5838
  112OSM    O1111604   3.953   5.415  10.831  0.3213 -0.2250  0.4165
  112OSM    O1211605   4.006   5.624  10.942  0.6717  0.9322  0.1631
  112OSM    C1S11606   3.954   5.462  10.697 -0.2149 -0.1158 -0.2511
  112OSM    H1S11607   4.051   5.516  10.689 -0.8214  1.5083  2.0993
  112OSM    H1T11608   3.872   5.532  10.671 -0.2421 -0.8123 -2.1699
  112OSM     NF11609   3.957   5.387  10.458 -0.5126 -0.7168 -0.1325
  112OSM    HNF11610   3.878   5.402  10.398 -0.4124 -0.4019 -0.1859
  112OSM    C2S11611   3.933   5.339  10.597  0.3138 -0.3437  0.0681
  112OSM    H2S11612   4.010   5.265  10.628 -0.1667 -0.4152  1.1348
  112OSM    C3S11613   3.798   5.260  10.615 -0.9379  0.7743 -0.6097
  112OSM    H3S11614   3.711   5.327  10.603  0.2029  2.3934 -0.1550
  112OSM     O311615   3.795   5.196  10.746  0.2806  0.2911  0.4636
  112OSM    HO311616   3.849   5.251  10.803 -1.0174  1.9888  0.1363
  112OSM    C4S11617   3.785   5.163  10.504  0.2796 -0.9381 -0.0230
  112OSM    H4S11618   3.732   5.206  10.418  1.2154 -1.3292 -0.8110
  112OSM    C5S11619   3.818   5.034  10.499 -0.5629  0.5117  1.1917
  112OSM    H5S11620   3.860   4.976  10.583 -3.9468 -0.3128  2.5228
  112OSM    C6S11621   3.790   4.964  10.365 -0.3035  0.0887  0.1848
  112OSM    H6S11622   3.692   4.912  10.370 -1.0831  1.4917  0.1873
  112OSM    H6T11623   3.862   4.881  10.349 -0.7196 -0.2858  0.2377
  112OSM    C7S11624   3.805   5.038  10.228 -0.1539  0.0777  0.3231
  112OSM    H7S11625   3.898   5.098  10.238  2.2901 -3.0587 -1.6131
  112OSM    H7T11626   3.716   5.102  10.212 -0.0648 -0.0683 -0.8724
  112OSM    C8S11627   3.794   4.938  10.111  0.5563  0.0457  0.0232
  112OSM    H8S11628   3.720   4.857  10.127  0.6455 -0.3151 -1.2731
  112OSM    H8T11629   3.892   4.886  10.104  1.4851  1.4459  1.7642
  112OSM    C9S11630   3.757   5.016   9.980  0.4682 -0.2959 -0.4148
  112OSM    H9S11631   3.835   5.091   9.955  1.3219 -1.2298 -0.6225
  112OSM    H9T11632   3.667   5.079   9.999  1.9433  2.2356 -1.3795
  112OSM   C10S11633   3.721   4.920   9.866 -0.6047 -0.4077 -0.2132
  112OSM   H10S11634   3.694   4.985   9.779 -2.9689  0.0882  0.8241
  112OSM   H10T11635   3.640   4.848   9.889 -0.3154  0.0331  2.4218
  112OSM   C11S11636   3.845   4.844   9.811 -0.2581 -0.1846  1.3419
  112OSM   H11S11637   3.863   4.755   9.875  1.5592 -0.3932  0.6047
  112OSM   H11T11638   3.931   4.914   9.807 -1.4171  1.3445  2.0578
  112OSM   C12S11639   3.821   4.781   9.669  0.4369  0.6115 -0.0341
  112OSM   H12S11640   3.742   4.705   9.686 -0.1547  1.2004 -0.1202
  112OSM   H12T11641   3.912   4.721   9.648 -0.0244 -0.6672  1.4579
  112OSM   C13S11642   3.819   4.883   9.553 -0.2666  0.3280 -0.4174
  112OSM   H13S11643   3.894   4.965   9.562  1.0057 -0.7376 -0.9920
  112OSM   H13T11644   3.720   4.933   9.549 -0.9713 -0.8883  1.1030
  112OSM   C14S11645   3.828   4.820   9.419  0.3443 -0.5166 -0.1716
  112OSM   H14S11646   3.783   4.719   9.424  0.2236 -0.4961 -0.7139
  112OSM   H14T11647   3.932   4.787   9.400  0.4235 -0.7066  0.5724
  112OSM   C15S11648   3.773   4.908   9.310  0.0322 -0.6082  0.3244
  112OSM   H15S11649   3.827   5.004   9.320  0.8676 -1.3395  3.8889
  112OSM   H15T11650   3.666   4.925   9.336 -0.1630 -2.7431  1.0931
  112OSM   C16S11651   3.790   4.837   9.173 -0.4810  0.4989 -0.4006
  112OSM   H16S11652   3.748   4.735   9.177 -0.0623  0.3611  0.6239
  112OSM   H16T11653   3.898   4.822   9.151 -0.7213  1.5001 -2.5769
  112OSM   C17S11654   3.732   4.920   9.063  0.5679 -0.5048  0.3515
  112OSM   H17S11655   3.803   4.902   8.980 -0.8072 -4.2963 -0.1954
  112OSM   H17T11656   3.737   5.029   9.084  0.0614 -0.4284  0.1100
  112OSM   C18S11657   3.589   4.888   9.029  0.2613  0.2634  0.6967
  112OSM   H18S11658   3.518   4.904   9.113 -2.6696 -0.6295 -1.4177
  112OSM   H18T11659   3.578   4.780   9.004 -0.4193  0.9866 -2.8136
  112OSM   H18U11660   3.568   4.951   8.939  0.1649 -1.2513 -0.3829
  112OSM    C1F11661   4.078   5.431  10.422  0.1714 -0.0111 -0.1167
  112OSM     OF11662   4.175   5.416  10.492 -0.0577  0.7522  0.1997
  112OSM    C2F11663   4.085   5.500  10.287 -0.3355  0.5383  0.0282
  112OSM    H2F11664   4.162   5.579  10.286  2.3223 -1.8568 -2.0449
  112OSM    H2G11665   3.990   5.548  10.256 -2.1528 -3.0404 -0.5121
  112OSM    C3F11666   4.129   5.406  10.174 -0.8477 -0.4854 -0.5652
  112OSM    H3F11667   4.058   5.321  10.177 -1.7020  0.2348  1.2272
  112OSM    H3G11668   4.234   5.373  10.191 -1.0262 -0.7234  0.1251
  112OSM    C4F11669   4.128   5.464  10.034  0.5176 -0.2573  1.5373
  112OSM    H4F11670   4.186   5.559  10.033  0.7989 -0.4061 -0.1137
  112OSM    H4G11671   4.031   5.500   9.993 -0.1000 -0.5187  2.7273
  112OSM    C5F11672   4.176   5.368   9.919 -0.0145 -0.4414 -0.6676
  112OSM    H5F11673   4.099   5.289   9.907 -1.2238  0.8441 -1.7724
  112OSM    H5G11674   4.272   5.324   9.955  0.1557  1.7883  1.8600
  112OSM    C6F11675   4.203   5.445   9.787 -0.1814 -1.0691  0.0583
  112OSM    H6F11676   4.264   5.381   9.719 -1.1435 -1.2341 -0.6770
  112OSM    H6G11677   4.266   5.528   9.826 -0.3615 -1.5939  1.5288
  112OSM    C7F11678   4.078   5.484   9.708  0.8837  0.1307  0.3046
  112OSM    H7F11679   4.108   5.550   9.625  0.6541  1.5789  1.3362
  112OSM    H7G11680   4.001   5.537   9.769  1.6625  0.9334  0.6100
  112OSM    C8F11681   4.011   5.360   9.640  0.8909  0.2328  0.2588
  112OSM    H8F11682   3.949   5.409   9.563 -1.5010 -1.0305  1.2629
  112OSM    H8G11683   3.938   5.312   9.710  0.6051 -0.1316 -0.2881
  112OSM    C9F11684   4.091   5.246   9.575 -0.9014 -0.2299  0.0322
  112OSM    H9F11685   4.109   5.163   9.645  1.2437  2.5060  2.9827
  112OSM   C10F11686   4.144   5.249   9.448 -0.4291 -0.8251  0.5499
  112OSM   H10F11687   4.198   5.163   9.406 -0.5322 -0.0673 -1.2310
  112OSM   C11F11688   4.128   5.361   9.348  0.0857 -0.8672  0.3844
  112OSM   H11F11689   4.230   5.381   9.309  0.2909 -0.8328  0.9326
  112OSM   H11G11690   4.097   5.461   9.385 -3.2934 -1.2913 -0.8765
  112OSM   C12F11691   4.018   5.322   9.242 -0.5396  1.0045 -0.7795
  112OSM   H12F11692   3.997   5.406   9.172 -0.8069  0.7841 -0.9690
  112OSM   H12G11693   3.925   5.287   9.292 -0.1151  1.1764  0.1299
  112OSM   C13F11694   4.067   5.200   9.154 -0.3586 -0.6143  0.3543
  112OSM   H13F11695   3.976   5.148   9.118 -0.4164  0.9361 -1.9291
  112OSM   H13G11696   4.119   5.127   9.220 -1.4626 -2.0104 -0.2722
  112OSM   C14F11697   4.146   5.243   9.032 -0.1095 -0.0640  1.0183
  112OSM   H14F11698   4.250   5.272   9.058  0.9542 -0.8772 -1.9065
  112OSM   H14G11699   4.101   5.339   9.000 -0.3478 -0.8039 -1.0262
  112OSM   C15F11700   4.165   5.149   8.916  0.2599  0.6412  0.0810
  112OSM   H15F11701   4.063   5.113   8.889  0.0042  0.4575  1.2158
  112OSM   H15G11702   4.218   5.061   8.958 -0.4910 -0.1813 -0.6493
  112OSM   C16F11703   4.246   5.211   8.798  0.7524  0.7478 -0.1049
  112OSM   H16F11704   4.352   5.220   8.831  0.3831 -2.7164  2.5379
  112OSM   H16G11705   4.211   5.311   8.764 -3.1010 -0.6075 -0.5877
  112OSM   C17F11706   4.235   5.118   8.677  1.4742  0.3053  0.9626
  112OSM   H17F11707   4.131   5.110   8.638  2.2048 -1.5983 -0.8220
  112OSM   H17G11708   4.255   5.015   8.714 -1.7164 -0.9135 -0.3836
  112OSM   C18F11709   4.330   5.145   8.560 -0.4310 -0.1926  0.8615
  112OSM   H18F11710   4.289   5.231   8.502 -0.7903 -0.9481 -0.0288
  112OSM   H18G11711   4.324   5.064   8.485 -1.6949  0.0821  0.6465
  112OSM   H18H11712   4.437   5.158   8.587 -0.3204  3.6342 -0.8254
  113OSM      N11713   2.751   0.458  10.864  0.1204 -0.0730  0.6060
  113OSM    C1511714   2.766   0.314  10.890  0.1835 -0.2057  0.2211
  113OSM   H15A11715   2.670   0.275  10.921  0.3334  0.1124  1.1243
  113OSM   H15B11716   2.841   0.295  10.966 -0.8534 -1.8098  0.9117
  113OSM   H15C11717   2.788   0.250  10.806  2.4691  1.1132 -0.2529
  113OSM    C1411718   2.701   0.520  10.994 -0.2746  0.0419 -0.1524
  113OSM   H14A11719   2.600   0.484  11.012  0.5189 -1.7986  0.9479
  113OSM   H14B11720   2.719   0.625  10.982 -0.2609  0.0173 -0.3436
  113OSM   H14C11721   2.750   0.493  11.086 -1.1884  0.8619  0.5963
  113OSM    C1311722   2.893   0.511  10.843 -0.3399  0.2305  0.5810
  113OSM   H13A11723   2.898   0.613  10.810 -1.7658  0.6712  1.6272
  113OSM   H13B11724   2.945   0.468  10.759  0.6802  2.2657  0.1241
  113OSM   H13C11725   2.950   0.494  10.933 -0.3317 -1.5029  0.2907
  113OSM    C1211726   2.674   0.488  10.737 -0.8250 -0.4408  0.4606
  113OSM   H12A11727   2.726   0.471  10.644 -1.4279 -0.2104  0.0753
  113OSM   H12B11728   2.655   0.594  10.739  0.9929 -0.1026  1.5309
  113OSM    C1111729   2.534   0.418  10.727  0.2567  0.5175  0.0253
  113OSM   H11A11730   2.542   0.308  10.741  0.3443  0.6745  1.3282
  113OSM   H11B11731   2.500   0.442  10.624  0.6355 -0.9688 -0.4753
  113OSM      P11732   2.322   0.555  10.791  0.2358  0.3399 -0.0448
  113OSM    O1311733   2.235   0.543  10.911  0.2238 -1.2659  0.2976
  113OSM    O1411734   2.361   0.690  10.744 -0.0022  0.5219 -0.6759
  113OSM    O1111735   2.259   0.478  10.668  0.2289  0.2864  0.4224
  113OSM    O1211736   2.449   0.474  10.822  0.5947  0.2721  0.2659
  113OSM    C1S11737   2.248   0.541  10.545 -0.0214  0.6046  0.5026
  113OSM    H1S11738   2.345   0.527  10.493  0.2813 -1.7710  1.5876
  113OSM    H1T11739   2.229   0.650  10.553 -2.4873  0.3961 -1.0941
  113OSM     NF11740   2.114   0.527  10.345  0.0659 -0.4009 -0.3282
  113OSM    HNF11741   2.064   0.607  10.316  0.5680 -0.5033 -1.5560
  113OSM    C2S11742   2.114   0.488  10.484  0.3419 -0.0407 -0.4935
  113OSM    H2S11743   2.113   0.377  10.484 -0.6875 -0.0843 -2.5089
  113OSM    C3S11744   1.991   0.536  10.566 -0.3571 -0.1219 -0.0202
  113OSM    H3S11745   1.996   0.647  10.572  1.8653 -0.2083  0.4459
  113OSM     O311746   1.984   0.484  10.702 -0.2259  0.2227 -0.5092
  113OSM    HO311747   2.075   0.457  10.719 -0.5786 -0.8577 -0.2697
  113OSM    C4S11748   1.866   0.498  10.489  0.1398  0.0720 -0.4822
  113OSM    H4S11749   1.814   0.573  10.426 -0.3485 -1.1489 -1.5955
  113OSM    C5S11750   1.810   0.375  10.498  0.0016  1.1833 -0.3273
  113OSM    H5S11751   1.861   0.299  10.560  0.3147 -0.4628 -2.4715
  113OSM    C6S11752   1.680   0.327  10.440  0.9879 -0.3357  0.1518
  113OSM    H6S11753   1.624   0.420  10.414  0.0241 -0.2600  2.3262
  113OSM    H6T11754   1.609   0.276  10.509 -2.8470 -0.5275 -3.4910
  113OSM    C7S11755   1.692   0.232  10.313 -0.3093  0.2754  0.4577
  113OSM    H7S11756   1.756   0.144  10.336 -1.0768 -0.0413  1.4859
  113OSM    H7T11757   1.733   0.284  10.224 -0.7837 -0.2264 -0.0729
  113OSM    C8S11758   1.552   0.170  10.280 -0.1815 -0.5149  0.3254
  113OSM    H8S11759   1.486   0.250  10.241  1.7881  1.1714  0.2928
  113OSM    H8T11760   1.502   0.127  10.370  0.2306  0.1840  0.9042
  113OSM    C9S11761   1.554   0.052  10.174 -0.6469 -0.3483 -1.2766
  113OSM    H9S11762   1.465  -0.014  10.184 -0.7806  0.0642  0.6224
  113OSM    H9T11763   1.647  -0.007  10.193 -0.2300  0.5703 -0.3854
  113OSM   C10S11764   1.577   0.103  10.031  0.7416 -0.2002  0.0933
  113OSM   H10S11765   1.671   0.162  10.022  0.0588  0.8814 -0.1577
  113OSM   H10T11766   1.492   0.169  10.000  0.2514 -1.0136 -0.3405
  113OSM   C11S11767   1.561  -0.002   9.919 -0.2000  0.0171 -0.1063
  113OSM   H11S11768   1.454  -0.030   9.921 -0.6459  1.6667  1.1183
  113OSM   H11T11769   1.633  -0.081   9.947  1.1031  0.9155 -0.8055
  113OSM   C12S11770   1.619   0.037   9.782 -0.2116  0.4644 -0.1465
  113OSM   H12S11771   1.616  -0.037   9.699 -1.7509  0.4102 -0.0831
  113OSM   H12T11772   1.726   0.062   9.797  0.0271  0.1958 -1.3284
  113OSM   C13S11773   1.547   0.157   9.723  0.3194 -0.1583  0.4635
  113OSM   H13S11774   1.548   0.248   9.787  0.7926  1.3998 -1.6524
  113OSM   H13T11775   1.440   0.135   9.710  0.4139 -0.1890 -0.2792
  113OSM   C14S11776   1.600   0.192   9.582  0.1904 -0.1992  0.4722
  113OSM   H14S11777   1.628   0.097   9.531  2.0512  0.0107  1.0072
  113OSM   H14T11778   1.694   0.252   9.585 -0.1618  0.4361 -0.6638
  113OSM   C15S11779   1.492   0.267   9.504 -0.3023  0.9378 -0.2741
  113OSM   H15S11780   1.460   0.354   9.565 -1.5177 -0.8522  1.7658
  113OSM   H15T11781   1.409   0.195   9.491 -0.2552  0.8343 -0.0003
  113OSM   C16S11782   1.535   0.306   9.364  0.1561 -0.0674 -0.3844
  113OSM   H16S11783   1.627   0.369   9.364 -0.8699  1.6771  2.8320
  113OSM   H16T11784   1.451   0.359   9.314 -0.1155 -1.0372 -0.9726
  113OSM   C17S11785   1.561   0.180   9.281 -0.3751  0.3129  0.1870
  113OSM   H17S11786   1.476   0.108   9.289  0.1719 -0.3723  0.0001
  113OSM   H17T11787   1.652   0.129   9.319  1.2151  2.7225 -0.1874
  113OSM   C18S11788   1.578   0.204   9.135 -0.4145 -0.2218  0.2388
  113OSM   H18S11789   1.503   0.276   9.097  0.1635 -0.7576 -2.1108
  113OSM   H18T11790   1.561   0.108   9.080 -2.5840 -1.1225  2.3182
  113OSM   H18U11791   1.680   0.244   9.117 -0.4534 -0.1564  0.1598
  113OSM    C1F11792   2.197   0.464  10.261  0.4326 -0.4520  0.1577
  113OSM     OF11793   2.259   0.367  10.294 -0.2027 -0.3373  0.8613
  113OSM    C2F11794   2.187   0.511  10.117 -0.6974 -0.1117 -0.6695
  113OSM    H2F11795   2.164   0.619  10.136 -1.7356 -0.7115  2.0069
  113OSM    H2G11796   2.097   0.470  10.067 -1.4376 -0.0686  0.5875
  113OSM    C3F11797   2.315   0.480  10.045 -0.5162 -0.4977  1.0918
  113OSM    H3F11798   2.347   0.374  10.052  1.4423 -0.0734 -0.5455
  113OSM    H3G11799   2.398   0.535  10.094 -0.5181  1.0413 -0.4892
  113OSM    C4F11800   2.320   0.505   9.892 -0.0304 -0.9529  0.5883
  113OSM    H4F11801   2.241   0.452   9.835 -2.0720  0.7845  1.6391
  113OSM    H4G11802   2.419   0.492   9.843 -0.3525  0.5181 -0.5136
  113OSM    C5F11803   2.285   0.654   9.860  0.1878 -0.0414 -0.4376
  113OSM    H5F11804   2.330   0.715   9.942 -1.3540  0.0491  0.3650
  113OSM    H5G11805   2.176   0.671   9.865  0.1279 -0.6753  0.8766
  113OSM    C6F11806   2.348   0.708   9.731 -0.5056  0.0219  0.1445
  113OSM    H6F11807   2.453   0.672   9.725 -1.4795 -3.5761  2.0941
  113OSM    H6G11808   2.350   0.819   9.741 -2.4895  0.0026  1.1401
  113OSM    C7F11809   2.280   0.651   9.603  0.0907 -0.2269  0.1772
  113OSM    H7F11810   2.180   0.699   9.602  0.0036 -0.2332 -2.8574
  113OSM    H7G11811   2.258   0.542   9.613 -0.1372 -0.3589 -1.4240
  113OSM    C8F11812   2.354   0.708   9.479  0.5028  0.3501  0.3482
  113OSM    H8F11813   2.459   0.670   9.481  0.1462 -0.6273  0.9709
  113OSM    H8G11814   2.356   0.819   9.478 -2.5070  0.4680 -0.7933
  113OSM    C9F11815   2.276   0.656   9.362  0.3431 -0.3798 -0.0109
  113OSM    H9F11816   2.268   0.546   9.367 -2.5180 -0.2295  0.1562
  113OSM   C10F11817   2.215   0.731   9.261 -0.4188  0.2949 -0.0086
  113OSM   H10F11818   2.143   0.682   9.195 -2.5344 -1.4639  3.3200
  113OSM   C11F11819   2.209   0.878   9.249 -0.0064 -0.0352  0.3124
  113OSM   H11F11820   2.271   0.932   9.324 -0.6853  0.4919  0.5053
  113OSM   H11G11821   2.111   0.925   9.271  0.7468  3.2404 -2.4812
  113OSM   C12F11822   2.253   0.920   9.106  0.1167 -0.0179 -0.9175
  113OSM   H12F11823   2.177   0.873   9.040  1.2938 -0.9890 -1.6321
  113OSM   H12G11824   2.356   0.885   9.086  0.2100  0.1630 -0.7627
  113OSM   C13F11825   2.256   1.066   9.084  0.0620  0.3767  0.2699
  113OSM   H13F11826   2.318   1.085   8.994  0.0941  3.9976  0.8935
  113OSM   H13G11827   2.309   1.110   9.172 -0.4747  0.0556  0.7613
  113OSM   C14F11828   2.125   1.137   9.060 -0.3184 -0.1096 -0.3170
  113OSM   H14F11829   2.050   1.103   9.135  0.1873  1.1784  0.8035
  113OSM   H14G11830   2.093   1.112   8.956 -1.9071  2.0501 -0.4178
  113OSM   C15F11831   2.150   1.290   9.073 -0.1044  0.1264  0.3890
  113OSM   H15F11832   2.217   1.323   8.991 -0.8443 -0.7941 -0.6117
  113OSM   H15G11833   2.197   1.310   9.172  0.3265  1.9548 -0.1368
  113OSM   C16F11834   2.024   1.379   9.077  0.0132 -0.5260  0.4031
  113OSM   H16F11835   1.963   1.348   9.164  0.6789 -0.0987  1.0364
  113OSM   H16G11836   1.970   1.363   8.982 -2.7654  2.3960  1.3254
  113OSM   C17F11837   2.067   1.528   9.085  0.0353 -0.2224  0.5757
  113OSM   H17F11838   1.975   1.587   9.062  0.1537 -0.3781 -0.3165
  113OSM   H17G11839   2.147   1.550   9.012  0.0841 -0.1061  0.6639
  113OSM   C18F11840   2.123   1.580   9.222 -0.1221  0.5836  0.1778
  113OSM   H18F11841   2.151   1.687   9.215  0.0233  0.6554  1.7012
  113OSM   H18G11842   2.214   1.527   9.256 -1.9420 -2.9158  0.1200
  113OSM   H18H11843   2.040   1.562   9.294 -1.4451 -0.8596 -1.5968
  114OSM      N11844   2.881   4.163  10.870 -0.1438  0.8276  0.7491
  114OSM    C1511845   2.940   4.228  10.742  0.1586  0.0761 -0.5597
  114OSM   H15A11846   2.910   4.332  10.748 -2.3968 -0.5459 -1.4421
  114OSM   H15B11847   2.894   4.180  10.657 -3.1862 -0.5183  1.3989
  114OSM   H15C11848   3.046   4.213  10.748  0.0034 -1.6680 -1.6573
  114OSM    C1411849   2.923   4.267  10.969  0.4038  0.2733 -0.3856
  114OSM   H14A11850   2.881   4.362  10.938  1.2959  1.0913  0.8456
  114OSM   H14B11851   3.029   4.282  10.978  0.0380  1.9621  2.4245
  114OSM   H14C11852   2.882   4.246  11.067  0.7016  1.2325 -0.0468
  114OSM    C1311853   2.735   4.154  10.864  0.0791  0.0907  0.5215
  114OSM   H13A11854   2.697   4.255  10.866  2.2400  0.9643  1.9375
  114OSM   H13B11855   2.697   4.099  10.949 -0.0797  0.7128  0.8631
  114OSM   H13C11856   2.705   4.101  10.775  0.3271 -1.1848  1.1772
  114OSM    C1211857   2.943   4.024  10.899 -0.2700  0.2990 -0.3869
  114OSM   H12A11858   2.946   4.001  11.005  0.5237  1.4785 -0.1298
  114OSM   H12B11859   3.050   4.034  10.886 -0.3632  4.8349  0.4911
  114OSM    C1111860   2.893   3.906  10.808 -0.2029  1.1076  0.0757
  114OSM   H11A11861   2.859   3.945  10.710 -0.2543  2.3938  0.5885
  114OSM   H11B11862   2.803   3.869  10.861  1.3601 -1.8825  0.8902
  114OSM      P11863   3.084   3.806  10.672 -0.3322 -0.3095 -0.2274
  114OSM    O1311864   3.151   3.939  10.670  0.1617  0.1397  0.2893
  114OSM    O1411865   3.162   3.685  10.664 -0.2225 -0.0694  0.2876
  114OSM    O1111866   2.979   3.815  10.557  0.4541  0.4474 -0.4785
  114OSM    O1211867   2.997   3.801  10.808 -0.3643  0.4426 -0.2424
  114OSM    C1S11868   2.907   3.694  10.518 -0.8963  0.2778  0.2025
  114OSM    H1S11869   2.821   3.675  10.586  0.0854  1.7078  1.9172
  114OSM    H1T11870   2.977   3.608  10.519  3.0750  3.2154  2.0384
  114OSM     NF11871   2.754   3.599  10.342  0.4035  0.0746  0.6918
  114OSM    HNF11872   2.785   3.527  10.281 -0.3191 -1.6350  2.2591
  114OSM    C2S11873   2.848   3.709  10.371  0.5681  0.7075  0.2059
  114OSM    H2S11874   2.796   3.807  10.365 -0.8423 -0.0523 -0.5618
  114OSM    C3S11875   2.966   3.716  10.268  0.5737  0.2158  0.2740
  114OSM    H3S11876   3.002   3.611  10.266  0.2992  0.0836 -2.9077
  114OSM     O311877   3.073   3.797  10.307 -0.1327 -0.5583 -0.3477
  114OSM    HO311878   3.055   3.786  10.401  1.6245  0.2285  0.1232
  114OSM    C4S11879   2.909   3.748  10.124 -0.2922 -0.1606 -0.5103
  114OSM    H4S11880   2.899   3.645  10.085  0.6557 -0.6330  0.4380
  114OSM    C5S11881   2.882   3.863  10.065  0.0738 -0.0926  0.2973
  114OSM    H5S11882   2.917   3.958  10.108  0.3339  0.4865 -1.1368
  114OSM    C6S11883   2.833   3.878   9.923  0.0063  0.3509  0.4579
  114OSM    H6S11884   2.907   3.943   9.872  0.2591 -0.5273 -0.3121
  114OSM    H6T11885   2.738   3.934   9.916  1.6446  3.2474 -0.2597
  114OSM    C7S11886   2.824   3.748   9.830  0.4367 -0.1700 -0.2040
  114OSM    H7S11887   2.750   3.673   9.863  0.2119 -0.0279 -0.3823
  114OSM    H7T11888   2.924   3.699   9.829 -0.5548 -2.3009 -1.1546
  114OSM    C8S11889   2.793   3.799   9.681  0.0893 -0.6321  0.4760
  114OSM    H8S11890   2.884   3.853   9.650 -1.0992  1.2274  0.0796
  114OSM    H8T11891   2.700   3.860   9.689  0.7802  0.4491  0.3763
  114OSM    C9S11892   2.750   3.694   9.583  0.1795  0.4694 -0.4170
  114OSM    H9S11893   2.653   3.656   9.621 -0.0083  0.9420 -0.4170
  114OSM    H9T11894   2.820   3.608   9.596 -2.5339 -1.5971  1.7299
  114OSM   C10S11895   2.747   3.756   9.441 -0.1906 -0.4063 -0.2279
  114OSM   H10S11896   2.844   3.792   9.400 -0.7012  1.7017  0.2742
  114OSM   H10T11897   2.686   3.849   9.443  0.6478  0.1382  0.6354
  114OSM   C11S11898   2.679   3.668   9.339 -0.5345  0.3277 -0.6740
  114OSM   H11S11899   2.578   3.647   9.380 -0.2486  2.2447  1.1951
  114OSM   H11T11900   2.729   3.570   9.320 -2.4067 -0.4165 -1.9946
  114OSM   C12S11901   2.690   3.724   9.202  0.5015 -0.9057 -0.4413
  114OSM   H12S11902   2.674   3.635   9.137  0.1002 -0.7709 -0.5272
  114OSM   H12T11903   2.795   3.760   9.187 -0.4014  1.5696 -1.4054
  114OSM   C13S11904   2.579   3.822   9.161  0.0906 -0.1013  0.0002
  114OSM   H13S11905   2.590   3.897   9.243  2.0705 -0.5905  0.2318
  114OSM   H13T11906   2.478   3.777   9.164 -0.2814  0.7218  0.2240
  114OSM   C14S11907   2.609   3.877   9.022 -0.3530  0.6634  0.6483
  114OSM   H14S11908   2.707   3.929   9.017 -1.1744  2.3657  1.4149
  114OSM   H14T11909   2.536   3.960   9.008 -1.8109 -0.5012  1.0813
  114OSM   C15S11910   2.588   3.770   8.912 -0.2032  0.5181 -0.0425
  114OSM   H15S11911   2.502   3.705   8.939 -0.2061  0.2625 -0.6603
  114OSM   H15T11912   2.679   3.708   8.904 -0.4765 -0.0939  1.2507
  114OSM   C16S11913   2.562   3.836   8.772 -0.1009  0.3512  0.5251
  114OSM   H16S11914   2.646   3.906   8.753  0.6193 -1.2030 -2.8849
  114OSM   H16T11915   2.460   3.875   8.753  0.2728  0.8268 -0.5549
  114OSM   C17S11916   2.591   3.730   8.660 -0.3881  0.0689 -0.3833
  114OSM   H17S11917   2.520   3.646   8.679 -1.9259  1.8282  2.1996
  114OSM   H17T11918   2.693   3.690   8.675 -0.8565 -1.5388 -1.1563
  114OSM   C18S11919   2.575   3.785   8.512 -0.4002  0.4697 -0.4885
  114OSM   H18S11920   2.663   3.851   8.502  0.2404 -0.0156  1.5920
  114OSM   H18T11921   2.473   3.827   8.500  0.0895  1.3525 -1.8203
  114OSM   H18U11922   2.579   3.691   8.452  0.8506 -1.0042  1.7651
  114OSM    C1F11923   2.632   3.601  10.403 -0.4134 -0.4597  0.0384
  114OSM     OF11924   2.610   3.678  10.495 -0.5027  0.4754  0.0370
  114OSM    C2F11925   2.522   3.511  10.358  0.3770 -0.3066  0.5301
  114OSM    H2F11926   2.458   3.484  10.444  0.7568  2.7800  1.9061
  114OSM    H2G11927   2.569   3.420  10.313 -3.0219 -1.4666 -0.9739
  114OSM    C3F11928   2.422   3.580  10.262 -0.4084 -0.5482  0.7928
  114OSM    H3F11929   2.476   3.617  10.173 -0.6264 -1.3285  0.3359
  114OSM    H3G11930   2.374   3.666  10.315  1.7685  1.5608 -0.4583
  114OSM    C4F11931   2.310   3.479  10.219  0.1612  0.5532  0.0174
  114OSM    H4F11932   2.261   3.445  10.312 -0.3709 -0.3632 -0.5809
  114OSM    H4G11933   2.356   3.388  10.173  0.4461 -0.0334  1.4240
  114OSM    C5F11934   2.198   3.538  10.129  0.2826  0.0769 -0.4365
  114OSM    H5F11935   2.248   3.579  10.039 -2.5751 -1.5129 -2.9565
  114OSM    H5G11936   2.158   3.624  10.186  1.1482  0.9408 -1.1002
  114OSM    C6F11937   2.083   3.442  10.084 -0.0021 -0.5120  0.1085
  114OSM    H6F11938   2.023   3.405  10.170 -0.3891 -0.0311  0.0543
  114OSM    H6G11939   2.132   3.354  10.038  0.5277 -1.6742  2.7599
  114OSM    C7F11940   1.992   3.506   9.971 -0.0884  0.2227 -0.2803
  114OSM    H7F11941   2.002   3.616   9.966 -1.0717  0.2727 -1.7372
  114OSM    H7G11942   1.888   3.487  10.005 -0.3125  0.5784 -0.7585
  114OSM    C8F11943   2.040   3.464   9.822  0.4223  0.2118  0.2558
  114OSM    H8F11944   2.064   3.356   9.824  1.9637  0.4363 -2.1297
  114OSM    H8G11945   2.132   3.521   9.797  0.7737 -0.1040  0.8022
  114OSM    C9F11946   1.936   3.500   9.723 -0.7866  0.1584  0.0604
  114OSM    H9F11947   1.889   3.598   9.743  1.7323  1.5356 -0.3757
  114OSM   C10F11948   1.878   3.423   9.627  0.2045 -0.5111  0.3688
  114OSM   H10F11949   1.797   3.464   9.564 -1.2598 -3.0182  0.5006
  114OSM   C11F11950   1.917   3.280   9.594 -0.4463 -0.3630 -0.2951
  114OSM   H11F11951   1.924   3.221   9.688  1.8120  0.7374  0.2888
  114OSM   H11G11952   2.018   3.276   9.548  0.0171  1.2786  0.5100
  114OSM   C12F11953   1.809   3.216   9.492 -0.0066 -0.0096  0.2590
  114OSM   H12F11954   1.708   3.247   9.527  0.3036 -0.8770  2.0145
  114OSM   H12G11955   1.822   3.107   9.507 -0.7867 -0.0533  0.6442
  114OSM   C13F11956   1.848   3.253   9.347 -0.2223  0.1139 -0.2655
  114OSM   H13F11957   1.952   3.219   9.335  0.1035  0.5638  1.0436
  114OSM   H13G11958   1.849   3.362   9.324 -0.9102 -0.1015 -1.3936
  114OSM   C14F11959   1.764   3.174   9.243  0.1843  0.4717 -0.4420
  114OSM   H14F11960   1.661   3.206   9.267  0.0504 -0.9769  1.0469
  114OSM   H14G11961   1.769   3.068   9.275 -0.6224  0.0531 -1.6218
  114OSM   C15F11962   1.819   3.204   9.102 -0.3041  0.6571 -0.0837
  114OSM   H15F11963   1.918   3.153   9.102 -1.3268 -1.4676  1.0119
  114OSM   H15G11964   1.837   3.312   9.085 -0.2217  0.6182 -0.2426
  114OSM   C16F11965   1.718   3.148   8.993  0.0125  0.3256 -0.4658
  114OSM   H16F11966   1.695   3.048   9.034  1.2118 -0.3441 -1.3642
  114OSM   H16G11967   1.754   3.143   8.888 -0.8448 -1.4164 -0.7176
  114OSM   C17F11968   1.585   3.231   8.976  0.2109 -0.5626 -0.0770
  114OSM   H17F11969   1.559   3.250   9.082 -1.0928 -0.2508 -0.4415
  114OSM   H17G11970   1.509   3.171   8.922 -1.1079  1.7800 -0.9582
  114OSM   C18F11971   1.592   3.361   8.897 -0.4919 -0.3541  0.0732
  114OSM   H18F11972   1.678   3.427   8.923  0.3595 -1.2924 -0.3014
  114OSM   H18G11973   1.503   3.426   8.910  0.7601  1.6552 -0.7962
  114OSM   H18H11974   1.602   3.340   8.788 -3.2401  1.5026 -0.6360
  115OSM      N11975   0.170   1.637  11.036  0.2508 -0.4615  0.3765
  115OSM    C1511976   0.170   1.652  11.183  0.0406 -0.0928 -0.1005
  115OSM   H15A11977   0.093   1.717  11.222 -0.8399 -2.2128  1.9357
  115OSM   H15B11978   0.262   1.688  11.225 -0.1643 -0.9222  1.1246
  115OSM   H15C11979   0.149   1.561  11.237  0.3418  0.6088  1.2287
  115OSM    C1411980   0.049   1.553  11.001  0.6050  0.5229 -0.0504
  115OSM   H14A11981   0.084   1.452  11.016 -0.3165 -0.1501 -2.0340
  115OSM   H14B11982   0.021   1.559  10.897 -0.8784  1.9994  0.3811
  115OSM   H14C11983  -0.038   1.583  11.058  2.6574  1.5289  2.7602
  115OSM    C1311984   0.156   1.773  10.956  0.2736  0.4214 -0.7458
  115OSM   H13A11985   0.170   1.757  10.850  0.8260 -1.2332 -0.4564
  115OSM   H13B11986   0.233   1.843  10.984  0.0464 -0.0450  1.1662
  115OSM   H13C11987   0.055   1.804  10.974 -0.4072 -0.9907 -1.8688
  115OSM    C1211988   0.299   1.566  10.980  0.1737  0.4353 -0.2463
  115OSM   H12A11989   0.380   1.636  10.968  1.0508 -0.2159  1.4526
  115OSM   H12B11990   0.293   1.528  10.879  1.2392 -2.0196  0.5525
  115OSM    C1111991   0.340   1.440  11.052  0.0241 -0.3869 -0.7635
  115OSM   H11A11992   0.339   1.468  11.159  1.0297 -0.5704 -0.6891
  115OSM   H11B11993   0.443   1.409  11.023  0.1242 -0.8225  0.0376
  115OSM      P11994   0.278   1.227  10.925  0.3085  0.0245 -0.1319
  115OSM    O1311995   0.415   1.184  10.951 -0.2125 -0.7210  0.1537
  115OSM    O1411996   0.169   1.126  10.907  0.0420 -0.1090 -0.7862
  115OSM    O1111997   0.278   1.309  10.787  0.2051  0.8733  0.3951
  115OSM    O1211998   0.248   1.336  11.033 -0.0987  0.6192  0.2765
  115OSM    C1S11999   0.314   1.231  10.669  0.2620 -0.4958 -0.0220
  115OSM    H1S12000   0.259   1.136  10.655  1.0944 -0.8457 -1.1083
  115OSM    H1T12001   0.423   1.211  10.676  0.3141  0.1003  1.0503
  115OSM     NF12002   0.303   1.231  10.420 -0.1208  0.2605 -0.5167
  115OSM    HNF12003   0.383   1.227  10.361  1.4124 -0.6626  1.5038
  115OSM    C2S12004   0.305   1.315  10.538  0.2776 -0.3395 -0.3549
  115OSM    H2S12005   0.210   1.374  10.543  0.4806  0.2165 -2.1369
  115OSM    C3S12006   0.424   1.421  10.549  0.8496  0.3307 -0.4454
  115OSM    H3S12007   0.522   1.371  10.530 -0.1225 -1.0465 -2.2007
  115OSM     O312008   0.418   1.489  10.677  0.3428  0.0328  0.1835
  115OSM    HO312009   0.348   1.445  10.726 -1.3476  0.3377 -1.8177
  115OSM    C4S12010   0.409   1.506  10.424 -0.1620 -0.6309  0.2655
  115OSM    H4S12011   0.470   1.471  10.340  2.1593  2.1058  0.6220
  115OSM    C5S12012   0.343   1.624  10.418  0.4614  0.5804 -0.3233
  115OSM    H5S12013   0.303   1.665  10.511  1.6408 -0.6128  0.7533
  115OSM    C6S12014   0.312   1.711  10.295  0.2807 -0.0168 -0.4330
  115OSM    H6S12015   0.338   1.818  10.315 -0.2603 -0.2977  2.0860
  115OSM    H6T12016   0.202   1.720  10.296  0.2656 -0.0743  1.2775
  115OSM    C7S12017   0.358   1.670  10.154 -0.5255  0.3594 -0.1962
  115OSM    H7S12018   0.298   1.578  10.136  1.0177 -0.5090 -1.1934
  115OSM    H7T12019   0.468   1.654  10.151 -0.5543  0.0899  0.1267
  115OSM    C8S12020   0.331   1.764  10.035  0.2434  0.2238  0.5807
  115OSM    H8S12021   0.371   1.866  10.052  2.7671 -0.8532  1.6141
  115OSM    H8T12022   0.220   1.772  10.029  0.3546  0.9343 -1.3782
  115OSM    C9S12023   0.387   1.711   9.902 -0.0460  0.0205 -0.1648
  115OSM    H9S12024   0.334   1.617   9.873  0.0228  0.2819 -1.1541
  115OSM    H9T12025   0.494   1.687   9.917 -0.0607 -0.3020 -0.5401
  115OSM   C10S12026   0.375   1.806   9.784  0.3332  0.4333  0.4502
  115OSM   H10S12027   0.434   1.898   9.804  1.6296 -0.1181 -0.6555
  115OSM   H10T12028   0.267   1.830   9.780  0.5092  1.4880  1.4651
  115OSM   C11S12029   0.420   1.740   9.654 -0.1285 -0.0942  0.2896
  115OSM   H11S12030   0.371   1.641   9.643  0.2262 -0.4592  1.8576
  115OSM   H11T12031   0.530   1.736   9.649 -0.2099 -1.7910 -1.1791
  115OSM   C12S12032   0.371   1.822   9.529  0.8670  0.0441 -0.2631
  115OSM   H12S12033   0.391   1.929   9.551 -0.0248 -0.1878  2.0136
  115OSM   H12T12034   0.260   1.811   9.528  0.5653  2.5965 -1.4116
  115OSM   C13S12035   0.435   1.789   9.396  0.1403 -0.0512  0.3123
  115OSM   H13S12036   0.398   1.689   9.365  0.3627 -0.2317  0.6285
  115OSM   H13T12037   0.546   1.792   9.391  0.0690  1.5017 -1.7095
  115OSM   C14S12038   0.380   1.880   9.289 -0.5817 -0.0813  0.6830
  115OSM   H14S12039   0.437   1.974   9.301  1.7243 -1.1833 -0.7786
  115OSM   H14T12040   0.272   1.903   9.295 -0.5268  0.5024 -0.3994
  115OSM   C15S12041   0.414   1.831   9.146 -0.1099  0.6180  0.5385
  115OSM   H15S12042   0.363   1.732   9.142 -0.2025  0.6045  1.8003
  115OSM   H15T12043   0.524   1.816   9.145 -0.3668 -2.2950  2.4864
  115OSM   C16S12044   0.379   1.924   9.037  0.6078  0.4626  0.2335
  115OSM   H16S12045   0.443   2.015   9.039 -2.0327  2.4721 -0.6096
  115OSM   H16T12046   0.281   1.975   9.050 -0.0867 -1.0647  1.2995
  115OSM   C17S12047   0.386   1.862   8.900  0.6167  0.3831  0.2595
  115OSM   H17S12048   0.306   1.784   8.897  0.8216  0.2115 -1.9340
  115OSM   H17T12049   0.483   1.814   8.876  0.9808  0.3411  1.7468
  115OSM   C18S12050   0.356   1.960   8.785 -0.5515 -0.1452  0.7370
  115OSM   H18S12051   0.417   2.050   8.809  1.1902 -0.9931 -0.2612
  115OSM   H18T12052   0.248   1.983   8.788 -0.8101 -0.8533 -1.3257
  115OSM   H18U12053   0.376   1.914   8.686  0.1524  0.9981  0.3250
  115OSM    C1F12054   0.205   1.149  10.398  0.1305  0.4085  0.1652
  115OSM     OF12055   0.114   1.135  10.483 -0.1175  0.3147  0.5630
  115OSM    C2F12056   0.208   1.061  10.276  0.3061  0.1991  0.7117
  115OSM    H2F12057   0.310   1.021  10.256  0.0739 -0.0627  0.0107
  115OSM    H2G12058   0.176   1.114  10.184 -0.7957 -0.9718  0.3904
  115OSM    C3F12059   0.102   0.947  10.284  0.7819 -0.5442  0.0509
  115OSM    H3F12060  -0.004   0.975  10.302  0.1835 -2.7011  0.2329
  115OSM    H3G12061   0.131   0.898  10.380  0.8836 -0.5506  0.0163
  115OSM    C4F12062   0.099   0.858  10.162  0.4915  0.3127  0.1207
  115OSM    H4F12063   0.025   0.779  10.189 -1.4369  1.5668 -1.2407
  115OSM    H4G12064   0.200   0.825  10.128 -0.8265 -1.7832 -2.0473
  115OSM    C5F12065   0.025   0.936  10.050 -0.0908  0.1651 -0.0994
  115OSM    H5F12066   0.062   1.040  10.038 -0.0165  0.1238 -0.2361
  115OSM    H5G12067  -0.081   0.937  10.082 -0.3213 -2.1959 -0.5591
  115OSM    C6F12068   0.028   0.861   9.913  0.3137 -0.2724  0.4165
  115OSM    H6F12069  -0.038   0.911   9.838  0.2959  0.3889  0.8586
  115OSM    H6G12070  -0.010   0.761   9.943 -0.6910 -0.3761 -1.0739
  115OSM    C7F12071   0.168   0.849   9.836  0.4840  0.6638  0.0837
  115OSM    H7F12072   0.234   0.808   9.915 -0.8203 -0.3459  0.6869
  115OSM    H7G12073   0.206   0.945   9.796  1.9198 -0.0006 -0.2200
  115OSM    C8F12074   0.165   0.763   9.704 -0.3697 -0.1356  0.5430
  115OSM    H8F12075   0.088   0.815   9.643 -2.0071 -3.1405 -0.1505
  115OSM    H8G12076   0.115   0.664   9.717 -3.4583  1.1302 -0.7861
  115OSM    C9F12077   0.288   0.743   9.618 -0.4200 -0.2131  0.2910
  115OSM    H9F12078   0.382   0.712   9.667 -0.6463  0.1616  0.9758
  115OSM   C10F12079   0.291   0.763   9.488  0.1622 -0.1453  0.4609
  115OSM   H10F12080   0.389   0.762   9.438  0.9927  1.8900  1.9398
  115OSM   C11F12081   0.177   0.799   9.404  0.6966  0.0701 -0.3762
  115OSM   H11F12082   0.154   0.908   9.396 -3.9716 -0.8072 -2.2496
  115OSM   H11G12083   0.083   0.753   9.442  2.0732 -2.9866 -0.3771
  115OSM   C12F12084   0.191   0.744   9.264 -0.1380  0.6653  0.3122
  115OSM   H12F12085   0.095   0.745   9.208  0.9049  0.6110 -1.5524
  115OSM   H12G12086   0.221   0.638   9.274  0.0596  0.8361  1.7618
  115OSM   C13F12087   0.295   0.817   9.179  0.0306  0.0701 -0.2416
  115OSM   H13F12088   0.404   0.800   9.195 -0.1743  0.0599  1.3603
  115OSM   H13G12089   0.279   0.926   9.193 -1.1065  0.3557 -3.1462
  115OSM   C14F12090   0.283   0.780   9.028 -0.4499  0.3300  0.4124
  115OSM   H14F12091   0.189   0.825   8.990 -1.0562 -0.2632  1.1838
  115OSM   H14G12092   0.258   0.672   9.016  0.1627 -0.0250  2.1200
  115OSM   C15F12093   0.404   0.825   8.950  0.6788  0.8883 -0.0097
  115OSM   H15F12094   0.405   0.783   8.847 -0.9739 -2.0199  1.0594
  115OSM   H15G12095   0.486   0.782   9.012  0.7358 -0.3960 -0.9522
  115OSM   C16F12096   0.423   0.980   8.942  0.4086  0.1145 -0.2862
  115OSM   H16F12097   0.516   1.006   8.887  1.2195  0.1696  1.0729
  115OSM   H16G12098   0.439   1.023   9.044  1.2893 -0.0331 -0.3546
  115OSM   C17F12099   0.312   1.054   8.871  0.1031  0.5951  0.2731
  115OSM   H17F12100   0.324   1.161   8.844 -1.4115  0.6416 -0.3611
  115OSM   H17G12101   0.215   1.043   8.926 -0.2497 -1.5124 -0.6868
  115OSM   C18F12102   0.286   1.004   8.724 -0.6423  0.1812 -0.1127
  115OSM   H18F12103   0.223   0.914   8.741 -1.4243  0.9467  1.3336
  115OSM   H18G12104   0.378   0.972   8.671  1.9908  1.5987  3.1733
  115OSM   H18H12105   0.218   1.075   8.672 -0.6771  0.0818 -0.2017
  116OSM      N12106   2.559   6.445  10.949  0.2284 -0.3323  0.1084
  116OSM    C1512107   2.621   6.340  11.034  1.4763 -0.1580 -0.6173
  116OSM   H15A12108   2.559   6.252  11.028  0.3955  0.4601  0.9002
  116OSM   H15B12109   2.622   6.361  11.140  0.7467 -4.2838  0.3618
  116OSM   H15C12110   2.720   6.319  10.995  1.0916 -0.0067 -1.7049
  116OSM    C1412111   2.481   6.383  10.832  0.9723  0.1723  0.4423
  116OSM   H14A12112   2.430   6.453  10.767 -0.1749 -1.6788 -0.7269
  116OSM   H14B12113   2.412   6.306  10.861  0.0087  1.5509  1.9695
  116OSM   H14C12114   2.550   6.323  10.774 -1.9454 -1.9218 -1.1400
  116OSM    C1312115   2.454   6.507  11.038 -0.3490 -0.2892  0.2529
  116OSM   H13A12116   2.374   6.439  11.063 -1.5659  0.6583 -0.9268
  116OSM   H13B12117   2.411   6.591  10.986  2.3091  0.4458 -0.8924
  116OSM   H13C12118   2.504   6.543  11.126 -0.3516 -0.5482  0.3627
  116OSM    C1212119   2.668   6.544  10.908 -1.0538 -0.3102 -0.2162
  116OSM   H12A12120   2.714   6.584  10.997 -0.2492  1.1414 -1.2438
  116OSM   H12B12121   2.632   6.630  10.854 -2.0854  0.6947  1.9737
  116OSM    C1112122   2.793   6.491  10.819  0.9711 -0.2817  0.6975
  116OSM   H11A12123   2.860   6.575  10.793 -0.9600  0.9800 -0.5224
  116OSM   H11B12124   2.747   6.461  10.723  1.4553 -0.3574  0.4903
  116OSM      P12125   2.993   6.382  10.966  0.3798  0.0506 -0.4421
  116OSM    O1312126   2.962   6.465  11.081 -0.2209  0.0414 -0.4122
  116OSM    O1412127   3.023   6.244  10.990  0.1698  0.6785 -0.2314
  116OSM    O1112128   3.083   6.461  10.866  0.1826  0.0595 -0.0269
  116OSM    O1212129   2.857   6.381  10.878 -0.0447  0.2252  0.2491
  116OSM    C1S12130   3.136   6.394  10.746  0.5505 -0.9277  0.2808
  116OSM    H1S12131   3.139   6.283  10.754  1.3964 -1.0485 -1.2771
  116OSM    H1T12132   3.241   6.428  10.740  0.4609 -0.4173  1.3875
  116OSM     NF12133   3.106   6.349  10.499  0.2674  0.3746 -0.5577
  116OSM    HNF12134   3.179   6.375  10.436 -0.0917  1.8310 -0.4065
  116OSM    C2S12135   3.070   6.439  10.609 -0.3063  0.0555  0.7488
  116OSM    H2S12136   2.959   6.436  10.618 -0.2284  1.8859  4.2654
  116OSM    C3S12137   3.104   6.592  10.578 -0.3515  0.5332 -0.2301
  116OSM    H3S12138   3.214   6.605  10.569 -0.2289  1.4280  1.9192
  116OSM     O312139   3.065   6.671  10.691 -0.5663 -1.0360  0.1244
  116OSM    HO312140   3.068   6.621  10.773  0.8463  1.2333  1.5757
  116OSM    C4S12141   3.046   6.628  10.447  0.3892  0.3994 -0.0148
  116OSM    H4S12142   3.118   6.605  10.368 -0.9736 -2.5680 -0.5352
  116OSM    C5S12143   2.920   6.671  10.414 -0.0110  0.2219 -0.1173
  116OSM    H5S12144   2.854   6.691  10.500  0.1469  3.5134 -0.6300
  116OSM    C6S12145   2.862   6.706  10.275 -0.0200 -0.0556  0.0321
  116OSM    H6S12146   2.808   6.802  10.284 -1.6187 -0.9351  0.2035
  116OSM    H6T12147   2.794   6.619  10.255  0.3358 -0.4711  0.5941
  116OSM    C7S12148   2.954   6.712  10.157  0.4474 -0.1609 -0.0559
  116OSM    H7S12149   2.966   6.610  10.114  1.3398 -1.0101  2.1048
  116OSM    H7T12150   3.053   6.745  10.193 -0.0640 -0.7605  2.0594
  116OSM    C8S12151   2.901   6.810  10.046  0.2147  0.7137 -0.1780
  116OSM    H8S12152   2.856   6.898  10.097 -2.2353  0.2517 -1.3777
  116OSM    H8T12153   2.811   6.762  10.003  0.1281  0.7567 -0.0467
  116OSM    C9S12154   3.001   6.836   9.939  0.2318  0.5666  0.1811
  116OSM    H9S12155   3.082   6.760   9.936 -1.0850 -1.0413  1.9859
  116OSM    H9T12156   3.054   6.930   9.961  2.5912 -0.2218 -1.7820
  116OSM   C10S12157   2.932   6.840   9.802 -0.1526  0.6557  0.3346
  116OSM   H10S12158   2.856   6.921   9.791  1.4022  2.0844 -0.4804
  116OSM   H10T12159   2.888   6.740   9.787 -0.6691  0.9382 -0.0947
  116OSM   C11S12160   3.031   6.857   9.690 -0.0792 -0.6929 -0.3231
  116OSM   H11S12161   3.112   6.781   9.688  0.8058  0.2395 -0.1660
  116OSM   H11T12162   3.087   6.951   9.707  1.3941 -1.4951 -0.5602
  116OSM   C12S12163   2.959   6.840   9.554 -0.5710 -0.2346  0.8275
  116OSM   H12S12164   2.873   6.909   9.544  0.1646  0.5489 -0.3169
  116OSM   H12T12165   2.915   6.738   9.563 -0.8198 -0.5652 -2.6458
  116OSM   C13S12166   3.052   6.853   9.426  0.5381  0.5574  0.3636
  116OSM   H13S12167   3.034   6.759   9.370  2.6830  1.2230 -1.6496
  116OSM   H13T12168   3.157   6.853   9.463  0.8947  0.0074 -0.6224
  116OSM   C14S12169   3.042   6.977   9.338  0.2937 -0.7416  0.3449
  116OSM   H14S12170   3.029   7.067   9.402  0.4387  1.7936 -2.8979
  116OSM   H14T12171   2.944   6.973   9.285 -0.4673 -2.0077  1.7989
  116OSM   C15S12172   3.162   7.001   9.243  0.0471 -0.3584  0.2686
  116OSM   H15S12173   3.175   6.906   9.188  0.3499  1.0553 -2.2625
  116OSM   H15T12174   3.252   7.029   9.303  0.0668  0.0821  0.0402
  116OSM   C16S12175   3.135   7.112   9.139 -0.3935 -0.3101  0.0758
  116OSM   H16S12176   3.140   7.214   9.184 -1.9091  0.0123 -0.4462
  116OSM   H16T12177   3.033   7.098   9.098  0.2675  0.0106 -1.7602
  116OSM   C17S12178   3.245   7.111   9.029  0.1258 -0.5911  0.2354
  116OSM   H17S12179   3.242   7.013   8.977  0.6027 -0.2263 -0.5013
  116OSM   H17T12180   3.344   7.125   9.076  0.2893  4.0972 -0.9844
  116OSM   C18S12181   3.226   7.216   8.919 -0.6078 -0.0890 -0.5816
  116OSM   H18S12182   3.154   7.177   8.845 -1.4710  0.7004 -0.1828
  116OSM   H18T12183   3.324   7.242   8.873  0.7668  0.1086  2.2256
  116OSM   H18U12184   3.179   7.306   8.964 -0.6768  0.5414 -1.8639
  116OSM    C1F12185   3.049   6.232  10.490  0.4338 -0.0475 -0.4419
  116OSM     OF12186   2.963   6.196  10.573  0.4870 -0.1913  0.6093
  116OSM    C2F12187   3.085   6.142  10.375 -0.2075  0.3333 -0.3355
  116OSM    H2F12188   3.137   6.057  10.425 -1.2789  2.0503  4.1036
  116OSM    H2G12189   3.154   6.200  10.310 -0.9191  2.3445  0.6487
  116OSM    C3F12190   2.965   6.080  10.305 -0.1702  0.3541  0.7853
  116OSM    H3F12191   2.895   6.022  10.369 -1.9095 -0.0038 -1.3322
  116OSM    H3G12192   3.001   6.006  10.230 -0.2505  0.2713  0.8293
  116OSM    C4F12193   2.877   6.171  10.213 -0.1492  0.7929 -0.1794
  116OSM    H4F12194   2.843   6.261  10.269 -0.3802  0.9609 -0.5873
  116OSM    H4G12195   2.784   6.115  10.189 -0.1346  0.4739  0.4960
  116OSM    C5F12196   2.950   6.219  10.086 -0.0173 -0.3657  0.1804
  116OSM    H5F12197   2.988   6.144  10.014 -0.5607  0.4068 -0.9465
  116OSM    H5G12198   3.038   6.275  10.123  1.3438 -2.0729 -0.3357
  116OSM    C6F12199   2.863   6.318  10.008 -0.7996 -0.4750  0.0833
  116OSM    H6F12200   2.919   6.356   9.919 -1.1136 -1.7930 -0.6937
  116OSM    H6G12201   2.827   6.403  10.070 -0.1083 -0.9828  1.2086
  116OSM    C7F12202   2.736   6.256   9.942 -0.4717  0.4834 -0.0897
  116OSM    H7F12203   2.643   6.275  10.000 -1.6353 -2.2023 -0.9029
  116OSM    H7G12204   2.734   6.146   9.958 -0.1910  0.0869 -2.4664
  116OSM    C8F12205   2.714   6.291   9.796 -0.1597  0.2715 -0.1214
  116OSM    H8F12206   2.707   6.402   9.790 -1.5605  0.2056 -0.1463
  116OSM    H8G12207   2.618   6.240   9.773  0.1234 -1.1299  1.6247
  116OSM    C9F12208   2.815   6.216   9.711 -0.2893 -0.1124  0.6547
  116OSM    H9F12209   2.893   6.159   9.764  0.2018  0.9523  1.1231
  116OSM   C10F12210   2.834   6.220   9.577 -0.0023  0.1234 -0.0148
  116OSM   H10F12211   2.908   6.155   9.528 -0.6495  0.0793 -0.9594
  116OSM   C11F12212   2.755   6.307   9.486  0.1519 -0.2154 -0.2928
  116OSM   H11F12213   2.706   6.387   9.546 -1.2135 -1.6702  0.6255
  116OSM   H11G12214   2.678   6.254   9.426 -1.3736  1.7833 -0.2085
  116OSM   C12F12215   2.844   6.375   9.377  0.1667 -0.6252  0.3191
  116OSM   H12F12216   2.886   6.291   9.318 -2.7470 -0.9641 -1.5023
  116OSM   H12G12217   2.921   6.442   9.420 -1.6178  2.0911 -0.4658
  116OSM   C13F12218   2.771   6.468   9.282 -0.5831  0.3528 -0.4237
  116OSM   H13F12219   2.711   6.527   9.354 -1.2240 -3.0591  2.1332
  116OSM   H13G12220   2.699   6.407   9.223  0.2153 -1.9416  0.8317
  116OSM   C14F12221   2.852   6.565   9.205 -1.0565  0.5927 -0.1558
  116OSM   H14F12222   2.934   6.505   9.160 -0.7189  0.4174  0.6638
  116OSM   H14G12223   2.903   6.635   9.275  2.0345 -1.2515 -0.3903
  116OSM   C15F12224   2.779   6.640   9.092  0.0849  0.0712  0.0455
  116OSM   H15F12225   2.698   6.707   9.127  0.6247  0.5025  0.4896
  116OSM   H15G12226   2.744   6.557   9.026  0.9131  1.6703 -2.5630
  116OSM   C16F12227   2.868   6.739   9.019 -0.0505 -0.2132 -0.3657
  116OSM   H16F12228   2.908   6.816   9.088 -1.2185  3.0950 -3.0741
  116OSM   H16G12229   2.812   6.797   8.942  0.6108  1.0150  0.0416
  116OSM   C17F12230   2.974   6.675   8.931 -0.0080 -0.7250 -0.3132
  116OSM   H17F12231   2.926   6.595   8.872 -0.9194 -0.8457  0.5713
  116OSM   H17G12232   3.038   6.616   9.000  1.3959  0.5864 -0.4343
  116OSM   C18F12233   3.054   6.767   8.844 -0.5500  0.3028 -1.1060
  116OSM   H18F12234   3.098   6.853   8.899  1.0877 -0.4834 -1.1337
  116OSM   H18G12235   2.982   6.806   8.769 -3.7668 -1.2607  0.9174
  116OSM   H18H12236   3.125   6.713   8.778 -1.9839 -2.5551 -0.4789
  117OSM      N12237   1.961   0.251  11.017 -0.7837 -0.7842  0.7500
  117OSM    C1512238   2.005   0.391  11.044  0.1842  0.4176  0.8930
  117OSM   H15A12239   2.068   0.440  10.971 -1.9969  0.1044 -1.3246
  117OSM   H15B12240   2.057   0.399  11.139 -1.4427  1.4026  1.7373
  117OSM   H15C12241   1.919   0.452  11.067  1.3679  1.8491  1.7926
  117OSM    C1412242   1.880   0.205  11.121  0.7791 -0.7924 -0.3614
  117OSM   H14A12243   1.856   0.102  11.101 -1.7078 -0.4644  0.5269
  117OSM   H14B12244   1.789   0.260  11.141  1.3790  0.1075 -0.0135
  117OSM   H14C12245   1.924   0.211  11.219  1.7667 -1.3921 -0.7585
  117OSM    C1312246   1.884   0.249  10.884 -0.5589 -0.8870 -0.1753
  117OSM   H13A12247   1.784   0.291  10.887 -1.3356 -2.7140  1.2285
  117OSM   H13B12248   1.864   0.146  10.858 -0.4307 -0.0732 -4.1325
  117OSM   H13C12249   1.946   0.291  10.806 -1.6903 -0.9427 -1.1352
  117OSM    C1212250   2.084   0.161  11.004 -0.1212 -0.3321  0.0906
  117OSM   H12A12251   2.060   0.058  10.980  2.4487 -1.1319  0.6056
  117OSM   H12B12252   2.129   0.164  11.103 -0.5926  1.5757  0.2914
  117OSM    C1112253   2.180   0.196  10.891  0.3677 -0.9247  0.0331
  117OSM   H11A12254   2.192   0.306  10.882  3.7729 -0.8445  3.0143
  117OSM   H11B12255   2.123   0.156  10.805 -0.4129 -2.6460  1.3018
  117OSM      P12256   2.343  -0.007  10.870  0.1037 -0.0960 -0.2195
  117OSM    O1312257   2.489  -0.025  10.880  0.5975  0.2645 -0.4200
  117OSM    O1412258   2.264  -0.111  10.935  0.6111  0.1080  0.6359
  117OSM    O1112259   2.297  -0.002  10.725 -0.0946 -0.1470  0.5588
  117OSM    O1212260   2.309   0.138  10.924  0.7204 -0.3858  0.0636
  117OSM    C1S12261   2.339   0.095  10.633 -0.8705 -0.1919  0.1275
  117OSM    H1S12262   2.450   0.102  10.631 -0.8819  1.5328  2.0659
  117OSM    H1T12263   2.309   0.199  10.661  1.6344  0.1574  1.8560
  117OSM     NF12264   2.374   0.125  10.399 -0.3792  0.5588 -0.2501
  117OSM    HNF12265   2.331   0.208  10.364 -1.5305  1.1459  2.3346
  117OSM    C2S12266   2.303   0.045  10.491  0.1459  0.0068 -0.1714
  117OSM    H2S12267   2.342  -0.059  10.491  0.0071 -0.0747  1.9133
  117OSM    C3S12268   2.144   0.052  10.479 -0.2136  0.3297 -0.4700
  117OSM    H3S12269   2.110   0.155  10.499 -0.3435  0.4491 -1.2732
  117OSM     O312270   2.081  -0.034  10.581  0.1257  0.0939  0.4045
  117OSM    HO312271   2.133  -0.025  10.661 -1.0102  0.6842  1.1082
  117OSM    C4S12272   2.108   0.019  10.337  0.8767  0.6721  0.5892
  117OSM    H4S12273   2.136  -0.082  10.301 -1.1897 -0.2173  1.2874
  117OSM    C5S12274   2.020   0.089  10.254 -0.0934 -0.8576 -0.8811
  117OSM    H5S12275   1.992   0.190  10.288  0.2354 -0.8897 -0.5033
  117OSM    C6S12276   1.988   0.061  10.113  1.4213 -0.0829  0.5568
  117OSM    H6S12277   1.881   0.074  10.084  1.6209 -0.1983 -0.2722
  117OSM    H6T12278   2.014  -0.041  10.077  0.5431 -0.0016 -0.3811
  117OSM    C7S12279   2.053   0.163  10.015  0.4386  0.4966  0.4219
  117OSM    H7S12280   2.161   0.177  10.036  0.8119 -1.2320 -0.1611
  117OSM    H7T12281   2.000   0.259  10.030  0.0007  0.4858 -0.8981
  117OSM    C8S12282   2.028   0.111   9.873  1.1178  0.5121 -0.6045
  117OSM    H8S12283   1.921   0.083   9.865  0.5926  0.6727  3.4599
  117OSM    H8T12284   2.078   0.012   9.865  0.0948 -0.0843  0.1265
  117OSM    C9S12285   2.076   0.212   9.775  0.4071  0.4736 -0.0139
  117OSM    H9S12286   2.181   0.230   9.803  0.3208 -0.9488  1.3781
  117OSM    H9T12287   2.019   0.307   9.776 -0.0587  0.3923 -3.6839
  117OSM   C10S12288   2.069   0.162   9.634 -0.3648 -0.5925  0.6263
  117OSM   H10S12289   1.964   0.133   9.610 -0.5360  1.3458 -1.1704
  117OSM   H10T12290   2.129   0.069   9.619 -1.0841 -0.8513 -0.8047
  117OSM   C11S12291   2.092   0.276   9.528  0.6755  0.3978  0.1109
  117OSM   H11S12292   2.191   0.319   9.553  1.1243 -0.1680 -0.6394
  117OSM   H11T12293   2.013   0.353   9.538 -0.8217 -0.5602 -3.0610
  117OSM   C12S12294   2.086   0.212   9.392  0.5706  0.1978  0.6728
  117OSM   H12S12295   1.985   0.167   9.375  1.1970 -1.2384  0.5690
  117OSM   H12T12296   2.162   0.131   9.389  2.3773  1.8638 -0.1368
  117OSM   C13S12297   2.124   0.308   9.285  0.7588 -0.6547  0.1357
  117OSM   H13S12298   2.233   0.304   9.266  0.7143 -1.0053 -0.0485
  117OSM   H13T12299   2.097   0.414   9.305  1.4264 -0.6761  1.2341
  117OSM   C14S12300   2.054   0.263   9.146 -0.0164 -0.0779 -0.3123
  117OSM   H14S12301   1.944   0.262   9.156 -0.1226  0.0989 -1.2823
  117OSM   H14T12302   2.088   0.159   9.127 -0.5551 -0.3440  0.1563
  117OSM   C15S12303   2.091   0.350   9.028 -0.5664  0.2627 -0.2593
  117OSM   H15S12304   2.060   0.453   9.055 -0.0264 -0.1884  2.3705
  117OSM   H15T12305   2.029   0.312   8.944 -1.9517  0.7159  0.5292
  117OSM   C16S12306   2.238   0.348   9.012 -0.7996 -0.1247 -0.7321
  117OSM   H16S12307   2.272   0.243   8.998  0.2919 -0.4579  3.2178
  117OSM   H16T12308   2.294   0.387   9.100 -2.4203 -0.6983  0.5908
  117OSM   C17S12309   2.290   0.423   8.892 -0.2753  0.3831 -0.2810
  117OSM   H17S12310   2.401   0.428   8.888 -0.2668 -0.2378 -1.0492
  117OSM   H17T12311   2.264   0.530   8.909 -0.2575  0.4119 -0.4326
  117OSM   C18S12312   2.249   0.375   8.765  0.4059  0.1574 -0.0435
  117OSM   H18S12313   2.276   0.449   8.688  0.1903  1.4596  1.1009
  117OSM   H18T12314   2.138   0.360   8.766  0.4257 -0.2820  2.3068
  117OSM   H18U12315   2.290   0.274   8.743  1.8921  0.4155  1.3720
  117OSM    C1F12316   2.501   0.114  10.373 -0.7894  0.5585  0.4077
  117OSM     OF12317   2.577   0.039  10.439 -0.3808  0.2867 -0.0937
  117OSM    C2F12318   2.547   0.200  10.259 -0.5630  0.3985 -0.3793
  117OSM    H2F12319   2.655   0.218  10.274  0.2763 -2.5557 -2.1138
  117OSM    H2G12320   2.496   0.299  10.267 -0.5623  0.5598 -1.9973
  117OSM    C3F12321   2.515   0.127  10.131 -0.7318 -0.4938 -0.2288
  117OSM    H3F12322   2.405   0.113  10.127 -1.1226  0.8250  2.7607
  117OSM    H3G12323   2.559   0.025  10.132  0.0936 -0.2023  2.4929
  117OSM    C4F12324   2.576   0.204  10.002 -0.0024  1.5362 -0.4348
  117OSM    H4F12325   2.684   0.180   9.996 -0.2878 -0.6322  1.6757
  117OSM    H4G12326   2.570   0.314  10.016  2.4976  1.4332  2.4559
  117OSM    C5F12327   2.501   0.172   9.876 -0.3130  0.8342 -0.2929
  117OSM    H5F12328   2.397   0.211   9.884 -0.8026 -0.1798 -1.3702
  117OSM    H5G12329   2.506   0.062   9.858 -0.2635  0.5240  1.4048
  117OSM    C6F12330   2.566   0.230   9.749  0.6607 -0.6828 -0.3205
  117OSM    H6F12331   2.664   0.178   9.735  1.4356 -0.4340  3.2713
  117OSM    H6G12332   2.581   0.339   9.761 -1.6116 -0.2403 -1.0267
  117OSM    C7F12333   2.479   0.210   9.619  0.0698  0.8780 -0.0922
  117OSM    H7F12334   2.372   0.207   9.647 -0.2964  4.4625 -0.5789
  117OSM    H7G12335   2.506   0.109   9.580  0.5790  0.9504  0.0572
  117OSM    C8F12336   2.483   0.323   9.513  0.2305 -0.0112  0.2676
  117OSM    H8F12337   2.438   0.411   9.564 -1.4014  0.9802 -2.6615
  117OSM    H8G12338   2.410   0.302   9.432  1.6805 -0.2760 -1.0094
  117OSM    C9F12339   2.620   0.353   9.464  0.5452 -0.1372 -0.5361
  117OSM    H9F12340   2.677   0.416   9.534 -0.1536  0.9338 -0.9121
  117OSM   C10F12341   2.683   0.321   9.347 -0.2317  0.2444  0.2092
  117OSM   H10F12342   2.790   0.344   9.331 -0.2270 -0.1305 -0.3185
  117OSM   C11F12343   2.620   0.225   9.246 -0.0887 -0.4297 -0.1774
  117OSM   H11F12344   2.518   0.195   9.274 -1.0853  2.1030 -0.7915
  117OSM   H11G12345   2.673   0.131   9.220 -1.4859 -1.4044  0.4570
  117OSM   C12F12346   2.607   0.302   9.114 -0.4056  0.2196 -0.2203
  117OSM   H12F12347   2.542   0.391   9.128 -2.0663 -0.8144 -1.0687
  117OSM   H12G12348   2.556   0.230   9.048  1.1742 -1.6358  0.4957
  117OSM   C13F12349   2.739   0.350   9.054 -0.4180  0.3195 -0.1729
  117OSM   H13F12350   2.805   0.264   9.027  0.2269  0.9606 -0.7105
  117OSM   H13G12351   2.801   0.419   9.115  0.2505  1.9200 -2.5091
  117OSM   C14F12352   2.716   0.431   8.930  0.2350 -0.0701 -0.1197
  117OSM   H14F12353   2.665   0.378   8.846  1.5214  0.3672 -1.2087
  117OSM   H14G12354   2.816   0.463   8.895 -0.5744  1.8729 -0.8340
  117OSM   C15F12355   2.654   0.575   8.952 -0.6805 -0.3686  0.0387
  117OSM   H15F12356   2.695   0.630   9.039  0.2259  0.2360 -0.7458
  117OSM   H15G12357   2.548   0.564   8.984 -0.5416  0.5453  0.8740
  117OSM   C16F12358   2.662   0.672   8.833  0.2740 -0.5560  0.3209
  117OSM   H16F12359   2.611   0.628   8.745  1.2292  0.9123 -1.0556
  117OSM   H16G12360   2.771   0.681   8.812  0.2971 -0.3397  0.5330
  117OSM   C17F12361   2.602   0.812   8.870 -0.2518 -0.6198 -0.1914
  117OSM   H17F12362   2.638   0.850   8.968 -1.8875 -0.9463  0.5796
  117OSM   H17G12363   2.492   0.808   8.889 -0.9140  0.9430 -3.1448
  117OSM   C18F12364   2.625   0.911   8.759 -0.4347  0.6564 -0.3878
  117OSM   H18F12365   2.723   0.962   8.771 -0.7905  1.1777  0.3186
  117OSM   H18G12366   2.541   0.981   8.776 -3.2963 -2.6783  0.4405
  117OSM   H18H12367   2.624   0.869   8.656 -0.8905  1.1853 -0.6039
  118OSM      N12368   0.669   0.462  11.079 -0.2590  0.3716  0.1714
  118OSM    C1512369   0.531   0.467  11.028  0.8568 -0.0848  0.2533
  118OSM   H15A12370   0.461   0.520  11.091 -0.7362 -1.0552 -0.6165
  118OSM   H15B12371   0.496   0.367  11.010 -0.9784  0.5881 -0.2013
  118OSM   H15C12372   0.542   0.518  10.933 -1.9211  1.8326  0.8137
  118OSM    C1412373   0.677   0.394  11.216 -0.1353  0.2960 -0.2787
  118OSM   H14A12374   0.660   0.288  11.203  0.8250  0.0278  0.5461
  118OSM   H14B12375   0.609   0.436  11.289 -0.6264  1.1824 -1.2106
  118OSM   H14C12376   0.776   0.401  11.257 -0.2107  1.1344 -0.2204
  118OSM    C1312377   0.759   0.386  10.985  0.4043  0.0974  0.1873
  118OSM   H13A12378   0.751   0.420  10.883 -0.8154 -0.0590  0.2135
  118OSM   H13B12379   0.729   0.282  10.982  0.8687 -0.0247 -0.3492
  118OSM   H13C12380   0.860   0.398  11.021 -0.5908  0.8910  2.9646
  118OSM    C1212381   0.735   0.597  11.088  0.4604 -0.4914  0.2131
  118OSM   H12A12382   0.810   0.593  11.166  0.3382 -2.2204  0.2789
  118OSM   H12B12383   0.661   0.667  11.122  1.1278  0.8323 -0.9685
  118OSM    C1112384   0.801   0.674  10.957 -0.0198  0.1536  0.1321
  118OSM   H11A12385   0.892   0.621  10.923  0.6932  0.6589  1.2023
  118OSM   H11B12386   0.825   0.778  10.986  0.0158  0.2823 -0.3643
  118OSM      P12387   0.591   0.752  10.814  0.3216  0.1909  0.0188
  118OSM    O1312388   0.506   0.658  10.746  0.2557 -0.8092  0.5150
  118OSM    O1412389   0.544   0.809  10.943 -0.7886 -0.3680  0.5346
  118OSM    O1112390   0.644   0.867  10.717 -0.0132  0.3321 -0.2508
  118OSM    O1212391   0.714   0.667  10.845  0.3218  0.3427  0.7381
  118OSM    C1S12392   0.758   0.845  10.628 -0.3879 -0.2211 -1.0308
  118OSM    H1S12393   0.837   0.777  10.668  1.1818  2.1616  0.1469
  118OSM    H1T12394   0.812   0.941  10.621 -0.4290 -0.0084  0.9588
  118OSM     NF12395   0.843   0.813  10.397 -0.1953  0.1472  0.1548
  118OSM    HNF12396   0.858   0.901  10.353 -1.2875  0.9084  1.2578
  118OSM    C2S12397   0.725   0.808  10.479  0.4030  1.1390  0.4615
  118OSM    H2S12398   0.696   0.701  10.486 -1.1480  1.3005 -2.0293
  118OSM    C3S12399   0.603   0.890  10.423 -0.3712 -0.2637 -0.3553
  118OSM    H3S12400   0.629   0.998  10.423  2.9295 -0.9338  1.0261
  118OSM     O312401   0.482   0.881  10.503  0.2788 -0.0642 -0.5055
  118OSM    HO312402   0.511   0.875  10.594  1.1553  0.5046 -0.7363
  118OSM    C4S12403   0.581   0.841  10.285 -0.4504 -0.2846 -0.3579
  118OSM    H4S12404   0.661   0.882  10.221 -0.4770 -1.3987 -1.1472
  118OSM    C5S12405   0.488   0.761  10.233 -0.0803 -0.3407  0.1825
  118OSM    H5S12406   0.424   0.718  10.312  0.8658  1.1390  1.8452
  118OSM    C6S12407   0.490   0.719  10.085  0.0484  0.0026 -0.4221
  118OSM    H6S12408   0.390   0.750  10.047 -0.8875 -1.8164  0.4006
  118OSM    H6T12409   0.499   0.608  10.085  0.7811 -0.0424 -4.0479
  118OSM    C7S12410   0.605   0.781   9.997  0.0811  0.4356  0.1356
  118OSM    H7S12411   0.701   0.730  10.020 -0.5632 -1.1481 -0.5064
  118OSM    H7T12412   0.610   0.891  10.011 -2.8748  1.0991 -2.8182
  118OSM    C8S12413   0.577   0.763   9.840 -0.0227 -0.0316 -0.1148
  118OSM    H8S12414   0.498   0.835   9.811 -0.0982 -0.0367  0.0809
  118OSM    H8T12415   0.532   0.663   9.819 -1.5480  0.9537 -1.7994
  118OSM    C9S12416   0.695   0.782   9.753 -0.1018 -0.4078  0.0388
  118OSM    H9S12417   0.764   0.700   9.783  0.8562 -0.1194 -1.2933
  118OSM    H9T12418   0.738   0.883   9.770 -0.1069 -0.2969 -0.5917
  118OSM   C10S12419   0.662   0.761   9.603  1.2325 -0.3075  0.0249
  118OSM   H10S12420   0.576   0.829   9.588  3.0771  2.3935  0.9121
  118OSM   H10T12421   0.626   0.657   9.586  0.7858 -0.0863 -0.4008
  118OSM   C11S12422   0.765   0.815   9.502 -0.0712  0.6584  0.1173
  118OSM   H11S12423   0.848   0.743   9.518 -2.2157 -1.5998  1.9578
  118OSM   H11T12424   0.794   0.914   9.543 -3.0939  0.3459  3.5220
  118OSM   C12S12425   0.718   0.818   9.359 -0.4838 -1.2156  1.1266
  118OSM   H12S12426   0.768   0.910   9.323  2.1140 -2.9374  0.0005
  118OSM   H12T12427   0.610   0.835   9.339 -0.1267  2.1382  1.5242
  118OSM   C13S12428   0.775   0.700   9.272  0.3331  0.2486  0.0114
  118OSM   H13S12429   0.733   0.602   9.303 -0.9772  0.8008  0.0554
  118OSM   H13T12430   0.880   0.692   9.306 -0.0685 -1.1509  1.0360
  118OSM   C14S12431   0.768   0.715   9.126 -0.1194 -0.5477  0.5030
  118OSM   H14S12432   0.673   0.769   9.105  0.2697 -0.6974 -1.8250
  118OSM   H14T12433   0.756   0.618   9.073  0.9577 -0.9635  0.9903
  118OSM   C15S12434   0.876   0.805   9.054  0.3556  0.1943 -0.0224
  118OSM   H15S12435   0.858   0.783   8.947 -0.5692  0.6515  0.0351
  118OSM   H15T12436   0.974   0.766   9.089  0.8715  4.1509  3.8099
  118OSM   C16S12437   0.844   0.955   9.064 -0.4733  0.3371 -0.8164
  118OSM   H16S12438   0.873   0.994   9.164  1.7317 -2.4288 -0.2437
  118OSM   H16T12439   0.734   0.960   9.049 -0.2839  1.1940 -2.0921
  118OSM   C17S12440   0.902   1.044   8.959  0.3973  0.4515  0.1664
  118OSM   H17S12441   0.861   1.147   8.956 -2.5728 -0.4987  2.3358
  118OSM   H17T12442   0.881   1.001   8.859 -4.1678 -1.8187  1.7939
  118OSM   C18S12443   1.057   1.047   8.979 -0.3563 -0.2932  0.0478
  118OSM   H18S12444   1.095   0.948   8.945  0.3363  0.1550 -0.5132
  118OSM   H18T12445   1.093   1.078   9.079  0.9974 -0.5923 -0.3294
  118OSM   H18U12446   1.111   1.113   8.908  0.8420 -2.6798 -1.4026
  118OSM    C1F12447   0.946   0.734  10.423  0.4854 -0.0739  0.0135
  118OSM     OF12448   0.929   0.644  10.506 -0.4917  0.2122 -0.1332
  118OSM    C2F12449   1.077   0.772  10.357 -0.7396 -0.3744 -0.6417
  118OSM    H2F12450   1.118   0.868  10.393 -1.0609 -0.5734  0.2788
  118OSM    H2G12451   1.052   0.782  10.249 -3.1600  1.1604 -0.0187
  118OSM    C3F12452   1.195   0.675  10.362  0.5809  0.0368 -0.2306
  118OSM    H3F12453   1.150   0.577  10.337 -2.6162  0.9675  1.4091
  118OSM    H3G12454   1.242   0.671  10.463 -0.6453  0.5146  0.3780
  118OSM    C4F12455   1.304   0.694  10.256  0.6862  0.1698  0.4630
  118OSM    H4F12456   1.350   0.789  10.289  1.1035 -0.0449  0.4991
  118OSM    H4G12457   1.269   0.711  10.152  1.7041 -0.4287  0.0201
  118OSM    C5F12458   1.406   0.594  10.249 -0.2673  0.4324 -0.3369
  118OSM    H5F12459   1.350   0.499  10.235 -0.1852  0.5245 -1.3673
  118OSM    H5G12460   1.464   0.592  10.343 -2.4634  3.2088  1.2125
  118OSM    C6F12461   1.504   0.607  10.134 -0.4815  0.1156 -0.0108
  118OSM    H6F12462   1.464   0.624  10.032 -3.1445 -0.2274  0.9041
  118OSM    H6G12463   1.572   0.520  10.132  1.0534  1.2272  1.2345
  118OSM    C7F12464   1.605   0.717  10.167 -0.2107 -0.0486  0.3825
  118OSM    H7F12465   1.650   0.708  10.268  1.6284  1.2810 -0.2598
  118OSM    H7G12466   1.536   0.804  10.181 -0.3292 -0.1619  0.5031
  118OSM    C8F12467   1.710   0.735  10.052 -0.3337  0.6603 -0.0198
  118OSM    H8F12468   1.763   0.828  10.080  1.2426 -0.3940  0.6103
  118OSM    H8G12469   1.659   0.744   9.954  0.1070 -0.6694 -0.3900
  118OSM    C9F12470   1.813   0.625  10.068 -0.4355  0.2455 -1.0588
  118OSM    H9F12471   1.867   0.624  10.164 -2.4255  1.1090  0.1317
  118OSM   C10F12472   1.839   0.535   9.971 -0.2090 -0.7215  0.2008
  118OSM   H10F12473   1.906   0.454  10.002 -1.1208 -0.9360  1.7030
  118OSM   C11F12474   1.773   0.525   9.835 -0.4722 -0.6322  0.1706
  118OSM   H11F12475   1.679   0.583   9.825 -0.2772 -0.2728  0.3970
  118OSM   H11G12476   1.746   0.419   9.821 -1.3592 -0.7106  2.1715
  118OSM   C12F12477   1.855   0.575   9.715  0.3531  0.0082 -0.4631
  118OSM   H12F12478   1.945   0.510   9.715  0.2567 -0.1248 -0.5122
  118OSM   H12G12479   1.887   0.678   9.741 -1.2227 -0.5015  4.7559
  118OSM   C13F12480   1.776   0.573   9.580 -0.1698 -0.1288 -0.1072
  118OSM   H13F12481   1.684   0.632   9.600 -1.5380 -2.1783 -0.0436
  118OSM   H13G12482   1.742   0.470   9.554  0.1950  0.4824 -3.3130
  118OSM   C14F12483   1.853   0.629   9.463  0.3350  1.0167 -0.0475
  118OSM   H14F12484   1.935   0.561   9.431 -0.6882  0.8709 -2.5660
  118OSM   H14G12485   1.905   0.721   9.497 -0.7433  0.6631  2.9170
  118OSM   C15F12486   1.774   0.645   9.333 -0.1262 -0.0002 -0.1902
  118OSM   H15F12487   1.715   0.738   9.344  0.8737  0.6415 -0.0739
  118OSM   H15G12488   1.719   0.550   9.318  1.2568 -0.5797 -1.9423
  118OSM   C16F12489   1.869   0.678   9.215 -0.9798 -0.0493  0.3697
  118OSM   H16F12490   1.933   0.592   9.185 -0.8170  0.2145 -0.0510
  118OSM   H16G12491   1.927   0.768   9.246 -0.4826 -0.2813  0.1301
  118OSM   C17F12492   1.784   0.726   9.094  0.1821 -1.0067  0.1775
  118OSM   H17F12493   1.697   0.781   9.137  0.0936 -0.3843 -0.7729
  118OSM   H17G12494   1.732   0.651   9.031 -2.7046 -0.0714  1.2458
  118OSM   C18F12495   1.864   0.832   9.006  0.4721  0.8443 -0.0153
  118OSM   H18F12496   1.801   0.871   8.923  1.6698 -1.6667 -2.2698
  118OSM   H18G12497   1.945   0.775   8.956 -0.6289  0.5741 -1.5635
  118OSM   H18H12498   1.896   0.926   9.056 -1.8504  1.9517 -0.5132
  119OSM      N12499   3.013   1.603  11.054 -0.2091 -0.6749  0.3912
  119OSM    C1512500   2.925   1.536  11.155  0.8783  0.5239  0.4576
  119OSM   H15A12501   2.826   1.578  11.145  0.0746 -0.6313  2.6833
  119OSM   H15B12502   2.962   1.550  11.256  0.2743  1.5028  0.5476
  119OSM   H15C12503   2.923   1.428  11.150  0.0965  0.6124 -2.2607
  119OSM    C1412504   3.040   1.744  11.102 -0.0585 -0.0615  0.5271
  119OSM   H14A12505   2.948   1.800  11.097  0.0811  0.1420  0.1850
  119OSM   H14B12506   3.111   1.798  11.041 -1.0950  0.8561  0.0951
  119OSM   H14C12507   3.085   1.748  11.200  1.4192  1.6171 -0.1577
  119OSM    C1312508   3.141   1.539  11.052 -0.2697 -0.6600 -0.6385
  119OSM   H13A12509   3.143   1.447  10.995  0.1300  0.9177 -3.3819
  119OSM   H13B12510   3.189   1.525  11.147  1.9027  2.2238 -1.1875
  119OSM   H13C12511   3.202   1.606  10.993 -2.4691 -0.4089 -2.7972
  119OSM    C1212512   2.957   1.615  10.919  0.1729  0.4081 -0.1695
  119OSM   H12A12513   2.924   1.518  10.882 -0.6594  0.4892  0.3562
  119OSM   H12B12514   3.033   1.636  10.845  0.6395 -1.2546 -0.2228
  119OSM    C1112515   2.834   1.708  10.895  0.4170 -0.2129  0.0515
  119OSM   H11A12516   2.811   1.693  10.788  0.1870 -1.0182  0.2117
  119OSM   H11B12517   2.855   1.817  10.893 -1.7834  0.2406 -1.2232
  119OSM      P12518   2.574   1.748  10.950  0.4465  0.5742  0.1678
  119OSM    O1312519   2.470   1.669  11.015 -0.1097 -0.1723  0.0106
  119OSM    O1412520   2.575   1.889  10.984  0.0854 -0.0036 -0.9660
  119OSM    O1112521   2.559   1.725  10.796 -0.1486 -0.5571  0.4635
  119OSM    O1212522   2.714   1.682  10.978  0.4141 -0.7427  0.3674
  119OSM    C1S12523   2.573   1.592  10.739  0.1247 -0.0688  0.2222
  119OSM    H1S12524   2.491   1.521  10.766 -1.9618  1.9039 -0.5402
  119OSM    H1T12525   2.671   1.550  10.770  0.7404  0.1559 -1.3097
  119OSM     NF12526   2.588   1.454  10.529  0.2057  0.6737 -0.1520
  119OSM    HNF12527   2.682   1.419  10.522  0.4891  1.4392 -0.2918
  119OSM    C2S12528   2.575   1.591  10.580 -1.0523 -0.8079 -0.1755
  119OSM    H2S12529   2.479   1.630  10.540 -0.4074 -0.3222 -1.3043
  119OSM    C3S12530   2.690   1.685  10.534  0.1440 -0.1703  0.8137
  119OSM    H3S12531   2.783   1.643  10.578  1.5548  3.0889  1.2345
  119OSM     O312532   2.689   1.820  10.577 -0.3497  0.5853 -0.1679
  119OSM    HO312533   2.615   1.825  10.637  0.3982  0.8896  0.7525
  119OSM    C4S12534   2.707   1.674  10.378  0.5217 -0.1898 -1.0621
  119OSM    H4S12535   2.764   1.585  10.344  0.3904 -0.5192 -0.4384
  119OSM    C5S12536   2.642   1.750  10.288  0.4629 -0.2905 -0.2510
  119OSM    H5S12537   2.577   1.830  10.327 -0.5251 -0.8999 -0.6236
  119OSM    C6S12538   2.651   1.738  10.136  0.1341  0.3683 -0.4267
  119OSM    H6S12539   2.601   1.824  10.086  1.0589  0.8613 -0.5368
  119OSM    H6T12540   2.582   1.657  10.103 -2.0709  2.8333 -2.2771
  119OSM    C7S12541   2.790   1.713  10.064 -0.4888  0.4176 -0.2574
  119OSM    H7S12542   2.819   1.609  10.091  0.3236  0.2996 -1.5046
  119OSM    H7T12543   2.875   1.778  10.096 -0.2189 -0.7753  1.6083
  119OSM    C8S12544   2.776   1.704   9.910 -0.6639  0.0378 -0.0350
  119OSM    H8S12545   2.746   1.808   9.883  2.8366  1.4566  0.8970
  119OSM    H8T12546   2.700   1.626   9.893  0.4804 -1.4954  1.5696
  119OSM    C9S12547   2.909   1.670   9.844 -0.5974  0.1163 -0.5935
  119OSM    H9S12548   2.943   1.575   9.892 -0.5195  1.7064  2.7493
  119OSM    H9T12549   2.978   1.749   9.879 -0.0904 -0.5701 -0.0022
  119OSM   C10S12550   2.906   1.658   9.696  0.0362  0.0660  0.0820
  119OSM   H10S12551   3.010   1.665   9.659 -0.4228 -0.9376 -1.5134
  119OSM   H10T12552   2.846   1.745   9.660 -1.9156 -0.1815  2.4671
  119OSM   C11S12553   2.842   1.536   9.652 -0.5330  0.2470 -0.6385
  119OSM   H11S12554   2.736   1.525   9.683  0.0972  1.2356  2.1830
  119OSM   H11T12555   2.898   1.445   9.683  0.3246  0.1739 -2.2796
  119OSM   C12S12556   2.844   1.514   9.499  0.0833  0.4068  0.9216
  119OSM   H12S12557   2.770   1.583   9.453 -0.1655  0.6096  1.6002
  119OSM   H12T12558   2.801   1.412   9.485 -0.0448  0.4190  1.2043
  119OSM   C13S12559   2.987   1.540   9.428  0.5364  1.0589 -0.2404
  119OSM   H13S12560   3.053   1.466   9.477 -0.8427 -0.2915 -0.3328
  119OSM   H13T12561   3.008   1.643   9.463 -0.3265  0.8694  0.9034
  119OSM   C14S12562   2.984   1.528   9.279  0.8349 -0.5041  0.3137
  119OSM   H14S12563   3.073   1.577   9.233 -0.8715  2.9495  0.3265
  119OSM   H14T12564   2.900   1.584   9.232  1.7639 -0.9090 -1.9656
  119OSM   C15S12565   2.979   1.385   9.226 -0.2545  0.0771  0.6005
  119OSM   H15S12566   3.000   1.310   9.305 -0.3181 -0.8384 -0.2399
  119OSM   H15T12567   3.068   1.368   9.161 -0.1653 -3.0040  1.3700
  119OSM   C16S12568   2.846   1.342   9.164  0.3670  0.1231  0.5434
  119OSM   H16S12569   2.813   1.413   9.085 -1.8678 -0.2511  1.0856
  119OSM   H16T12570   2.771   1.353   9.245  0.7001  0.3834  0.8238
  119OSM   C17S12571   2.834   1.209   9.100  0.3233  0.6100 -0.1230
  119OSM   H17S12572   2.728   1.176   9.106  1.0722 -1.7813  1.8259
  119OSM   H17T12573   2.889   1.136   9.163  1.1704  0.7296 -0.7078
  119OSM   C18S12574   2.873   1.212   8.948  0.2584 -0.5396 -0.0499
  119OSM   H18S12575   2.861   1.115   8.895  0.5431  0.1277 -1.3957
  119OSM   H18T12576   2.978   1.241   8.930  0.4609 -0.8772  0.5780
  119OSM   H18U12577   2.811   1.289   8.897 -1.5267 -1.9180 -0.0707
  119OSM    C1F12578   2.499   1.358  10.546  0.1550 -0.2767  0.1491
  119OSM     OF12579   2.384   1.384  10.589 -0.0634  0.8446  0.2399
  119OSM    C2F12580   2.539   1.217  10.499 -0.2632 -0.0449 -0.6462
  119OSM    H2F12581   2.632   1.189  10.553 -2.0139 -2.5233  1.3515
  119OSM    H2G12582   2.568   1.219  10.392  3.0699 -1.2961  0.1025
  119OSM    C3F12583   2.435   1.106  10.535  0.0025 -0.1637  0.2225
  119OSM    H3F12584   2.341   1.128  10.480 -1.0757 -1.8849  1.2949
  119OSM    H3G12585   2.415   1.106  10.644 -2.5890  3.6335 -0.0575
  119OSM    C4F12586   2.485   0.970  10.491 -0.6872 -0.0576  1.0484
  119OSM    H4F12587   2.406   0.895  10.512  0.5115 -2.1186 -1.2307
  119OSM    H4G12588   2.571   0.944  10.558 -0.3822  0.2829  0.7912
  119OSM    C5F12589   2.535   0.955  10.346  0.5090 -0.0410 -0.1374
  119OSM    H5F12590   2.609   1.032  10.318 -0.3009 -0.0485 -2.5360
  119OSM    H5G12591   2.451   0.962  10.274 -0.5208 -0.1769  1.0048
  119OSM    C6F12592   2.594   0.815  10.330 -0.0807  0.9159  0.2848
  119OSM    H6F12593   2.516   0.742  10.360  0.2197  0.6041  0.3093
  119OSM    H6G12594   2.676   0.798  10.403  1.5940 -1.3469 -1.9045
  119OSM    C7F12595   2.663   0.783  10.192 -0.7496 -0.5192 -0.9295
  119OSM    H7F12596   2.720   0.688  10.198  0.5269  0.1541 -1.8396
  119OSM    H7G12597   2.741   0.860  10.174 -0.3848 -0.9626 -1.2732
  119OSM    C8F12598   2.578   0.797  10.066  0.2993  0.4327 -0.8076
  119OSM    H8F12599   2.566   0.902  10.031 -1.2253  0.5724  0.0561
  119OSM    H8G12600   2.480   0.758  10.100  1.5951 -1.1950  1.4234
  119OSM    C9F12601   2.627   0.709   9.958 -0.4495 -0.1543  0.1040
  119OSM    H9F12602   2.603   0.603   9.972 -0.8702  0.0073  0.6918
  119OSM   C10F12603   2.701   0.745   9.854 -0.9809 -0.5436  0.0225
  119OSM   H10F12604   2.737   0.680   9.773 -0.4702 -0.6894  0.3683
  119OSM   C11F12605   2.750   0.891   9.836 -0.1812 -0.0267  0.1054
  119OSM   H11F12606   2.856   0.882   9.806 -0.1927 -1.6075  0.4749
  119OSM   H11G12607   2.753   0.952   9.929 -0.1046 -0.5039  0.4203
  119OSM   C12F12608   2.658   0.964   9.736 -0.3141 -0.5733  0.4516
  119OSM   H12F12609   2.687   1.071   9.734  1.6183 -1.0398  1.6863
  119OSM   H12G12610   2.553   0.952   9.771 -0.9156 -1.2841 -1.4504
  119OSM   C13F12611   2.656   0.913   9.593  0.2872 -0.3143  0.1249
  119OSM   H13F12612   2.582   0.976   9.540 -0.0469 -1.7673 -1.1953
  119OSM   H13G12613   2.612   0.812   9.587 -2.8494  0.9964 -0.8461
  119OSM   C14F12614   2.793   0.924   9.518  0.2911 -0.6483 -0.3898
  119OSM   H14F12615   2.858   0.847   9.565 -1.6121 -1.7933  0.4829
  119OSM   H14G12616   2.832   1.023   9.546  0.6184 -1.2215  1.2909
  119OSM   C15F12617   2.786   0.914   9.368  0.5547 -0.6169  0.9410
  119OSM   H15F12618   2.889   0.927   9.327  0.5594  0.1571  1.1936
  119OSM   H15G12619   2.731   1.004   9.335  3.0055  1.5389  2.3935
  119OSM   C16F12620   2.708   0.791   9.315 -0.7025 -0.3962 -0.6237
  119OSM   H16F12621   2.717   0.799   9.204  0.5526  2.9026 -0.4052
  119OSM   H16G12622   2.602   0.799   9.345 -0.3944  1.0776  0.2048
  119OSM   C17F12623   2.767   0.654   9.354 -0.4500  0.2996 -0.3138
  119OSM   H17F12624   2.707   0.582   9.295 -1.1773  0.9647 -0.3992
  119OSM   H17G12625   2.738   0.645   9.461 -0.6729  0.0405 -0.3961
  119OSM   C18F12626   2.913   0.639   9.322  0.3912  0.5697 -0.3338
  119OSM   H18F12627   2.949   0.539   9.355  0.6258  1.0194  0.7998
  119OSM   H18G12628   2.971   0.711   9.384  1.5838  0.6358 -1.4709
  119OSM   H18H12629   2.936   0.649   9.214  0.8018 -0.3069 -0.3330
  120OSM      N12630   6.244   3.022  10.804 -0.1405  0.2573 -0.3901
  120OSM    C1512631   6.164   3.144  10.851 -0.7550 -0.4903 -0.5136
  120OSM   H15A12632   6.202   3.240  10.819 -0.0373 -0.5342  0.1802
  120OSM   H15B12633   6.166   3.150  10.958  2.7191  0.7783 -0.5070
  120OSM   H15C12634   6.063   3.145  10.812 -0.6560  0.3825 -0.7642
  120OSM    C1412635   6.385   3.039  10.862 -0.1638  0.6548  0.2188
  120OSM   H14A12636   6.383   3.053  10.969 -1.3778  1.7212  0.0834
  120OSM   H14B12637   6.421   3.127  10.810 -1.4078 -0.5029 -2.7765
  120OSM   H14C12638   6.455   2.962  10.834  0.9330  1.6523  0.1215
  120OSM    C1312639   6.185   2.902  10.872  0.2179 -0.0721  0.4292
  120OSM   H13A12640   6.084   2.885  10.839  0.0590  1.0620  0.2994
  120OSM   H13B12641   6.188   2.905  10.980  0.5212  0.9795  0.4115
  120OSM   H13C12642   6.247   2.819  10.843  0.1315  0.5664 -1.7356
  120OSM    C1212643   6.243   3.022  10.654  0.0970  0.5820  0.1483
  120OSM   H12A12644   6.154   2.974  10.616  1.0192 -1.6576  0.6906
  120OSM   H12B12645   6.323   2.961  10.616 -0.2398 -0.0055  0.3751
  120OSM    C1112646   6.262   3.155  10.583 -0.4793  0.1155 -0.1045
  120OSM   H11A12647   6.175   3.219  10.609 -1.0604 -0.5846 -0.2925
  120OSM   H11B12648   6.262   3.139  10.473  1.4303  3.4800 -0.7350
  120OSM      P12649   6.430   3.357  10.560  0.2348 -0.2222  0.0451
  120OSM    O1312650   6.344   3.464  10.622  0.1856 -0.0298  0.3459
  120OSM    O1412651   6.577   3.374  10.587  0.3719  0.0717 -0.1714
  120OSM    O1112652   6.404   3.346  10.402  0.0116 -0.2163  0.1570
  120OSM    O1212653   6.382   3.219  10.617  0.2988  0.2208  0.2885
  120OSM    C1S12654   6.455   3.448  10.312 -0.4564  0.2516 -0.4424
  120OSM    H1S12655   6.562   3.472  10.326 -0.5013  0.0775  0.2113
  120OSM    H1T12656   6.397   3.541  10.334 -1.7270 -0.0806 -2.2313
  120OSM     NF12657   6.508   3.502  10.086  0.1141  0.0931  0.0878
  120OSM    HNF12658   6.456   3.584  10.063 -2.8932 -1.4453  0.8749
  120OSM    C2S12659   6.427   3.406  10.163  0.0676  0.2456 -0.1575
  120OSM    H2S12660   6.479   3.308  10.153 -0.7997 -0.1561 -0.8772
  120OSM    C3S12661   6.272   3.397  10.142 -0.8910  0.3946 -0.7863
  120OSM    H3S12662   6.235   3.500  10.162 -0.4076  0.2806  0.7833
  120OSM     O312663   6.209   3.307  10.237 -0.3772 -0.5763 -0.1002
  120OSM    HO312664   6.285   3.282  10.289 -1.0962  1.1005  1.9108
  120OSM    C4S12665   6.249   3.373   9.996  0.3948 -0.0427  0.1775
  120OSM    H4S12666   6.203   3.458   9.944 -0.4727 -0.2918  0.5117
  120OSM    C5S12667   6.263   3.256   9.927  0.5530  0.6299 -0.5789
  120OSM    H5S12668   6.315   3.170   9.971 -1.3962 -0.8390 -1.0563
  120OSM    C6S12669   6.231   3.230   9.779 -0.0090 -0.7241  0.7119
  120OSM    H6S12670   6.324   3.220   9.720 -0.4475 -3.3210  0.3362
  120OSM    H6T12671   6.166   3.313   9.746  1.5425  0.7775  1.2695
  120OSM    C7S12672   6.148   3.101   9.756  0.4547 -0.1186  0.6137
  120OSM    H7S12673   6.053   3.123   9.810  1.5429  3.2984  1.3405
  120OSM    H7T12674   6.191   3.019   9.817 -2.2871 -1.5384  0.8197
  120OSM    C8S12675   6.140   3.044   9.616  0.0449  0.2345 -0.0610
  120OSM    H8S12676   6.084   2.948   9.619 -2.4109  1.5695 -0.5444
  120OSM    H8T12677   6.243   3.012   9.588 -1.0064 -1.0251 -2.8318
  120OSM    C9S12678   6.110   3.133   9.496  0.2403 -0.0748  0.9971
  120OSM    H9S12679   6.187   3.211   9.476  2.5437 -2.3896  0.3369
  120OSM    H9T12680   6.008   3.174   9.512 -0.1726 -0.2701 -0.8780
  120OSM   C10S12681   6.102   3.052   9.367 -0.0674  0.0222  0.1379
  120OSM   H10S12682   6.028   2.969   9.371  1.3671 -1.2987  0.2713
  120OSM   H10T12683   6.204   3.011   9.352  0.1965  0.9821 -0.7731
  120OSM   C11S12684   6.068   3.131   9.247 -0.2133  0.2514 -0.2237
  120OSM   H11S12685   6.137   3.216   9.229 -1.3851  1.1311 -0.6888
  120OSM   H11T12686   5.972   3.182   9.270  0.3956  0.7467  1.3528
  120OSM   C12S12687   6.069   3.036   9.121  0.3129 -0.4465 -0.2564
  120OSM   H12S12688   5.988   3.066   9.052 -1.1160  0.7228  1.8140
  120OSM   H12T12689   6.037   2.934   9.152  0.7110 -1.3488 -2.6632
  120OSM   C13S12690   6.200   3.035   9.051  0.2236 -0.6600  0.6283
  120OSM   H13S12691   6.288   3.034   9.118 -0.5164  0.5066  1.6446
  120OSM   H13T12692   6.200   3.130   8.994 -2.7756  0.0215  1.5857
  120OSM   C14S12693   6.207   2.911   8.955  0.2038  0.3792  0.1049
  120OSM   H14S12694   6.207   2.818   9.015 -2.2476 -1.7949 -2.9560
  120OSM   H14T12695   6.307   2.908   8.906  0.0690 -1.6382 -0.1319
  120OSM   C15S12696   6.104   2.898   8.844  0.7988 -0.0827  0.2800
  120OSM   H15S12697   6.000   2.880   8.877  1.2096 -1.6916  0.7978
  120OSM   H15T12698   6.125   2.813   8.776 -0.9426  2.2142 -3.4683
  120OSM   C16S12699   6.089   3.024   8.761  0.3499  0.0660  0.0849
  120OSM   H16S12700   6.179   3.088   8.750 -0.2998  0.8121 -1.1909
  120OSM   H16T12701   6.019   3.094   8.812 -2.7907 -2.0940 -0.9434
  120OSM   C17S12702   6.031   2.990   8.622 -0.1324 -0.4579  0.3849
  120OSM   H17S12703   6.097   2.917   8.569  0.7715 -0.4012  1.3958
  120OSM   H17T12704   6.037   3.081   8.559  0.5309 -0.6258  0.1892
  120OSM   C18S12705   5.882   2.940   8.630 -0.5514  0.1516  0.6934
  120OSM   H18S12706   5.820   3.029   8.653  2.0571  1.7301  2.1838
  120OSM   H18T12707   5.874   2.864   8.711  0.4085  1.0041  1.6296
  120OSM   H18U12708   5.863   2.900   8.529 -0.3726  1.6767  0.0250
  120OSM    C1F12709   6.637   3.489  10.062 -0.0828  0.2033 -0.0369
  120OSM     OF12710   6.698   3.390  10.091 -0.1585 -0.4551 -0.0374
  120OSM    C2F12711   6.701   3.613  10.005 -0.3586 -0.7903 -0.2650
  120OSM    H2F12712   6.800   3.633  10.051 -1.4535 -0.8382  2.2430
  120OSM    H2G12713   6.652   3.700  10.053 -0.8109 -1.6702  0.9264
  120OSM    C3F12714   6.680   3.617   9.855 -0.3384  0.5346 -0.7320
  120OSM    H3F12715   6.712   3.715   9.812 -0.1075  0.4302 -0.7965
  120OSM    H3G12716   6.571   3.624   9.837 -0.4086 -1.5384 -1.3633
  120OSM    C4F12717   6.736   3.491   9.778  0.0377 -0.3382  0.1340
  120OSM    H4F12718   6.718   3.394   9.829 -1.8490 -2.5456 -4.2016
  120OSM    H4G12719   6.843   3.514   9.765  0.4457 -1.1685  1.7097
  120OSM    C5F12720   6.664   3.472   9.647  0.4041 -0.1235 -0.0297
  120OSM    H5F12721   6.565   3.431   9.675 -0.7109  1.5217 -1.3026
  120OSM    H5G12722   6.731   3.407   9.587  2.1975  0.2252  1.4967
  120OSM    C6F12723   6.646   3.601   9.559 -0.0644  0.6513  0.3024
  120OSM    H6F12724   6.601   3.686   9.614 -1.1300  0.0121  0.4368
  120OSM    H6G12725   6.568   3.583   9.482  0.6763  1.1643 -0.5943
  120OSM    C7F12726   6.780   3.635   9.497  0.3980 -0.1694 -0.0954
  120OSM    H7F12727   6.830   3.539   9.470  1.2056  0.0736  0.4860
  120OSM    H7G12728   6.837   3.691   9.574 -0.7812  0.4644  0.3265
  120OSM    C8F12729   6.745   3.722   9.374  0.2565 -0.0486 -0.2248
  120OSM    H8F12730   6.668   3.791   9.413 -0.5858  0.2842 -2.3064
  120OSM    H8G12731   6.699   3.669   9.287 -2.8160  0.8400  0.7363
  120OSM    C9F12732   6.869   3.809   9.338  0.3054 -0.1270 -0.0820
  120OSM    H9F12733   6.948   3.822   9.414 -1.2568  1.1835  1.3908
  120OSM   C10F12734   6.883   3.878   9.220 -0.4820  0.3836 -0.2872
  120OSM   H10F12735   6.982   3.920   9.197  0.8739 -3.3168 -2.0788
  120OSM   C11F12736   6.778   3.882   9.107 -0.3338  0.4668  0.3346
  120OSM   H11F12737   6.679   3.853   9.147 -1.1911  0.7211 -1.5002
  120OSM   H11G12738   6.808   3.793   9.047  2.5646 -0.4345  2.8434
  120OSM   C12F12739   6.771   4.014   9.021 -0.0959 -0.1169  1.1362
  120OSM   H12F12740   6.747   4.100   9.087  0.5876 -0.4686  1.8704
  120OSM   H12G12741   6.692   3.995   8.946  0.0300 -0.5973  1.1213
  120OSM   C13F12742   6.909   4.048   8.957  0.1746  0.2135 -0.4539
  120OSM   H13F12743   6.955   3.963   8.903 -1.2462 -0.6729 -0.3247
  120OSM   H13G12744   6.981   4.071   9.039  3.1071 -1.9499 -2.2357
  120OSM   C14F12745   6.891   4.170   8.860 -0.1387  0.4567  0.6844
  120OSM   H14F12746   6.836   4.255   8.906 -1.0416  1.3879 -1.9269
  120OSM   H14G12747   6.815   4.131   8.788  0.4160  1.6339 -0.5590
  120OSM   C15F12748   7.024   4.216   8.796  0.4388 -0.1930 -0.9075
  120OSM   H15F12749   7.073   4.132   8.742 -0.7152 -1.5797  0.1268
  120OSM   H15G12750   7.093   4.251   8.875 -0.5140  2.0742 -0.9830
  120OSM   C16F12751   7.007   4.331   8.693  1.6961  0.0330 -0.3614
  120OSM   H16F12752   7.106   4.350   8.646  1.5946 -0.5782 -0.8411
  120OSM   H16G12753   6.980   4.425   8.746  0.8746  0.1634 -0.9997
  120OSM   C17F12754   6.920   4.298   8.574  0.7382  0.1654 -0.7423
  120OSM   H17F12755   6.816   4.275   8.604  0.6803  3.6889  2.4979
  120OSM   H17G12756   6.958   4.208   8.520 -0.3692 -0.1269 -1.0661
  120OSM   C18F12757   6.912   4.413   8.477  0.0092 -0.1319  0.2805
  120OSM   H18F12758   6.899   4.506   8.537  1.0767 -1.1618  2.2073
  120OSM   H18G12759   6.819   4.404   8.418  0.1036  0.3015  0.0637
  120OSM   H18H12760   7.004   4.419   8.414  0.7428  2.4955  1.4495
  121OSM      N12761   1.701   5.745  11.114  0.6476 -0.6719  0.6312
  121OSM    C1512762   1.763   5.618  11.050 -0.0339  0.9065 -0.7425
  121OSM   H15A12763   1.696   5.559  10.988  1.1873  0.3378 -1.5525
  121OSM   H15B12764   1.796   5.565  11.137 -1.6538  0.0493 -0.6029
  121OSM   H15C12765   1.851   5.632  10.989 -0.0083  0.7681 -0.7374
  121OSM    C1412766   1.587   5.705  11.198  0.4517 -0.6779 -1.4454
  121OSM   H14A12767   1.496   5.680  11.145 -1.0811 -0.9930  1.1664
  121OSM   H14B12768   1.557   5.785  11.264 -0.5138 -0.7174 -1.8214
  121OSM   H14C12769   1.607   5.613  11.251  0.0339 -0.6412 -1.2201
  121OSM    C1312770   1.798   5.813  11.203 -0.6331  0.2101  1.1701
  121OSM   H13A12771   1.744   5.889  11.257 -2.7337  0.2430 -0.7830
  121OSM   H13B12772   1.862   5.868  11.135 -0.0852 -2.3414 -0.5341
  121OSM   H13C12773   1.857   5.748  11.265 -0.4479 -1.4727 -0.6434
  121OSM    C1212774   1.656   5.838  11.003 -0.0373 -0.0125  0.3464
  121OSM   H12A12775   1.605   5.928  11.033  0.8814  0.1907  1.3353
  121OSM   H12B12776   1.597   5.778  10.935 -0.5341  1.5656 -0.6805
  121OSM    C1112777   1.767   5.882  10.911  0.5574  0.1331  0.2667
  121OSM   H11A12778   1.737   5.923  10.812  1.6070  1.3377  0.4285
  121OSM   H11B12779   1.819   5.795  10.865 -0.3196 -1.9035  2.8791
  121OSM      P12780   1.838   6.116  11.013  0.1867 -0.0536  0.3441
  121OSM    O1312781   1.723   6.113  11.109 -0.1961 -0.0768  0.8606
  121OSM    O1412782   1.953   6.192  11.060  0.5192  0.1856 -0.2341
  121OSM    O1112783   1.799   6.172  10.871  1.0746  1.1443  0.2611
  121OSM    O1212784   1.875   5.965  10.972  0.2226  0.8539 -0.0315
  121OSM    C1S12785   1.895   6.170  10.769 -0.1622 -0.2726 -0.2018
  121OSM    H1S12786   1.911   6.070  10.724 -0.9081  0.1993 -1.5871
  121OSM    H1T12787   1.987   6.224  10.801 -0.9867  0.7545  0.5294
  121OSM     NF12788   1.936   6.241  10.528 -0.1753 -0.0731 -0.2900
  121OSM    HNF12789   2.004   6.310  10.505 -0.3108  0.3384  0.5178
  121OSM    C2S12790   1.849   6.257  10.642  0.2517 -0.3378 -0.1566
  121OSM    H2S12791   1.747   6.222  10.614 -0.1190  1.0867 -0.6935
  121OSM    C3S12792   1.837   6.396  10.696  0.6119 -0.2935 -0.5424
  121OSM    H3S12793   1.935   6.419  10.743 -0.5916 -0.4245  2.2613
  121OSM     O312794   1.737   6.435  10.794  0.4497  0.4992 -0.0014
  121OSM    HO312795   1.740   6.359  10.854  0.2210 -0.9683 -1.7441
  121OSM    C4S12796   1.819   6.488  10.582 -0.7390 -0.4010  0.0565
  121OSM    H4S12797   1.901   6.559  10.565  0.7630 -2.0072  0.2571
  121OSM    C5S12798   1.706   6.503  10.508  0.3032  0.0985 -0.1182
  121OSM    H5S12799   1.615   6.450  10.540 -0.4281  2.0397  1.2247
  121OSM    C6S12800   1.686   6.603  10.393  0.3930 -0.1600 -0.3382
  121OSM    H6S12801   1.755   6.691  10.400 -0.8519  0.8992 -0.9675
  121OSM    H6T12802   1.586   6.650  10.387  0.9728  1.2151  0.3122
  121OSM    C7S12803   1.719   6.527  10.262  0.3598 -0.2737 -0.7688
  121OSM    H7S12804   1.685   6.585  10.174 -1.0646 -0.1525 -0.1685
  121OSM    H7T12805   1.666   6.429  10.262 -0.6198  0.2463 -0.1434
  121OSM    C8S12806   1.869   6.505  10.240  0.4525 -0.1707 -0.6452
  121OSM    H8S12807   1.910   6.449  10.327 -1.0238 -1.4341 -0.7198
  121OSM    H8T12808   1.916   6.605  10.255  0.8122 -0.3563 -0.5100
  121OSM    C9S12809   1.910   6.429  10.121  0.3273  0.0938  0.7425
  121OSM    H9S12810   1.889   6.320  10.127  0.5046 -0.0577 -0.8929
  121OSM    H9T12811   2.021   6.432  10.112  0.4097 -0.4248  1.4892
  121OSM   C10S12812   1.851   6.481   9.987  0.9055  0.0627  0.1469
  121OSM   H10S12813   1.865   6.591   9.995  4.5830 -0.4125  2.0419
  121OSM   H10T12814   1.744   6.453   9.978  0.7637  0.6295 -0.0021
  121OSM   C11S12815   1.922   6.417   9.868 -0.5468 -0.4686  0.4175
  121OSM   H11S12816   1.914   6.307   9.884  1.4460 -0.4076  2.3122
  121OSM   H11T12817   2.027   6.453   9.862 -0.3422 -1.0527  0.4489
  121OSM   C12S12818   1.860   6.435   9.728  0.6712 -0.4890  0.7956
  121OSM   H12S12819   1.753   6.411   9.741  0.8808 -1.5761  0.6456
  121OSM   H12T12820   1.901   6.341   9.683  0.1262  0.0129 -0.8302
  121OSM   C13S12821   1.891   6.563   9.648 -0.6444 -0.2029  0.0962
  121OSM   H13S12822   2.000   6.581   9.659 -0.6830 -0.3447  0.7632
  121OSM   H13T12823   1.837   6.653   9.684  1.0610  1.0782 -0.3899
  121OSM   C14S12824   1.847   6.550   9.502  0.1001 -0.4300  0.1185
  121OSM   H14S12825   1.736   6.552   9.506  0.1172  0.6269  0.4532
  121OSM   H14T12826   1.881   6.456   9.453  3.0191 -0.2290  1.5869
  121OSM   C15S12827   1.892   6.676   9.428 -0.2248 -0.1295  0.0886
  121OSM   H15S12828   1.997   6.660   9.396 -0.7388  0.3127 -1.9859
  121OSM   H15T12829   1.892   6.762   9.497  0.6278 -0.5833  0.6705
  121OSM   C16S12830   1.794   6.703   9.309 -0.4996 -0.5058 -0.2094
  121OSM   H16S12831   1.803   6.800   9.256 -0.2748  0.2461  1.1445
  121OSM   H16T12832   1.694   6.720   9.355 -1.0672  1.4901 -2.0414
  121OSM   C17S12833   1.794   6.589   9.208 -0.4915 -0.3660  0.5814
  121OSM   H17S12834   1.783   6.492   9.262  1.3725 -0.8238  0.1967
  121OSM   H17T12835   1.891   6.577   9.157 -2.2623 -1.4550 -2.8812
  121OSM   C18S12836   1.686   6.602   9.103  0.8133  0.0038  0.3241
  121OSM   H18S12837   1.720   6.664   9.017  0.7398 -0.5007 -0.0690
  121OSM   H18T12838   1.589   6.642   9.140  1.2659  0.1987  1.3204
  121OSM   H18U12839   1.665   6.500   9.065  4.8765 -2.0125  2.8487
  121OSM    C1F12840   1.938   6.137  10.446 -0.2900  0.4751  0.2185
  121OSM     OF12841   1.870   6.044  10.476  0.1674  0.2007 -0.2838
  121OSM    C2F12842   2.020   6.140  10.313  0.7461 -0.2068  0.0556
  121OSM    H2F12843   2.080   6.233  10.305  0.5863 -0.0830  0.2803
  121OSM    H2G12844   1.944   6.132  10.231 -1.3785 -0.9888  1.9766
  121OSM    C3F12845   2.110   6.016  10.285  0.1989  0.3632 -0.0967
  121OSM    H3F12846   2.050   5.926  10.312 -0.8748  1.3933  1.1150
  121OSM    H3G12847   2.197   6.031  10.353 -0.5212 -2.1333  1.5314
  121OSM    C4F12848   2.149   5.998  10.135 -0.1147  0.1687  0.2243
  121OSM    H4F12849   2.056   5.980  10.077 -0.7970 -0.1517  1.3697
  121OSM    H4G12850   2.202   5.902  10.120  0.6642  0.7903 -1.1088
  121OSM    C5F12851   2.220   6.125  10.093  0.6029 -0.4459  0.1649
  121OSM    H5F12852   2.300   6.155  10.164  0.7989 -0.2862 -0.1263
  121OSM    H5G12853   2.136   6.196  10.081 -0.6039 -1.6630  1.0563
  121OSM    C6F12854   2.282   6.127   9.950 -0.0960  0.1371  0.3754
  121OSM    H6F12855   2.383   6.083   9.943  0.0869  0.4740  0.8368
  121OSM    H6G12856   2.303   6.236   9.943  1.7597 -0.2361 -0.4660
  121OSM    C7F12857   2.193   6.055   9.848  0.0329  1.1785 -0.1038
  121OSM    H7F12858   2.110   6.120   9.814 -1.7537 -1.3317 -0.8473
  121OSM    H7G12859   2.162   5.953   9.879 -0.5092  0.5499 -2.5361
  121OSM    C8F12860   2.258   6.028   9.701  0.0287 -0.2025 -0.6721
  121OSM    H8F12861   2.164   6.002   9.649 -0.5893 -0.8572  0.7264
  121OSM    H8G12862   2.322   5.937   9.706  0.0873 -0.2111 -1.4207
  121OSM    C9F12863   2.340   6.139   9.638 -0.6653  0.3871  0.1324
  121OSM    H9F12864   2.441   6.145   9.681  0.4560 -1.0163 -2.1246
  121OSM   C10F12865   2.323   6.202   9.524 -0.1186 -0.4820 -0.4358
  121OSM   H10F12866   2.395   6.281   9.496  3.0685 -3.4317 -1.2163
  121OSM   C11F12867   2.202   6.193   9.433  0.5596  0.1585  0.3957
  121OSM   H11F12868   2.168   6.294   9.400 -0.6534  0.7960  3.2962
  121OSM   H11G12869   2.108   6.151   9.473  0.3915 -0.3089 -0.4571
  121OSM   C12F12870   2.238   6.112   9.309 -1.0812  0.6576  0.1905
  121OSM   H12F12871   2.141   6.088   9.260 -0.1477 -1.3850 -0.7885
  121OSM   H12G12872   2.284   6.013   9.330 -2.7753  0.0713  1.3140
  121OSM   C13F12873   2.326   6.173   9.199 -0.4931 -0.3357 -0.4654
  121OSM   H13F12874   2.431   6.172   9.233 -0.4624 -0.1729 -0.5516
  121OSM   H13G12875   2.298   6.279   9.182 -0.3418 -0.0540  0.9951
  121OSM   C14F12876   2.309   6.102   9.060  0.1319  0.2782 -0.0062
  121OSM   H14F12877   2.211   6.113   9.009 -0.4431 -0.9889  0.7651
  121OSM   H14G12878   2.325   5.995   9.083  2.2354  0.6225  0.4006
  121OSM   C15F12879   2.422   6.136   8.956  0.1622 -0.1757  0.1577
  121OSM   H15F12880   2.405   6.060   8.877 -0.4357  0.8985 -0.7710
  121OSM   H15G12881   2.519   6.112   9.004  0.8661 -0.7071 -1.4723
  121OSM   C16F12882   2.419   6.282   8.912 -0.6765  0.3858 -0.0677
  121OSM   H16F12883   2.439   6.346   9.001 -1.5490 -0.1571  0.5348
  121OSM   H16G12884   2.312   6.290   8.884 -0.4707 -0.7639 -1.3257
  121OSM   C17F12885   2.508   6.314   8.792  0.7795  0.0873  0.0106
  121OSM   H17F12886   2.470   6.255   8.706 -1.0997  0.8307  0.2802
  121OSM   H17G12887   2.613   6.284   8.814  0.2700  0.2611  3.2153
  121OSM   C18F12888   2.503   6.464   8.752  0.2429 -0.0512  0.2952
  121OSM   H18F12889   2.520   6.533   8.837  1.2027 -0.2662  0.2912
  121OSM   H18G12890   2.409   6.487   8.697  0.0013 -0.0825  0.6920
  121OSM   H18H12891   2.581   6.483   8.676 -0.8133 -0.4096 -0.9227
  122OSM      N12892   0.372   4.561  10.834  0.3816  0.3127 -0.1239
  122OSM    C1512893   0.248   4.626  10.866  0.4002 -0.2465  0.7571
  122OSM   H15A12894   0.246   4.694  10.950  0.2282  1.0404 -0.2515
  122OSM   H15B12895   0.169   4.559  10.896  1.1497 -0.7748  1.6243
  122OSM   H15C12896   0.211   4.687  10.785  1.9188  1.0813  0.9993
  122OSM    C1412897   0.476   4.670  10.845  0.1769  0.0582 -0.0449
  122OSM   H14A12898   0.436   4.749  10.783  0.2576  1.5011  1.6489
  122OSM   H14B12899   0.567   4.634  10.800  0.9291  1.5194  0.2488
  122OSM   H14C12900   0.471   4.708  10.946 -1.0213 -4.5830  1.8961
  122OSM    C1312901   0.403   4.462  10.941  0.4152 -0.0733  0.7367
  122OSM   H13A12902   0.333   4.380  10.942 -0.5411  0.6871 -0.5429
  122OSM   H13B12903   0.403   4.502  11.041  1.0547  1.1594  0.2779
  122OSM   H13C12904   0.502   4.423  10.927  0.7605  0.5539  1.3933
  122OSM    C1212905   0.370   4.509  10.691 -0.6520  0.6819 -0.4275
  122OSM   H12A12906   0.334   4.581  10.619  0.7700 -0.2933 -2.2098
  122OSM   H12B12907   0.303   4.426  10.675  0.6187 -0.2396 -1.2145
  122OSM    C1112908   0.509   4.459  10.648 -0.1348 -0.0472 -0.3831
  122OSM   H11A12909   0.576   4.546  10.630 -2.2085  1.5176 -1.0069
  122OSM   H11B12910   0.501   4.414  10.547 -1.9679  1.0926 -0.7849
  122OSM      P12911   0.703   4.313  10.740  0.0635  0.3463 -0.1388
  122OSM    O1312912   0.772   4.389  10.847 -0.2294 -0.1114  0.3347
  122OSM    O1412913   0.697   4.164  10.771  0.4367 -0.4620  0.3057
  122OSM    O1112914   0.764   4.343  10.598  0.5110 -0.2556  0.2644
  122OSM    O1212915   0.553   4.361  10.738  0.2264  0.5046  0.5233
  122OSM    C1S12916   0.757   4.238  10.493 -0.3539 -0.3409 -0.0427
  122OSM    H1S12917   0.694   4.151  10.522  1.4683 -1.7837 -0.1267
  122OSM    H1T12918   0.859   4.194  10.480  0.2328  0.6990  0.8425
  122OSM     NF12919   0.686   4.201  10.274 -0.4309  0.0431  0.2611
  122OSM    HNF12920   0.767   4.177  10.220 -1.0160 -2.1239  0.2524
  122OSM    C2S12921   0.711   4.301  10.363 -0.2198 -0.1824  0.1781
  122OSM    H2S12922   0.616   4.356  10.382 -1.9712 -2.7005 -0.8276
  122OSM    C3S12923   0.815   4.407  10.317  1.0964 -0.9850  0.5574
  122OSM    H3S12924   0.907   4.349  10.290 -1.4288 -4.9860 -0.2974
  122OSM     O312925   0.864   4.504  10.409 -0.3691 -0.2502 -0.2175
  122OSM    HO312926   0.842   4.471  10.496  1.8772  2.5983  1.6493
  122OSM    C4S12927   0.764   4.465  10.181 -0.3738  0.2965 -0.3526
  122OSM    H4S12928   0.779   4.403  10.092 -1.1696 -0.1785 -0.1697
  122OSM    C5S12929   0.710   4.587  10.158  0.2817 -0.2041 -0.2686
  122OSM    H5S12930   0.691   4.669  10.230 -2.2225 -0.5488 -0.4436
  122OSM    C6S12931   0.666   4.636  10.026  0.3679  0.5135  0.0378
  122OSM    H6S12932   0.655   4.747  10.034 -1.3644  0.3030  1.0473
  122OSM    H6T12933   0.564   4.596  10.010  1.0390 -0.9021 -0.8716
  122OSM    C7S12934   0.759   4.592   9.909  1.0385  0.9671 -0.6358
  122OSM    H7S12935   0.768   4.482   9.904 -0.6537  0.8228 -1.2911
  122OSM    H7T12936   0.852   4.643   9.944  0.8673  0.7047  0.2373
  122OSM    C8S12937   0.710   4.648   9.779  0.0187 -0.0545  0.0480
  122OSM    H8S12938   0.734   4.755   9.762 -2.0917  0.3644 -0.5511
  122OSM    H8T12939   0.599   4.642   9.774  0.0908 -0.9342 -0.9198
  122OSM    C9S12940   0.762   4.567   9.663  0.8962 -0.0462  0.4116
  122OSM    H9S12941   0.752   4.460   9.690  0.4736 -0.2155 -0.3667
  122OSM    H9T12942   0.866   4.592   9.634  0.5531  0.2603 -0.6350
  122OSM   C10S12943   0.664   4.585   9.542  0.1928 -0.6685 -0.4297
  122OSM   H10S12944   0.664   4.694   9.517  0.2362 -0.3600  0.8551
  122OSM   H10T12945   0.564   4.550   9.575 -2.5196  3.1930 -3.5976
  122OSM   C11S12946   0.709   4.502   9.427 -0.2131  0.9555 -0.2878
  122OSM   H11S12947   0.717   4.399   9.467 -0.6906  1.2486  0.5797
  122OSM   H11T12948   0.806   4.545   9.393  0.3706  0.5585  0.8320
  122OSM   C12S12949   0.616   4.502   9.312 -0.3326  0.8744 -0.1835
  122OSM   H12S12950   0.507   4.505   9.333 -0.7467 -0.3590 -1.8832
  122OSM   H12T12951   0.631   4.404   9.261  0.7555 -0.4992  2.5417
  122OSM   C13S12952   0.630   4.614   9.209 -0.2970  0.4669  0.6764
  122OSM   H13S12953   0.735   4.605   9.174 -0.6472  0.7740 -0.4902
  122OSM   H13T12954   0.616   4.704   9.273 -0.8583  1.0611 -0.2594
  122OSM   C14S12955   0.532   4.602   9.095 -0.4328  0.1562  0.0745
  122OSM   H14S12956   0.432   4.646   9.117 -0.2829  0.7553 -0.4473
  122OSM   H14T12957   0.513   4.493   9.085  1.6264 -0.3188  0.8711
  122OSM   C15S12958   0.577   4.651   8.954 -0.0594 -0.6034  0.1839
  122OSM   H15S12959   0.682   4.615   8.942 -0.3433 -0.5542 -3.7524
  122OSM   H15T12960   0.582   4.762   8.952 -0.3514 -0.5905 -1.5388
  122OSM   C16S12961   0.495   4.596   8.836 -0.1103  0.0428  0.5132
  122OSM   H16S12962   0.387   4.616   8.849 -0.3496 -0.3887 -0.6868
  122OSM   H16T12963   0.510   4.486   8.832  0.5267  0.0832  1.6193
  122OSM   C17S12964   0.552   4.647   8.703 -0.3009 -0.6666 -1.0675
  122OSM   H17S12965   0.663   4.641   8.701 -0.1911  0.9905 -1.3001
  122OSM   H17T12966   0.523   4.754   8.693  0.5723 -0.0988  1.7388
  122OSM   C18S12967   0.511   4.560   8.587 -0.4334 -0.2090 -0.0431
  122OSM   H18S12968   0.512   4.451   8.607 -2.7079 -0.5044 -1.2207
  122OSM   H18T12969   0.561   4.582   8.490 -0.5584  0.6615  0.0824
  122OSM   H18U12970   0.402   4.569   8.572 -0.4896 -0.9199 -0.0582
  122OSM    C1F12971   0.578   4.120  10.284 -0.3470 -0.0774  0.2027
  122OSM     OF12972   0.495   4.134  10.372  0.0005 -0.0681 -0.4233
  122OSM    C2F12973   0.558   4.012  10.177  0.2434  0.0512  0.8158
  122OSM    H2F12974   0.632   3.932  10.200 -0.7277 -1.9368 -2.3799
  122OSM    H2G12975   0.582   4.055  10.077  1.3044 -2.8622 -0.2864
  122OSM    C3F12976   0.420   3.938  10.167 -0.5329  0.0889 -0.3154
  122OSM    H3F12977   0.337   4.012  10.173  2.2656  3.6169 -1.2783
  122OSM    H3G12978   0.414   3.864  10.249 -0.6465  1.3491  0.8420
  122OSM    C4F12979   0.407   3.854  10.038 -0.4827 -0.0088 -0.4817
  122OSM    H4F12980   0.409   3.919   9.948  2.6756 -0.6451 -0.9704
  122OSM    H4G12981   0.302   3.816  10.040 -0.4340 -0.1294 -0.1262
  122OSM    C5F12982   0.504   3.734  10.029 -0.2039 -0.5822 -0.4125
  122OSM    H5F12983   0.500   3.681  10.127  1.7541 -0.4787 -0.2511
  122OSM    H5G12984   0.608   3.768  10.012 -1.4010  2.5078 -2.3283
  122OSM    C6F12985   0.470   3.636   9.913  0.1865 -0.3481  0.6886
  122OSM    H6F12986   0.361   3.616   9.914  0.3832 -1.4877  1.1542
  122OSM    H6G12987   0.523   3.539   9.923 -2.0274 -1.7389 -0.3526
  122OSM    C7F12988   0.502   3.705   9.775  0.4673  0.3397  0.2864
  122OSM    H7F12989   0.610   3.734   9.773  0.4413  0.4160 -0.7118
  122OSM    H7G12990   0.437   3.794   9.772 -0.6535 -0.4854 -0.6894
  122OSM    C8F12991   0.466   3.615   9.659  0.2746  0.1364  0.1383
  122OSM    H8F12992   0.487   3.692   9.581 -2.1837 -1.1331 -1.9651
  122OSM    H8G12993   0.359   3.583   9.663 -0.1651  1.5031  0.1448
  122OSM    C9F12994   0.550   3.489   9.652  0.1984 -0.4375  0.4698
  122OSM    H9F12995   0.516   3.405   9.714 -0.1672 -0.1609  0.6411
  122OSM   C10F12996   0.647   3.457   9.561 -0.3319 -0.4238  0.1005
  122OSM   H10F12997   0.700   3.360   9.570  1.2619  0.3187 -0.8466
  122OSM   C11F12998   0.706   3.546   9.453 -0.2666 -0.4953  0.0325
  122OSM   H11F12999   0.812   3.519   9.435 -0.5342 -2.9154  1.6608
  122OSM   H11G13000   0.706   3.653   9.484 -0.0131 -0.1511 -1.0768
  122OSM   C12F13001   0.625   3.522   9.325 -0.0790  0.4444  1.0281
  122OSM   H12F13002   0.520   3.541   9.355  0.1405  0.2535  1.9691
  122OSM   H12G13003   0.653   3.426   9.278 -0.9736  1.1803 -1.1265
  122OSM   C13F13004   0.659   3.624   9.214 -0.0570 -0.2692  0.2128
  122OSM   H13F13005   0.763   3.606   9.180 -0.6813 -1.5697 -1.1219
  122OSM   H13G13006   0.639   3.725   9.256 -0.2048  0.4781 -1.5838
  122OSM   C14F13007   0.577   3.603   9.087  0.3720  0.6112  0.6319
  122OSM   H14F13008   0.467   3.614   9.104 -0.1002  1.9710 -2.6251
  122OSM   H14G13009   0.605   3.506   9.040  1.6635  0.5631  1.4710
  122OSM   C15F13010   0.591   3.707   8.979  0.2192  0.3253  0.0733
  122OSM   H15F13011   0.682   3.684   8.919  0.2449 -1.9574  0.9172
  122OSM   H15G13012   0.611   3.801   9.035 -1.3861  0.2273  0.8472
  122OSM   C16F13013   0.456   3.711   8.897 -0.0155  0.4157  0.3256
  122OSM   H16F13014   0.379   3.763   8.958 -0.6044 -2.5155  2.3000
  122OSM   H16G13015   0.422   3.609   8.871 -1.9865  1.4850 -1.6474
  122OSM   C17F13016   0.479   3.791   8.763  0.1672  0.1109 -0.3241
  122OSM   H17F13017   0.556   3.737   8.704  1.7176  0.9064  0.9237
  122OSM   H17G13018   0.517   3.890   8.794 -0.3920 -0.0392  0.8830
  122OSM   C18F13019   0.355   3.814   8.675 -0.3798  0.8360  0.4237
  122OSM   H18F13020   0.304   3.717   8.656  0.7382  0.2719  0.1758
  122OSM   H18G13021   0.390   3.860   8.580 -0.6785 -0.9448 -0.5982
  122OSM   H18H13022   0.282   3.886   8.717 -1.3048 -0.4194  1.0502
  123OSM      N13023   5.873   3.781   5.618  0.1979 -0.3129  0.0964
  123OSM    C1513024   5.838   3.846   5.484  0.1878  0.7278  0.3613
  123OSM   H15A13025   5.864   3.770   5.412 -3.7497 -1.3056  0.8123
  123OSM   H15B13026   5.872   3.948   5.474  2.8235 -0.1070 -0.0169
  123OSM   H15C13027   5.730   3.846   5.477  0.1223  2.3691  0.9093
  123OSM    C1413028   5.791   3.658   5.618 -0.0466 -0.9386 -0.2187
  123OSM   H14A13029   5.802   3.598   5.707  1.1109 -0.7763 -0.2444
  123OSM   H14B13030   5.830   3.595   5.539  0.1719 -1.4373  0.2852
  123OSM   H14C13031   5.684   3.673   5.622 -0.2117 -2.2361  2.2143
  123OSM    C1313032   6.019   3.761   5.631 -0.0224  0.0312 -0.2573
  123OSM   H13A13033   6.043   3.698   5.716  0.1235 -1.7385 -1.5483
  123OSM   H13B13034   6.067   3.857   5.627 -0.1508  0.0549 -1.4738
  123OSM   H13C13035   6.057   3.702   5.549 -0.2230  2.3027 -2.0725
  123OSM    C1213036   5.830   3.877   5.726  0.4786  0.6978  0.8476
  123OSM   H12A13037   5.728   3.904   5.701  1.1428  0.4176 -2.7044
  123OSM   H12B13038   5.883   3.970   5.713 -0.3567  1.0316 -0.3224
  123OSM    C1113039   5.835   3.828   5.869  0.7282 -0.4237  0.1593
  123OSM   H11A13040   5.945   3.829   5.887  0.4645 -1.0040  2.0210
  123OSM   H11B13041   5.807   3.723   5.890 -0.4676  0.0238  0.9110
  123OSM      P13042   5.797   4.070   5.964 -0.0586  0.7099 -0.1431
  123OSM    O1313043   5.896   4.116   5.865  0.0935 -0.3728  0.3357
  123OSM    O1413044   5.666   4.142   5.970 -0.0038  0.2839  0.2966
  123OSM    O1113045   5.859   4.083   6.111  0.3867 -0.4888  0.2902
  123OSM    O1213046   5.758   3.918   5.951 -0.5956 -0.0917 -0.6629
  123OSM    C1S13047   5.938   3.978   6.168 -0.3310  0.0846  0.2865
  123OSM    H1S13048   6.037   3.976   6.118  1.0141 -0.7289  2.8145
  123OSM    H1T13049   5.894   3.878   6.149 -1.6222  0.7699 -0.5090
  123OSM     NF13050   6.060   3.883   6.342 -0.0399 -0.3938  0.1863
  123OSM    HNF13051   6.031   3.788   6.348 -2.5004  0.3933  2.2168
  123OSM    C2S13052   5.969   3.988   6.319  0.1475 -0.5170  0.3855
  123OSM    H2S13053   6.007   4.090   6.344  0.0004 -0.0728 -1.0971
  123OSM    C3S13054   5.838   3.977   6.407 -0.9956  0.3198 -0.1492
  123OSM    H3S13055   5.797   3.876   6.388  1.5313 -0.5237 -1.5078
  123OSM     O313056   5.732   4.075   6.379  0.8413  0.0669  0.6930
  123OSM    HO313057   5.744   4.114   6.292 -0.8095  0.7264  0.7195
  123OSM    C4S13058   5.876   3.977   6.550 -0.7559  0.6223 -0.6504
  123OSM    H4S13059   5.902   3.880   6.596 -0.3189  1.9601  2.1307
  123OSM    C5S13060   5.890   4.078   6.634 -0.0069 -0.0828  0.4789
  123OSM    H5S13061   5.877   4.179   6.592  1.2243  1.9634  4.4475
  123OSM    C6S13062   5.920   4.097   6.784 -0.0392  0.2068  0.0172
  123OSM    H6S13063   5.833   4.148   6.830  0.8564  0.6355  1.3015
  123OSM    H6T13064   6.002   4.170   6.805  0.0662  0.2691 -0.5921
  123OSM    C7S13065   5.946   3.973   6.863 -0.6320  0.6268  0.0322
  123OSM    H7S13066   6.055   3.959   6.849 -0.6878 -0.0123  0.2042
  123OSM    H7T13067   5.900   3.886   6.811  0.2634  1.1988 -1.8037
  123OSM    C8S13068   5.912   3.979   7.010  0.4277 -0.3000  0.2769
  123OSM    H8S13069   5.925   3.884   7.067 -2.1407 -0.3647  0.8603
  123OSM    H8T13070   5.803   3.993   7.023  0.0469 -2.3519 -0.4636
  123OSM    C9S13071   5.988   4.086   7.082  0.1853 -0.6620  0.1023
  123OSM    H9S13072   5.941   4.185   7.059  1.2478 -0.4897 -1.5633
  123OSM    H9T13073   6.089   4.110   7.041  0.2221  0.0286  0.5726
  123OSM   C10S13074   6.006   4.076   7.231 -0.0099 -0.1561  0.3949
  123OSM   H10S13075   6.066   3.989   7.264 -0.5326 -0.3242  0.9136
  123OSM   H10T13076   5.902   4.059   7.268 -0.2251  0.1938 -0.0293
  123OSM   C11S13077   6.058   4.212   7.291 -0.4490 -0.3118  0.2239
  123OSM   H11S13078   6.014   4.304   7.245  0.8843 -0.5966 -1.7586
  123OSM   H11T13079   6.168   4.218   7.280 -0.5662  2.7834 -0.1774
  123OSM   C12S13080   6.020   4.215   7.442 -0.1301  0.2415 -0.0621
  123OSM   H12S13081   6.054   4.118   7.483 -0.0767  0.9795  1.7232
  123OSM   H12T13082   5.911   4.213   7.460 -0.1608  1.3222 -0.0257
  123OSM   C13S13083   6.102   4.311   7.527  0.2703 -0.7926  0.3491
  123OSM   H13S13084   6.061   4.413   7.506  0.5595 -0.7337  0.0617
  123OSM   H13T13085   6.210   4.314   7.502  0.4869 -1.5719  1.1599
  123OSM   C14S13086   6.083   4.296   7.682  0.1560  0.2183  0.0898
  123OSM   H14S13087   5.975   4.280   7.700  0.5572 -0.6702  1.8790
  123OSM   H14T13088   6.113   4.398   7.714  1.8338 -0.0712 -0.4367
  123OSM   C15S13089   6.168   4.191   7.751 -0.4876 -0.9513  0.3020
  123OSM   H15S13090   6.274   4.219   7.733 -1.1517  3.5400  2.0402
  123OSM   H15T13091   6.151   4.089   7.709 -1.5675  0.5139 -3.2345
  123OSM   C16S13092   6.159   4.208   7.903  0.6750 -0.6890 -0.8928
  123OSM   H16S13093   6.214   4.296   7.942  0.6963 -1.3042  0.4992
  123OSM   H16T13094   6.219   4.126   7.947 -1.8648 -0.1289  4.3269
  123OSM   C17S13095   6.023   4.214   7.980  0.0750  0.5988  0.5566
  123OSM   H17S13096   5.956   4.151   7.917  0.7900  0.7481 -0.3714
  123OSM   H17T13097   5.979   4.316   7.980 -0.5209  0.3491  0.2266
  123OSM   C18S13098   6.028   4.158   8.119  0.0532 -0.3965 -0.3008
  123OSM   H18S13099   5.962   4.222   8.181 -0.4309  2.4178 -3.4007
  123OSM   H18T13100   6.131   4.168   8.158  0.6641  1.0707 -2.1468
  123OSM   H18U13101   5.987   4.055   8.119 -0.8642 -0.0615  1.4638
  123OSM    C1F13102   6.189   3.903   6.333 -0.4085 -1.0228 -0.1360
  123OSM     OF13103   6.231   4.010   6.280 -0.1599  0.1301 -1.0963
  123OSM    C2F13104   6.279   3.789   6.363 -0.2430 -0.0912  0.4872
  123OSM    H2F13105   6.291   3.742   6.263 -1.2548 -1.0944  0.8228
  123OSM    H2G13106   6.228   3.720   6.434  0.7042 -1.2140  0.0977
  123OSM    C3F13107   6.412   3.825   6.431  0.0169 -0.0176 -0.2847
  123OSM    H3F13108   6.467   3.895   6.365 -1.1552  0.5571 -0.6705
  123OSM    H3G13109   6.466   3.729   6.442  0.4018  0.3011  0.8161
  123OSM    C4F13110   6.404   3.897   6.569 -0.8083 -0.2577 -0.2936
  123OSM    H4F13111   6.349   3.992   6.553  1.1632  0.6335 -2.1982
  123OSM    H4G13112   6.503   3.921   6.613 -0.8459 -1.1442  0.3079
  123OSM    C5F13113   6.343   3.817   6.685  0.1153  0.6135 -0.8362
  123OSM    H5F13114   6.382   3.714   6.669 -0.3195  0.3572 -0.2811
  123OSM    H5G13115   6.235   3.805   6.659 -0.0233  1.5893 -0.7292
  123OSM    C6F13116   6.359   3.880   6.826 -0.0375  0.4066  0.2256
  123OSM    H6F13117   6.316   3.982   6.833  0.0822  0.4513  0.3144
  123OSM    H6G13118   6.466   3.905   6.842  0.0494  0.0374  0.2321
  123OSM    C7F13119   6.313   3.784   6.933  0.5476  0.1695  0.2877
  123OSM    H7F13120   6.394   3.709   6.947 -1.5241 -1.8219  2.4469
  123OSM    H7G13121   6.219   3.734   6.901  1.3945 -1.4803  0.2725
  123OSM    C8F13122   6.299   3.845   7.078 -0.1101 -0.3623  0.5608
  123OSM    H8F13123   6.223   3.926   7.074  1.6818  1.4349 -4.4603
  123OSM    H8G13124   6.396   3.894   7.101  0.1149  0.7307 -2.3267
  123OSM    C9F13125   6.252   3.741   7.176  0.4941  0.2916  0.7877
  123OSM    H9F13126   6.145   3.714   7.181  0.5815  0.0852  2.0063
  123OSM   C10F13127   6.327   3.680   7.268  0.0946 -0.0504 -0.1982
  123OSM   H10F13128   6.283   3.604   7.334 -0.3932 -0.6167 -1.1563
  123OSM   C11F13129   6.471   3.703   7.301  0.3597  0.1696  0.5297
  123OSM   H11F13130   6.492   3.810   7.280  0.6562 -0.1210 -0.7594
  123OSM   H11G13131   6.535   3.651   7.226  0.3234  0.2993  0.4077
  123OSM   C12F13132   6.499   3.663   7.449  0.2665  0.0749  0.1692
  123OSM   H12F13133   6.410   3.697   7.505  0.9274 -0.6636  1.7242
  123OSM   H12G13134   6.585   3.718   7.492 -0.5853  1.6736 -0.1082
  123OSM   C13F13135   6.526   3.513   7.454  0.6001 -0.2627  0.2383
  123OSM   H13F13136   6.628   3.486   7.417  0.5913 -0.2347  0.1952
  123OSM   H13G13137   6.457   3.462   7.384  1.6840 -0.0340 -1.0413
  123OSM   C14F13138   6.511   3.460   7.601  0.4697  0.3735  0.0969
  123OSM   H14F13139   6.411   3.472   7.647  0.8301  0.5704  0.8416
  123OSM   H14G13140   6.569   3.511   7.681 -0.5471 -0.9023  1.7246
  123OSM   C15F13141   6.559   3.316   7.609 -0.1945  0.0935  0.5605
  123OSM   H15F13142   6.641   3.290   7.539 -1.0407  0.1323 -0.4620
  123OSM   H15G13143   6.472   3.257   7.574  0.4432  0.2040 -1.2944
  123OSM   C16F13144   6.611   3.267   7.745  0.6473 -0.6141  0.1119
  123OSM   H16F13145   6.635   3.160   7.727  0.0942 -0.5182 -1.2779
  123OSM   H16G13146   6.521   3.271   7.811 -0.1561 -0.0127 -0.9953
  123OSM   C17F13147   6.743   3.337   7.795  0.4276 -0.4058 -0.5247
  123OSM   H17F13148   6.714   3.433   7.843 -1.9637  0.2843 -3.0950
  123OSM   H17G13149   6.809   3.346   7.706  1.4850  0.3543  0.3091
  123OSM   C18F13150   6.803   3.239   7.898 -0.1823  0.2808  0.6069
  123OSM   H18F13151   6.897   3.281   7.941  1.1497 -2.0676  0.1707
  123OSM   H18G13152   6.827   3.143   7.848 -0.4004  0.9337 -0.8062
  123OSM   H18H13153   6.731   3.223   7.980 -0.7736  0.9624  0.2327
  124OSM      N13154   1.137   1.985   6.242  0.1989 -0.1138  0.3413
  124OSM    C1513155   1.191   1.881   6.140  0.3968 -0.6405 -0.0452
  124OSM   H15A13156   1.129   1.793   6.137  0.3029 -0.6676  1.7743
  124OSM   H15B13157   1.296   1.859   6.151  1.3842  1.0012 -4.2245
  124OSM   H15C13158   1.188   1.932   6.044 -0.2873  1.6261  1.1130
  124OSM    C1413159   1.183   2.122   6.202 -0.5440  0.4788 -0.1931
  124OSM   H14A13160   1.289   2.129   6.181 -0.4467  2.4504  0.7424
  124OSM   H14B13161   1.152   2.188   6.281  0.7938 -0.4396  1.1502
  124OSM   H14C13162   1.147   2.158   6.107  0.9262  1.3871 -0.4370
  124OSM    C1313163   0.987   1.994   6.242 -0.0350 -0.5832 -0.1437
  124OSM   H13A13164   0.949   2.060   6.319 -1.8421 -1.9841  0.2314
  124OSM   H13B13165   0.927   1.905   6.247  0.7223 -1.0482  1.1273
  124OSM   H13C13166   0.968   2.048   6.150  0.8645 -0.1255 -0.0767
  124OSM    C1213167   1.180   1.949   6.380  0.1833 -0.2732 -1.1492
  124OSM   H12A13168   1.152   1.848   6.405  0.6280  0.0747  0.9819
  124OSM   H12B13169   1.124   2.016   6.443  0.2338 -1.2623 -0.0307
  124OSM    C1113170   1.326   1.945   6.423 -0.1118 -0.2792 -0.9699
  124OSM   H11A13171   1.338   1.935   6.533  0.8705  0.0838 -1.0355
  124OSM   H11B13172   1.366   2.046   6.402 -2.9229  1.1151 -0.1165
  124OSM      P13173   1.523   1.866   6.263  0.2037  0.3880 -0.0433
  124OSM    O1313174   1.506   1.793   6.133  0.1611  0.7596 -0.4581
  124OSM    O1413175   1.543   2.014   6.245 -0.2880  0.3611  0.3504
  124OSM    O1113176   1.638   1.800   6.345 -0.1817  0.2186  0.0408
  124OSM    O1213177   1.399   1.837   6.357  0.4266  0.4154  0.0042
  124OSM    C1S13178   1.679   1.855   6.470 -0.4413  0.4278  0.0291
  124OSM    H1S13179   1.650   1.961   6.488  0.5104  0.1477  3.9557
  124OSM    H1T13180   1.789   1.849   6.478 -0.4166  1.8000  1.0126
  124OSM     NF13181   1.681   1.861   6.707 -0.0115  0.1277  0.0017
  124OSM    HNF13182   1.771   1.836   6.740  0.8765  2.2907 -0.6522
  124OSM    C2S13183   1.631   1.779   6.594  0.1835  0.3242 -0.3002
  124OSM    H2S13184   1.521   1.768   6.591  0.4139 -3.1101  0.1405
  124OSM    C3S13185   1.688   1.633   6.588  0.0468  0.3502  0.5977
  124OSM    H3S13186   1.798   1.634   6.570  0.2986 -1.2472  1.7777
  124OSM     O313187   1.645   1.557   6.477  0.5852 -0.5649 -0.3801
  124OSM    HO313188   1.604   1.617   6.414 -1.4819 -1.7964 -0.2957
  124OSM    C4S13189   1.640   1.557   6.706  0.5654 -0.2782 -0.1892
  124OSM    H4S13190   1.532   1.536   6.696  0.5784  0.4158 -2.2453
  124OSM    C5S13191   1.717   1.509   6.811  0.7971  0.6057  0.6082
  124OSM    H5S13192   1.826   1.510   6.824  0.6229 -1.5852  2.9442
  124OSM    C6S13193   1.659   1.426   6.927 -0.2131 -0.6201  0.3834
  124OSM    H6S13194   1.679   1.319   6.905  1.4723 -0.5808  1.5587
  124OSM    H6T13195   1.549   1.440   6.936 -0.2412  1.4825 -1.9946
  124OSM    C7S13196   1.729   1.459   7.055 -0.1825 -0.0757  0.5812
  124OSM    H7S13197   1.701   1.563   7.079 -2.9300 -0.2279 -1.4060
  124OSM    H7T13198   1.839   1.458   7.038 -0.0472  0.2696  1.4125
  124OSM    C8S13199   1.687   1.369   7.171  0.1336 -0.6193  0.7740
  124OSM    H8S13200   1.749   1.277   7.179 -0.6317 -1.2199 -0.0394
  124OSM    H8T13201   1.582   1.334   7.165 -0.0108 -0.4249  2.0152
  124OSM    C9S13202   1.686   1.444   7.303  0.5222 -0.2307 -0.9567
  124OSM    H9S13203   1.616   1.528   7.286 -0.0944 -0.9919 -2.3106
  124OSM    H9T13204   1.787   1.485   7.326  1.1526 -1.6331 -1.1223
  124OSM   C10S13205   1.630   1.352   7.421  0.0928 -0.1742 -0.2188
  124OSM   H10S13206   1.668   1.248   7.413  1.7961  0.4781 -1.0525
  124OSM   H10T13207   1.519   1.346   7.416  0.0883 -0.2640 -0.0093
  124OSM   C11S13208   1.675   1.400   7.558 -0.4135 -0.4066  0.3624
  124OSM   H11S13209   1.621   1.342   7.636 -0.2656  0.3070  1.0018
  124OSM   H11T13210   1.659   1.510   7.563  0.7084 -0.2361  0.3899
  124OSM   C12S13211   1.830   1.380   7.579  0.0295  0.0715 -1.0433
  124OSM   H12S13212   1.868   1.356   7.478 -1.4058 -2.1521 -1.1366
  124OSM   H12T13213   1.851   1.290   7.642  1.1417  0.2015 -1.2003
  124OSM   C13S13214   1.914   1.500   7.640 -0.1161  0.2187 -0.7289
  124OSM   H13S13215   1.928   1.584   7.568 -0.5561 -0.1074 -1.2030
  124OSM   H13T13216   2.009   1.454   7.674 -0.4925  0.9739  1.4826
  124OSM   C14S13217   1.857   1.556   7.772 -0.0922 -0.1211 -0.6707
  124OSM   H14S13218   1.824   1.465   7.825  3.4773 -1.4863 -0.4905
  124OSM   H14T13219   1.767   1.617   7.748  0.6189  1.0849 -0.3926
  124OSM   C15S13220   1.945   1.646   7.851 -0.2465  0.5356 -0.0849
  124OSM   H15S13221   1.970   1.730   7.783  2.7007 -0.0570  0.1561
  124OSM   H15T13222   2.041   1.598   7.879 -0.2344  0.6898  0.1322
  124OSM   C16S13223   1.866   1.705   7.961  0.4258 -0.4427 -0.3483
  124OSM   H16S13224   1.769   1.741   7.920 -0.6541  0.5557  2.8337
  124OSM   H16T13225   1.916   1.795   8.001 -1.3501 -0.2229  1.5272
  124OSM   C17S13226   1.836   1.597   8.067 -0.0540 -0.1377  0.1340
  124OSM   H17S13227   1.794   1.505   8.021 -0.5395  0.7424 -1.2452
  124OSM   H17T13228   1.774   1.644   8.146  1.4251  0.2577  1.1001
  124OSM   C18S13229   1.951   1.544   8.148 -0.1475 -0.3723  0.0283
  124OSM   H18S13230   1.926   1.443   8.187  3.5243 -2.3331 -2.1802
  124OSM   H18T13231   1.979   1.616   8.228  0.1137 -0.7118  0.2424
  124OSM   H18U13232   2.044   1.533   8.089  0.2423 -0.0526  0.5744
  124OSM    C1F13233   1.621   1.965   6.749 -0.4723  0.4124 -0.2158
  124OSM     OF13234   1.506   1.987   6.709 -0.7207  0.0414  0.5668
  124OSM    C2F13235   1.693   2.052   6.852  0.4846  0.0637  0.7918
  124OSM    H2F13236   1.800   2.033   6.833 -0.2960 -2.3764 -1.9277
  124OSM    H2G13237   1.667   2.011   6.952  1.9453  0.0202  1.1711
  124OSM    C3F13238   1.666   2.199   6.828  0.8568 -0.6658 -0.7846
  124OSM    H3F13239   1.558   2.216   6.845  1.2737 -0.1349  1.7171
  124OSM    H3G13240   1.705   2.242   6.733  0.2923  2.1315  0.1372
  124OSM    C4F13241   1.724   2.284   6.938 -0.1941  0.2785  0.3290
  124OSM    H4F13242   1.696   2.390   6.923 -0.6838  0.3309  1.4360
  124OSM    H4G13243   1.834   2.272   6.943 -0.1719  0.8787  2.2108
  124OSM    C5F13244   1.666   2.257   7.082 -0.4731 -0.2325 -0.2727
  124OSM    H5F13245   1.700   2.159   7.120 -1.5281 -0.3708  0.3583
  124OSM    H5G13246   1.556   2.259   7.072 -0.2861  2.4227 -3.9201
  124OSM    C6F13247   1.708   2.363   7.188  0.4286 -0.2296  0.1223
  124OSM    H6F13248   1.657   2.457   7.157  1.1367  0.0769 -0.1403
  124OSM    H6G13249   1.816   2.388   7.197  0.9655 -2.6230  1.0940
  124OSM    C7F13250   1.655   2.321   7.330  0.5374  0.5063  0.3295
  124OSM    H7F13251   1.707   2.226   7.356  0.3234  0.6895  1.4646
  124OSM    H7G13252   1.545   2.306   7.332  0.8167 -2.1383 -0.4327
  124OSM    C8F13253   1.692   2.410   7.448  0.8407 -0.2630  0.0881
  124OSM    H8F13254   1.666   2.504   7.394  1.3874  0.3973  0.9572
  124OSM    H8G13255   1.802   2.423   7.457  1.0437 -0.5478 -1.5840
  124OSM    C9F13256   1.629   2.373   7.582 -0.2495 -0.1803 -0.2343
  124OSM    H9F13257   1.521   2.361   7.594 -0.1217 -0.9561  0.2232
  124OSM   C10F13258   1.692   2.346   7.700  0.2958  0.0515 -0.3171
  124OSM   H10F13259   1.626   2.331   7.786  1.7270 -3.9160  0.2915
  124OSM   C11F13260   1.839   2.348   7.737 -0.3690 -0.2826 -0.2654
  124OSM   H11F13261   1.897   2.356   7.643 -0.9908  0.0842 -0.6231
  124OSM   H11G13262   1.868   2.248   7.776  0.1385 -0.2668 -0.6034
  124OSM   C12F13263   1.899   2.453   7.840 -0.1078  0.3224  0.0843
  124OSM   H12F13264   1.878   2.554   7.798 -1.9801  0.3629  1.0073
  124OSM   H12G13265   2.005   2.434   7.865 -0.5100 -1.7189  0.4142
  124OSM   C13F13266   1.814   2.432   7.965 -0.7064  0.3364 -0.1536
  124OSM   H13F13267   1.803   2.327   7.997 -0.2050  0.4406  0.3798
  124OSM   H13G13268   1.712   2.471   7.944 -1.3511 -1.8837 -1.4356
  124OSM   C14F13269   1.874   2.515   8.083  0.2596 -0.8549 -0.1564
  124OSM   H14F13270   1.905   2.613   8.041 -2.6477  0.2269  0.0071
  124OSM   H14G13271   1.965   2.467   8.124  0.9624  1.1352  0.7372
  124OSM   C15F13272   1.761   2.535   8.195  0.1135  0.7889 -1.2116
  124OSM   H15F13273   1.733   2.434   8.231  2.7354 -0.7123 -3.0460
  124OSM   H15G13274   1.670   2.577   8.149 -0.9783 -0.7019 -0.4860
  124OSM   C16F13275   1.792   2.625   8.313 -0.3577 -0.2428 -0.3243
  124OSM   H16F13276   1.705   2.666   8.369  0.5854 -0.2785  1.2082
  124OSM   H16G13277   1.850   2.708   8.266 -0.5249 -0.1099 -0.2975
  124OSM   C17F13278   1.885   2.565   8.426 -0.6572 -0.1504 -0.2004
  124OSM   H17F13279   1.899   2.635   8.512 -0.5822 -0.3155 -0.0779
  124OSM   H17G13280   1.984   2.546   8.378 -1.6694 -3.4141 -1.2298
  124OSM   C18F13281   1.831   2.436   8.480 -0.5858  1.5228 -0.2053
  124OSM   H18F13282   1.862   2.427   8.587  0.8819 -0.8634 -0.7607
  124OSM   H18G13283   1.864   2.350   8.417 -1.5520  1.9892 -1.3798
  124OSM   H18H13284   1.721   2.450   8.478 -0.9238 -0.0025  2.3285
  125OSM      N13285   1.589   3.990   5.911 -0.3539 -0.1632  0.3725
  125OSM    C1513286   1.683   4.110   5.882 -0.1668  0.1632 -0.0745
  125OSM   H15A13287   1.754   4.145   5.956 -1.0706  2.0690 -0.0594
  125OSM   H15B13288   1.619   4.195   5.862  0.8579  0.5952 -1.7097
  125OSM   H15C13289   1.730   4.090   5.787 -0.1139  0.3567 -0.0896
  125OSM    C1413290   1.484   3.988   5.806 -0.2226  0.9223  0.3247
  125OSM   H14A13291   1.438   4.078   5.768  0.4814  0.3913 -1.9523
  125OSM   H14B13292   1.406   3.920   5.837  0.4864  0.8327  2.0122
  125OSM   H14C13293   1.518   3.943   5.714 -1.1671 -0.3669  0.5808
  125OSM    C1313294   1.684   3.870   5.904 -0.3682  0.0710 -0.0385
  125OSM   H13A13295   1.733   3.850   5.810  1.7796 -3.0263  1.5613
  125OSM   H13B13296   1.621   3.785   5.929 -0.7522  0.7345  1.3491
  125OSM   H13C13297   1.768   3.867   5.972 -0.2792 -0.6147 -0.1686
  125OSM    C1213298   1.528   4.010   6.045  0.5146 -0.0021  0.9611
  125OSM   H12A13299   1.482   4.107   6.055  0.4246  0.3170 -1.6988
  125OSM   H12B13300   1.608   4.011   6.118 -0.5976  1.2275  2.2232
  125OSM    C1113301   1.444   3.893   6.096  0.0387  0.2842  0.0697
  125OSM   H11A13302   1.360   3.873   6.026 -1.0451  2.9576  0.4763
  125OSM   H11B13303   1.393   3.926   6.189  0.2142  0.6402  0.0436
  125OSM      P13304   1.584   3.739   6.251 -0.0336 -0.4430  0.1381
  125OSM    O1313305   1.717   3.681   6.211  0.6653 -0.7535 -1.0509
  125OSM    O1413306   1.583   3.868   6.326  0.7166 -0.6233 -0.6156
  125OSM    O1113307   1.490   3.631   6.327  0.4803 -0.4888 -0.5975
  125OSM    O1213308   1.511   3.767   6.114 -0.0971 -0.3091 -0.5936
  125OSM    C1S13309   1.519   3.595   6.464 -0.3197  0.0377  0.0779
  125OSM    H1S13310   1.628   3.592   6.485 -0.6329 -0.5308  1.8638
  125OSM    H1T13311   1.468   3.497   6.474 -1.5410  0.4700 -1.4450
  125OSM     NF13312   1.514   3.614   6.705  0.0929 -0.1599 -0.2987
  125OSM    HNF13313   1.466   3.538   6.749  1.5489 -1.0915 -0.2836
  125OSM    C2S13314   1.451   3.671   6.587  0.4878  0.2027  0.0321
  125OSM    H2S13315   1.473   3.780   6.590 -1.1816  0.5325  1.4394
  125OSM    C3S13316   1.300   3.662   6.569 -0.2774 -0.0367  0.3779
  125OSM    H3S13317   1.275   3.554   6.567 -0.0776 -0.0761 -0.1447
  125OSM     O313318   1.249   3.721   6.451  0.7145  0.4761  0.1690
  125OSM    HO313319   1.322   3.718   6.389  0.0746  1.2091 -0.6438
  125OSM    C4S13320   1.251   3.725   6.698  0.4487 -0.1100 -0.1896
  125OSM    H4S13321   1.248   3.654   6.781  0.8940  0.7609  0.5930
  125OSM    C5S13322   1.203   3.852   6.712  0.0838  0.4691 -0.2142
  125OSM    H5S13323   1.203   3.923   6.628  0.4276  0.2176 -0.4324
  125OSM    C6S13324   1.150   3.905   6.843 -0.1543  0.8860  0.2192
  125OSM    H6S13325   1.041   3.884   6.845  0.3288 -2.1294  1.0575
  125OSM    H6T13326   1.169   4.014   6.844  0.1227  0.8336  1.1662
  125OSM    C7S13327   1.209   3.831   6.965 -0.4150 -1.0160 -0.2884
  125OSM    H7S13328   1.318   3.855   6.966 -0.7060  0.4138  0.9066
  125OSM    H7T13329   1.174   3.725   6.961 -4.0166  0.0050  0.5160
  125OSM    C8S13330   1.160   3.896   7.104  0.2370  1.1203 -0.3603
  125OSM    H8S13331   1.052   3.877   7.119  0.2507  0.1456 -1.4205
  125OSM    H8T13332   1.181   4.005   7.116  0.9868  0.7482  2.4098
  125OSM    C9S13333   1.234   3.827   7.224 -0.8979  0.3341 -0.9060
  125OSM    H9S13334   1.344   3.835   7.207 -0.1781 -3.0315  1.2082
  125OSM    H9T13335   1.203   3.721   7.234  2.0352 -0.3970  2.3393
  125OSM   C10S13336   1.215   3.899   7.359  0.3233  0.1167  0.1296
  125OSM   H10S13337   1.210   4.009   7.346 -0.1175  0.2527  1.2777
  125OSM   H10T13338   1.308   3.883   7.418  1.4067 -0.4518 -1.6707
  125OSM   C11S13339   1.081   3.847   7.414 -0.0095  0.3999 -0.1484
  125OSM   H11S13340   1.077   3.737   7.422 -1.3358  0.2716 -1.8098
  125OSM   H11T13341   1.009   3.872   7.333 -0.9837 -0.5702  0.3893
  125OSM   C12S13342   1.049   3.909   7.549  1.2362 -0.2868  0.2949
  125OSM   H12S13343   0.946   3.871   7.564  1.4570 -1.5570 -1.2253
  125OSM   H12T13344   1.048   4.019   7.535  0.0263 -0.5826 -2.5584
  125OSM   C13S13345   1.135   3.869   7.666 -0.0116 -0.1977 -0.0540
  125OSM   H13S13346   1.244   3.884   7.653 -0.3280  0.6438 -2.2242
  125OSM   H13T13347   1.126   3.760   7.686  1.2267 -0.5359 -1.1859
  125OSM   C14S13348   1.084   3.930   7.798 -0.0029  0.0936  0.1417
  125OSM   H14S13349   1.120   4.035   7.807 -0.0285  0.0428  0.9709
  125OSM   H14T13350   1.128   3.869   7.880 -0.6069  1.3817  1.4851
  125OSM   C15S13351   0.930   3.918   7.820 -0.8399  0.0425  0.3143
  125OSM   H15S13352   0.917   3.809   7.804 -0.7520 -0.3408  2.5653
  125OSM   H15T13353   0.866   3.982   7.755 -0.2982 -0.4381 -0.7288
  125OSM   C16S13354   0.907   3.941   7.973  0.1773  0.4221 -0.7209
  125OSM   H16S13355   0.939   4.046   7.988 -2.2185  1.1378 -0.2942
  125OSM   H16T13356   0.973   3.874   8.032 -0.7332  0.8423  0.8263
  125OSM   C17S13357   0.765   3.928   8.028 -0.1758  0.3191  0.6114
  125OSM   H17S13358   0.745   3.824   8.060  0.2554  0.0816  0.1301
  125OSM   H17T13359   0.689   3.944   7.949  0.4403  1.7173  0.2715
  125OSM   C18S13360   0.713   4.019   8.139 -0.1551  0.1231  0.3610
  125OSM   H18S13361   0.782   4.016   8.226 -0.2480  1.9541  0.5354
  125OSM   H18T13362   0.612   3.994   8.178 -0.1823 -1.2658 -0.5327
  125OSM   H18U13363   0.716   4.122   8.098  4.2673 -0.1315 -0.4673
  125OSM    C1F13364   1.632   3.655   6.759  0.2458  0.2247  0.2454
  125OSM     OF13365   1.700   3.739   6.703 -0.0814  0.1594 -0.0399
  125OSM    C2F13366   1.672   3.589   6.896 -0.2760 -0.6550 -0.1044
  125OSM    H2F13367   1.638   3.483   6.894  0.8514 -1.0290 -1.3988
  125OSM    H2G13368   1.623   3.654   6.971  1.0726  1.2896 -0.8375
  125OSM    C3F13369   1.827   3.590   6.917  0.6052  0.4442 -0.4874
  125OSM    H3F13370   1.863   3.694   6.899 -0.7293  0.6267 -2.3462
  125OSM    H3G13371   1.879   3.525   6.842 -2.3594 -1.7679 -0.8057
  125OSM    C4F13372   1.868   3.552   7.061  0.2772 -0.0651  0.3582
  125OSM    H4F13373   1.864   3.449   7.101  3.0653 -0.0146  0.9708
  125OSM    H4G13374   1.818   3.621   7.133 -0.4627  0.9014 -1.0192
  125OSM    C5F13375   2.021   3.589   7.078 -0.1146  0.1595  0.7520
  125OSM    H5F13376   2.045   3.689   7.037  0.9616  0.9580  3.1996
  125OSM    H5G13377   2.075   3.509   7.022 -2.3378 -1.0915  0.2770
  125OSM    C6F13378   2.060   3.596   7.230 -0.2811  0.7844 -0.2001
  125OSM    H6F13379   2.039   3.496   7.274  0.1280  0.4371 -0.7842
  125OSM    H6G13380   1.992   3.665   7.285 -2.2141  1.8693 -3.6815
  125OSM    C7F13381   2.207   3.635   7.254 -0.0263  0.4936 -0.2589
  125OSM    H7F13382   2.233   3.733   7.209  1.5951  0.1589 -0.1412
  125OSM    H7G13383   2.261   3.554   7.200  1.1920  0.5425  0.8263
  125OSM    C8F13384   2.238   3.632   7.403  0.3551 -0.3955  0.6713
  125OSM    H8F13385   2.225   3.525   7.431  1.3134 -0.9535 -0.8922
  125OSM    H8G13386   2.167   3.695   7.460  1.4692 -0.9588  2.7918
  125OSM    C9F13387   2.381   3.681   7.418 -0.3514 -0.5651  0.1211
  125OSM    H9F13388   2.429   3.702   7.322 -1.0476  0.6256  0.0202
  125OSM   C10F13389   2.444   3.690   7.537  1.1568 -0.3350 -0.6866
  125OSM   H10F13390   2.549   3.723   7.543  2.0823 -3.2030  1.1326
  125OSM   C11F13391   2.377   3.652   7.669  1.1470  0.5248 -0.5019
  125OSM   H11F13392   2.430   3.556   7.690  0.9230  0.3080 -0.9089
  125OSM   H11G13393   2.272   3.625   7.646  1.1477 -0.1145  0.2151
  125OSM   C12F13394   2.393   3.749   7.784 -0.1614  0.5196 -0.1310
  125OSM   H12F13395   2.339   3.845   7.767  0.4767  0.7353 -1.0406
  125OSM   H12G13396   2.501   3.772   7.794  0.8071 -2.4458 -2.3075
  125OSM   C13F13397   2.338   3.681   7.908  0.8981 -0.0875 -0.1254
  125OSM   H13F13398   2.408   3.598   7.929 -1.2145 -2.3072 -1.2926
  125OSM   H13G13399   2.244   3.627   7.885  0.1745 -0.5333  3.2748
  125OSM   C14F13400   2.320   3.770   8.037  0.2411  0.5048 -0.1596
  125OSM   H14F13401   2.308   3.709   8.129 -0.9232  2.0644  0.7552
  125OSM   H14G13402   2.219   3.816   8.035 -0.5048 -0.8990  1.7725
  125OSM   C15F13403   2.433   3.869   8.070 -0.3282  0.3743 -0.1250
  125OSM   H15F13404   2.451   3.935   7.983 -0.7857  2.2440  1.1172
  125OSM   H15G13405   2.530   3.817   8.084 -1.1328 -0.5449  2.9156
  125OSM   C16F13406   2.415   3.945   8.198  0.3898 -0.0108  0.2986
  125OSM   H16F13407   2.425   3.877   8.285 -1.5952  0.6515  1.1043
  125OSM   H16G13408   2.310   3.982   8.194  0.8874  1.6298  1.3018
  125OSM   C17F13409   2.509   4.064   8.232  0.0669  0.4828 -0.0332
  125OSM   H17F13410   2.491   4.072   8.341 -1.2359  1.5224 -0.3027
  125OSM   H17G13411   2.479   4.158   8.181 -2.8934 -0.8794 -0.9862
  125OSM   C18F13412   2.655   4.031   8.210 -0.4255  0.2655 -0.2292
  125OSM   H18F13413   2.686   4.021   8.104  0.5835 -3.8633  0.2757
  125OSM   H18G13414   2.669   3.928   8.249  0.7150 -0.4117 -2.2694
  125OSM   H18H13415   2.716   4.105   8.265 -1.8779  0.9761  0.4949
  126OSM      N13416   5.588   1.442   6.371  0.4953  0.4361 -0.5204
  126OSM    C1513417   5.670   1.332   6.309  0.4568 -0.1325 -0.1809
  126OSM   H15A13418   5.747   1.379   6.250 -1.9578  2.7862 -1.2392
  126OSM   H15B13419   5.617   1.268   6.240  2.6581 -0.8311 -1.2918
  126OSM   H15C13420   5.710   1.278   6.394 -1.2506  0.1677  0.8751
  126OSM    C1413421   5.672   1.540   6.448  0.2410  0.1282  0.1523
  126OSM   H14A13422   5.754   1.572   6.386 -0.2507  1.6255  0.2348
  126OSM   H14B13423   5.700   1.487   6.538 -1.4226 -0.1402  0.5496
  126OSM   H14C13424   5.612   1.625   6.478 -1.0994 -1.4721  2.2932
  126OSM    C1313425   5.511   1.507   6.260 -0.3508  0.5549 -0.6942
  126OSM   H13A13426   5.441   1.437   6.217 -0.5831 -0.1564  0.7859
  126OSM   H13B13427   5.579   1.544   6.184 -0.0431 -2.0738 -1.8160
  126OSM   H13C13428   5.453   1.587   6.304  0.1749  0.8058 -0.4418
  126OSM    C1213429   5.496   1.374   6.474 -0.1189 -0.0568 -0.1934
  126OSM   H12A13430   5.442   1.296   6.423  1.5777 -1.4067  0.0100
  126OSM   H12B13431   5.415   1.441   6.500 -0.2934 -0.9406  1.6164
  126OSM    C1113432   5.549   1.309   6.612 -0.1316  0.2310 -0.7162
  126OSM   H11A13433   5.458   1.277   6.666  0.4314  1.3383  0.9382
  126OSM   H11B13434   5.604   1.386   6.670 -0.1781 -0.3364  0.1014
  126OSM      P13435   5.590   1.054   6.552  0.1177 -0.2610  0.2200
  126OSM    O1313436   5.465   1.062   6.476 -0.0150  0.4201  0.1633
  126OSM    O1413437   5.704   0.977   6.493  0.3320  0.4442 -0.2165
  126OSM    O1113438   5.562   1.012   6.702  0.3055  0.4202  0.0722
  126OSM    O1213439   5.638   1.199   6.580 -0.6610 -0.1152  0.1965
  126OSM    C1S13440   5.663   1.025   6.805  0.2084  0.4631  0.5501
  126OSM    H1S13441   5.761   1.052   6.761  0.4754 -0.2060  0.7243
  126OSM    H1T13442   5.673   0.927   6.855 -0.4226 -0.0708 -0.3345
  126OSM     NF13443   5.734   1.123   7.020 -0.9588 -0.0565  0.7748
  126OSM    HNF13444   5.704   1.085   7.107  0.8309  0.6045  1.7362
  126OSM    C2S13445   5.633   1.128   6.913 -0.1925 -0.2953 -0.9231
  126OSM    H2S13446   5.631   1.233   6.877 -1.5870 -0.4272 -1.2721
  126OSM    C3S13447   5.481   1.109   6.965  0.5647 -0.2655 -0.0143
  126OSM    H3S13448   5.463   0.999   6.967 -1.1713 -0.0501 -1.2081
  126OSM     O313449   5.389   1.147   6.861 -0.2762  0.1529 -0.3765
  126OSM    HO313450   5.431   1.109   6.784  1.0544 -1.2039  0.9536
  126OSM    C4S13451   5.448   1.181   7.092 -0.2804  0.1965  0.4942
  126OSM    H4S13452   5.473   1.119   7.179 -0.6390 -2.3146 -1.0832
  126OSM    C5S13453   5.402   1.309   7.102 -0.7336  0.3364 -0.2292
  126OSM    H5S13454   5.396   1.376   7.015 -0.8454 -0.0489 -0.5203
  126OSM    C6S13455   5.380   1.381   7.234  0.6415 -0.2720  0.2696
  126OSM    H6S13456   5.329   1.475   7.203 -0.9878 -0.9894  0.6519
  126OSM    H6T13457   5.471   1.402   7.294 -1.2219  1.6558  2.6028
  126OSM    C7S13458   5.280   1.312   7.330 -0.6384 -0.4967 -0.1676
  126OSM    H7S13459   5.328   1.219   7.367  1.6924  1.4928  2.1849
  126OSM    H7T13460   5.183   1.286   7.282 -0.4477  1.3667 -1.7174
  126OSM    C8S13461   5.246   1.406   7.445  0.3142  1.2144  0.1311
  126OSM    H8S13462   5.232   1.500   7.386 -0.4444 -0.1526 -1.9770
  126OSM    H8T13463   5.333   1.413   7.514 -0.6530  1.1428  1.3909
  126OSM    C9S13464   5.123   1.357   7.521 -0.2348  0.5542 -0.7560
  126OSM    H9S13465   5.131   1.247   7.517  0.6129  0.6453 -1.8655
  126OSM    H9T13466   5.031   1.389   7.467 -0.1359 -0.5236 -1.6004
  126OSM   C10S13467   5.120   1.426   7.657 -1.1365  0.1722  0.7042
  126OSM   H10S13468   5.106   1.532   7.627  1.0045  0.2115 -0.2867
  126OSM   H10T13469   5.219   1.423   7.707  0.1210  0.0253 -1.6447
  126OSM   C11S13470   5.000   1.395   7.753 -0.1035  0.1414 -0.8207
  126OSM   H11S13471   4.996   1.286   7.777  0.4887  0.6070  1.7552
  126OSM   H11T13472   4.904   1.419   7.703 -1.5272 -0.5602  1.3910
  126OSM   C12S13473   5.020   1.476   7.883 -0.3086 -0.2315 -0.8164
  126OSM   H12S13474   4.997   1.583   7.867 -1.1198 -0.2749 -0.0230
  126OSM   H12T13475   5.130   1.469   7.898 -0.1052 -0.6856 -2.3890
  126OSM   C13S13476   4.938   1.418   7.999 -1.2986  0.1402 -0.9240
  126OSM   H13S13477   4.969   1.312   8.012 -0.6212  0.5367  0.8810
  126OSM   H13T13478   4.830   1.435   7.981 -1.0845  2.3505 -0.3560
  126OSM   C14S13479   4.975   1.480   8.135 -0.0752  0.1739  0.7650
  126OSM   H14S13480   4.965   1.590   8.138  0.4163  0.1993  1.6330
  126OSM   H14T13481   5.085   1.470   8.147 -0.2992 -1.4106  1.8282
  126OSM   C15S13482   4.900   1.429   8.259  0.3656 -0.0458  0.3178
  126OSM   H15S13483   4.895   1.319   8.252 -1.8950  0.1075 -2.4106
  126OSM   H15T13484   4.797   1.470   8.249  0.0626 -0.7994  0.2972
  126OSM   C16S13485   4.971   1.484   8.390  0.4654 -0.3615  0.0557
  126OSM   H16S13486   4.982   1.594   8.383 -0.7084 -0.2933 -1.2568
  126OSM   H16T13487   5.074   1.445   8.379  1.4489  2.4839 -2.3187
  126OSM   C17S13488   4.901   1.443   8.517 -0.1932 -0.6533 -0.7422
  126OSM   H17S13489   4.889   1.333   8.515  1.0768 -0.8097 -0.6988
  126OSM   H17T13490   4.798   1.482   8.523 -0.4381 -1.4956  1.4187
  126OSM   C18S13491   4.980   1.484   8.644 -0.1474  0.3401  0.9970
  126OSM   H18S13492   5.082   1.439   8.643 -0.6408 -0.7965  0.6639
  126OSM   H18T13493   4.928   1.456   8.737 -0.9455 -3.8430 -0.5133
  126OSM   H18U13494   4.991   1.595   8.643 -2.8451  0.7174 -2.1459
  126OSM    C1F13495   5.866   1.143   7.004 -0.1099 -0.8419  0.1789
  126OSM     OF13496   5.919   1.163   6.899 -0.1595 -0.6138 -0.5296
  126OSM    C2F13497   5.947   1.116   7.124  1.1328  0.6198 -0.5501
  126OSM    H2F13498   5.944   1.009   7.152  0.3692  0.1376 -2.3306
  126OSM    H2G13499   5.896   1.164   7.210 -0.6055 -0.2450 -1.0586
  126OSM    C3F13500   6.096   1.157   7.119  0.2717  0.2670  0.7581
  126OSM    H3F13501   6.093   1.268   7.117 -2.1342  0.2511  0.5768
  126OSM    H3G13502   6.150   1.118   7.031  1.4232  2.1425  0.5701
  126OSM    C4F13503   6.186   1.105   7.241  0.0408  0.0335 -0.4438
  126OSM    H4F13504   6.294   1.129   7.228 -0.5216  2.1143 -1.7256
  126OSM    H4G13505   6.178   0.995   7.235  0.8004  0.0389 -1.7583
  126OSM    C5F13506   6.136   1.160   7.375 -0.2541  0.0687  1.1378
  126OSM    H5F13507   6.033   1.125   7.399  0.0046 -0.8760  0.9262
  126OSM    H5G13508   6.120   1.269   7.373  0.6081  0.1931 -0.1088
  126OSM    C6F13509   6.233   1.131   7.488 -0.3370 -0.0086 -0.2178
  126OSM    H6F13510   6.197   1.190   7.575 -0.5277  0.3502 -0.5376
  126OSM    H6G13511   6.339   1.144   7.458 -0.8013 -1.1643 -2.5925
  126OSM    C7F13512   6.212   0.990   7.542 -0.2225  1.4034 -1.1728
  126OSM    H7F13513   6.244   0.908   7.474  1.3670  2.1220 -1.3355
  126OSM    H7G13514   6.104   0.976   7.560  0.5268 -1.4525  2.2349
  126OSM    C8F13515   6.265   0.974   7.695 -0.1577 -0.0678 -0.8230
  126OSM    H8F13516   6.374   0.995   7.699 -0.2351  0.2714 -0.3634
  126OSM    H8G13517   6.267   0.865   7.718 -0.2430  0.3045  1.1243
  126OSM    C9F13518   6.196   1.054   7.795  0.4237 -0.0706 -0.1806
  126OSM    H9F13519   6.221   1.161   7.799 -1.1102  0.2888  0.3526
  126OSM   C10F13520   6.112   1.011   7.885  0.2269  0.0842 -0.3834
  126OSM   H10F13521   6.056   1.069   7.959 -0.0975 -2.8223  1.8398
  126OSM   C11F13522   6.067   0.869   7.893 -0.1416  0.5820  0.2656
  126OSM   H11F13523   6.156   0.804   7.904  2.0548  3.4819  0.8437
  126OSM   H11G13524   6.024   0.838   7.795 -0.9557 -1.2909  1.1599
  126OSM   C12F13525   5.963   0.835   8.002  0.5907  0.4290 -0.0775
  126OSM   H12F13526   5.873   0.896   7.979  3.0219  4.5509  0.2586
  126OSM   H12G13527   6.009   0.861   8.100 -0.5448 -0.9513  0.8613
  126OSM   C13F13528   5.932   0.683   8.004  0.2083  0.6278 -0.7000
  126OSM   H13F13529   6.015   0.621   8.045 -1.2772  0.8040  2.9961
  126OSM   H13G13530   5.889   0.648   7.908 -1.4421 -0.7283  0.4761
  126OSM   C14F13531   5.814   0.655   8.097 -0.4362  0.6997 -0.7249
  126OSM   H14F13532   5.732   0.730   8.085 -0.2923  1.3964  1.9697
  126OSM   H14G13533   5.853   0.677   8.199 -2.9710 -1.1139  0.7608
  126OSM   C15F13534   5.762   0.513   8.105 -0.4217  0.2230  0.9939
  126OSM   H15F13535   5.819   0.449   8.175 -0.9990 -0.6042  0.7210
  126OSM   H15G13536   5.763   0.460   8.007  0.8630  0.6820  0.7414
  126OSM   C16F13537   5.617   0.499   8.157  0.1633  0.0318 -0.4440
  126OSM   H16F13538   5.552   0.573   8.105  2.1248  2.9487  0.9786
  126OSM   H16G13539   5.628   0.530   8.263 -1.4126  0.8673 -0.4987
  126OSM   C17F13540   5.549   0.358   8.160 -0.8380  0.1846 -0.2869
  126OSM   H17F13541   5.458   0.366   8.222  0.4772  1.9807  1.4961
  126OSM   H17G13542   5.601   0.281   8.221 -2.9249 -1.1435 -0.0621
  126OSM   C18F13543   5.511   0.292   8.025  0.1940  0.0270 -0.2675
  126OSM   H18F13544   5.479   0.369   7.951  1.0472  1.8598  1.1949
  126OSM   H18G13545   5.438   0.211   8.044  0.0829  0.3644  0.8224
  126OSM   H18H13546   5.598   0.248   7.971 -0.2582 -0.4145 -0.6559
  127OSM      N13547   0.767   0.742   6.011  0.2075  0.1440  0.0115
  127OSM    C1513548   0.868   0.658   5.935  0.5760 -0.1705  0.0940
  127OSM   H15A13549   0.933   0.714   5.868  0.2731 -0.5703 -0.5389
  127OSM   H15B13550   0.811   0.591   5.873  1.1525  0.3644 -1.0618
  127OSM   H15C13551   0.918   0.596   6.008  1.9871  1.1495  0.2941
  127OSM    C1413552   0.710   0.842   5.915 -0.4416  0.2395  0.5886
  127OSM   H14A13553   0.784   0.882   5.848  0.2120 -2.9782 -0.8034
  127OSM   H14B13554   0.657   0.921   5.966 -0.8899  2.2266 -2.6757
  127OSM   H14C13555   0.631   0.799   5.855  1.0585  0.9732 -2.0632
  127OSM    C1313556   0.661   0.647   6.059 -0.2335 -0.3793  0.3875
  127OSM   H13A13557   0.575   0.689   6.110 -0.2984 -0.4430  0.3305
  127OSM   H13B13558   0.693   0.575   6.133  0.8217 -0.5967 -0.2674
  127OSM   H13C13559   0.614   0.595   5.977 -1.9070  0.2133  0.9066
  127OSM    C1213560   0.845   0.809   6.119  0.1212  0.9165 -0.5926
  127OSM   H12A13561   0.919   0.867   6.066 -1.2054  0.1075 -3.5403
  127OSM   H12B13562   0.895   0.734   6.179  2.7952  2.2525 -1.0100
  127OSM    C1113563   0.763   0.906   6.214 -0.2418 -0.8825 -0.3066
  127OSM   H11A13564   0.816   0.926   6.309 -2.3299  0.0489  0.7078
  127OSM   H11B13565   0.675   0.857   6.259  0.1219 -1.1000  0.1731
  127OSM      P13566   0.805   1.146   6.093 -0.2635  0.5417 -0.0691
  127OSM    O1313567   0.917   1.090   6.014 -0.1910 -0.0923  0.8427
  127OSM    O1413568   0.722   1.250   6.028 -0.1065 -0.2875 -0.5315
  127OSM    O1113569   0.853   1.206   6.237  0.4099  0.5319 -0.6103
  127OSM    O1213570   0.718   1.025   6.139 -0.7097  0.4480 -0.2751
  127OSM    C1S13571   0.782   1.217   6.359 -0.1935  0.3637 -0.6492
  127OSM    H1S13572   0.716   1.128   6.366 -1.3934  0.9988 -2.8636
  127OSM    H1T13573   0.709   1.301   6.360  0.4002  0.9574 -2.7052
  127OSM     NF13574   0.792   1.234   6.603  0.9157  0.4759  0.0697
  127OSM    HNF13575   0.783   1.325   6.643  0.1507  0.7118 -0.6162
  127OSM    C2S13576   0.875   1.226   6.483 -0.5162 -0.4286 -0.1704
  127OSM    H2S13577   0.944   1.139   6.482  0.5508  0.3341  1.9917
  127OSM    C3S13578   0.971   1.349   6.468 -0.4490 -0.1583  0.0508
  127OSM    H3S13579   0.915   1.438   6.432  0.7220  0.4875 -0.2175
  127OSM     O313580   1.061   1.325   6.356  0.0346 -0.6258 -0.4752
  127OSM    HO313581   1.014   1.281   6.284 -2.4288  0.0365  0.6567
  127OSM    C4S13582   1.050   1.377   6.589  0.2010 -0.1288  0.8936
  127OSM    H4S13583   1.008   1.451   6.659  1.3075  1.9657 -0.5536
  127OSM    C5S13584   1.169   1.325   6.626  0.3271  0.0983  0.0673
  127OSM    H5S13585   1.213   1.247   6.562 -1.9884 -0.8322 -0.4971
  127OSM    C6S13586   1.238   1.366   6.752  0.0389 -0.6047  0.3236
  127OSM    H6S13587   1.236   1.476   6.767 -1.5473 -0.7650  1.5430
  127OSM    H6T13588   1.344   1.333   6.751 -0.6673 -3.0828  0.2104
  127OSM    C7S13589   1.174   1.306   6.880 -0.0481  0.9521  0.1098
  127OSM    H7S13590   1.178   1.195   6.888 -0.0201  0.9389 -0.0966
  127OSM    H7T13591   1.069   1.341   6.892  0.2008  1.6004  0.4511
  127OSM    C8S13592   1.227   1.365   7.012  0.7685  0.1793 -0.0766
  127OSM    H8S13593   1.227   1.476   7.016  2.0314  0.1580  2.6212
  127OSM    H8T13594   1.328   1.323   7.030  0.2424 -0.5356  1.4288
  127OSM    C9S13595   1.146   1.323   7.136 -0.0230  0.3826 -0.2773
  127OSM    H9S13596   1.180   1.219   7.158 -0.8147  0.4433  1.3876
  127OSM    H9T13597   1.036   1.321   7.125 -0.3010  2.8554  1.4501
  127OSM   C10S13598   1.181   1.413   7.255 -0.4189  0.1071 -0.4139
  127OSM   H10S13599   1.120   1.506   7.248  1.2447  1.3439  0.7430
  127OSM   H10T13600   1.290   1.431   7.248 -0.1613 -1.0932  0.1969
  127OSM   C11S13601   1.159   1.344   7.387  0.5175  0.3708 -0.1074
  127OSM   H11S13602   1.219   1.252   7.405 -0.7321 -0.4404  0.0174
  127OSM   H11T13603   1.053   1.312   7.399  0.7436 -0.3324  0.0470
  127OSM   C12S13604   1.197   1.412   7.519 -0.3779  0.1364  0.4417
  127OSM   H12S13605   1.145   1.507   7.543  1.4693  0.9346  1.4589
  127OSM   H12T13606   1.301   1.451   7.518  0.0727 -1.0163 -0.8861
  127OSM   C13S13607   1.178   1.317   7.638  0.3251  0.0086  0.2666
  127OSM   H13S13608   1.244   1.229   7.622 -0.0024 -0.0384 -0.8838
  127OSM   H13T13609   1.072   1.283   7.629 -0.3067  2.3531 -2.2712
  127OSM   C14S13610   1.204   1.381   7.775  0.7841  0.0224  0.7163
  127OSM   H14S13611   1.139   1.471   7.785  0.4005  0.0706 -1.7166
  127OSM   H14T13612   1.312   1.404   7.781  1.3225 -2.1618  0.0452
  127OSM   C15S13613   1.164   1.278   7.888 -0.6303 -0.4449  0.2343
  127OSM   H15S13614   1.242   1.199   7.879 -0.7080 -1.2969  4.9359
  127OSM   H15T13615   1.060   1.248   7.867 -0.8998  1.3777 -1.4324
  127OSM   C16S13616   1.171   1.345   8.025 -0.3339 -0.2724  0.0140
  127OSM   H16S13617   1.098   1.423   8.051  2.6860  2.0250  2.4053
  127OSM   H16T13618   1.255   1.418   8.021 -2.0539  1.7252 -0.9263
  127OSM   C17S13619   1.190   1.244   8.135 -0.1769  0.3407 -0.1676
  127OSM   H17S13620   1.256   1.161   8.103  1.5834  1.5253  0.2653
  127OSM   H17T13621   1.090   1.197   8.152 -1.7224  2.1962 -3.2537
  127OSM   C18S13622   1.227   1.312   8.266  0.4849  0.3847  0.0364
  127OSM   H18S13623   1.145   1.386   8.282  1.9904  2.2827 -0.6698
  127OSM   H18T13624   1.331   1.350   8.257  0.3854  0.3437 -1.5788
  127OSM   H18U13625   1.240   1.242   8.351 -1.9723  0.1132  0.2589
  127OSM    C1F13626   0.713   1.132   6.651 -0.2055  0.1540  0.0341
  127OSM     OF13627   0.704   1.026   6.599  0.5788  0.8447 -0.1967
  127OSM    C2F13628   0.625   1.166   6.776 -0.2833 -0.3622 -0.8673
  127OSM    H2F13629   0.538   1.098   6.761  0.6672 -1.2710 -2.5379
  127OSM    H2G13630   0.587   1.270   6.771  0.9147  0.3725  2.3279
  127OSM    C3F13631   0.692   1.141   6.906 -0.1084  0.5151 -1.2864
  127OSM    H3F13632   0.783   1.204   6.917 -1.6319  2.5307  0.7128
  127OSM    H3G13633   0.725   1.035   6.908  1.3020  0.9246 -1.5433
  127OSM    C4F13634   0.615   1.170   7.040 -0.4798 -0.1569  0.2169
  127OSM    H4F13635   0.518   1.116   7.037  0.3284 -1.7187  0.9147
  127OSM    H4G13636   0.589   1.278   7.038  0.8442  0.1676 -0.3433
  127OSM    C5F13637   0.702   1.137   7.158  0.0679 -0.1532  0.5194
  127OSM    H5F13638   0.800   1.188   7.149 -0.4495  0.5273 -3.3425
  127OSM    H5G13639   0.720   1.028   7.160 -0.2114 -0.3019 -1.8332
  127OSM    C6F13640   0.630   1.176   7.289  0.4178  0.7699  0.1174
  127OSM    H6F13641   0.531   1.134   7.315  0.2920  0.4663 -0.8530
  127OSM    H6G13642   0.611   1.285   7.296 -1.7848  0.4866 -0.8856
  127OSM    C7F13643   0.727   1.149   7.407  0.8238  0.0677  0.1391
  127OSM    H7F13644   0.812   1.218   7.391  1.1832  0.0420  1.8020
  127OSM    H7G13645   0.769   1.046   7.400 -2.3024 -1.2840 -1.0970
  127OSM    C8F13646   0.664   1.171   7.546 -0.1813  0.0269  0.1316
  127OSM    H8F13647   0.740   1.123   7.612 -0.9871 -1.1619  0.2302
  127OSM    H8G13648   0.573   1.107   7.551 -0.3307  0.3032  1.2781
  127OSM    C9F13649   0.643   1.313   7.603  0.1783 -0.0835 -0.3906
  127OSM    H9F13650   0.600   1.378   7.525  0.3093 -0.9229 -1.1799
  127OSM   C10F13651   0.679   1.356   7.723 -0.0864 -0.2252 -0.3492
  127OSM   H10F13652   0.651   1.457   7.757 -2.8961 -0.5065 -1.5867
  127OSM   C11F13653   0.758   1.284   7.823 -0.5418 -0.2674  0.3831
  127OSM   H11F13654   0.844   1.349   7.850 -0.4226  0.1494 -0.9217
  127OSM   H11G13655   0.809   1.193   7.783  0.8063 -0.1895  1.8156
  127OSM   C12F13656   0.678   1.253   7.950 -0.7544 -0.7700 -0.5607
  127OSM   H12F13657   0.619   1.160   7.941 -0.2928 -1.1003 -0.2218
  127OSM   H12G13658   0.604   1.334   7.969 -1.9387 -1.6185 -1.4396
  127OSM   C13F13659   0.792   1.254   8.062  0.2870 -0.1337  0.4691
  127OSM   H13F13660   0.846   1.351   8.056 -2.2592  1.3946  0.2768
  127OSM   H13G13661   0.865   1.173   8.043  2.4070  0.9528  3.4148
  127OSM   C14F13662   0.745   1.236   8.211 -0.6650  0.2002  0.6005
  127OSM   H14F13663   0.687   1.142   8.220 -0.8870  0.4242  1.7696
  127OSM   H14G13664   0.671   1.314   8.240 -1.0370  0.0787 -0.0076
  127OSM   C15F13665   0.858   1.223   8.313 -0.1496  0.4148 -0.2211
  127OSM   H15F13666   0.905   1.323   8.325  2.4411 -0.9671  2.3175
  127OSM   H15G13667   0.929   1.150   8.270  0.9311  1.1644  0.2446
  127OSM   C16F13668   0.806   1.176   8.444  0.9121 -0.1474 -0.0393
  127OSM   H16F13669   0.764   1.074   8.432  0.4959 -0.0499  0.5565
  127OSM   H16G13670   0.728   1.250   8.471 -0.2791 -1.2680 -0.2992
  127OSM   C17F13671   0.903   1.161   8.555  0.2185  0.4895  0.0329
  127OSM   H17F13672   0.967   1.084   8.506 -1.0547 -0.0355 -0.8567
  127OSM   H17G13673   0.857   1.116   8.645 -0.9155  0.9872 -0.2842
  127OSM   C18F13674   0.975   1.292   8.583 -0.1137  0.5610  0.9980
  127OSM   H18F13675   1.045   1.277   8.667  0.7682  0.2979  0.2341
  127OSM   H18G13676   0.901   1.374   8.600 -2.0229 -1.4488  3.0340
  127OSM   H18H13677   1.037   1.315   8.494  1.3664 -0.6841  1.6628
  128OSM      N13678   3.773   1.715   5.890  0.4231 -0.3216 -0.1231
  128OSM    C1513679   3.839   1.580   5.899  0.1516 -0.4991 -0.3536
  128OSM   H15A13680   3.791   1.515   5.971 -0.5205 -0.0178 -0.3594
  128OSM   H15B13681   3.946   1.591   5.912  0.4866 -1.6208 -1.8264
  128OSM   H15C13682   3.828   1.528   5.805 -0.5610 -0.7057 -0.1647
  128OSM    C1413683   3.846   1.793   5.777  0.5055  0.7291 -0.2979
  128OSM   H14A13684   3.954   1.800   5.780  0.5359  0.8397 -1.3340
  128OSM   H14B13685   3.809   1.893   5.791  3.4368  1.7254  1.1030
  128OSM   H14C13686   3.817   1.754   5.681 -1.3767  1.4545 -0.0595
  128OSM    C1313687   3.629   1.693   5.843  0.1585  0.3639 -0.0454
  128OSM   H13A13688   3.580   1.774   5.790 -2.3220 -0.7341  0.4170
  128OSM   H13B13689   3.570   1.665   5.930  0.0217 -2.9166 -1.0577
  128OSM   H13C13690   3.621   1.607   5.778 -1.1753  0.6308 -0.2612
  128OSM    C1213691   3.790   1.794   6.023 -0.3932 -0.2762 -0.0324
  128OSM   H12A13692   3.750   1.891   5.998 -0.3827 -0.0052  0.9549
  128OSM   H12B13693   3.892   1.820   6.047 -1.2341  1.9061  1.5158
  128OSM    C1113694   3.709   1.756   6.157  0.0857  0.7541  0.5440
  128OSM   H11A13695   3.734   1.825   6.240  0.5712  0.6245  0.5088
  128OSM   H11B13696   3.751   1.658   6.190  1.8019  0.8505 -1.1803
  128OSM      P13697   3.485   1.886   6.160 -0.1862 -0.1584  0.2148
  128OSM    O1313698   3.551   1.991   6.082 -0.4328  0.0261 -0.2520
  128OSM    O1413699   3.341   1.868   6.133  0.0638 -0.1999  0.0930
  128OSM    O1113700   3.513   1.908   6.312 -0.3429  0.0556 -0.5648
  128OSM    O1213701   3.564   1.753   6.130 -0.6828  0.0552  0.2789
  128OSM    C1S13702   3.481   1.805   6.405  0.1707  0.7531  0.4618
  128OSM    H1S13703   3.554   1.722   6.396  1.8617  2.3416 -1.5263
  128OSM    H1T13704   3.377   1.774   6.382  0.4033  0.3410 -0.0549
  128OSM     NF13705   3.439   1.759   6.637  0.2117  0.5198 -0.2911
  128OSM    HNF13706   3.346   1.732   6.663  0.3411  0.0924 -0.2580
  128OSM    C2S13707   3.466   1.864   6.546 -0.2903  0.2198 -0.6799
  128OSM    H2S13708   3.556   1.922   6.576 -0.2731 -0.1127 -0.0663
  128OSM    C3S13709   3.348   1.974   6.545 -0.2240  0.8933 -0.0946
  128OSM    H3S13710   3.251   1.921   6.532  0.3387 -1.0480  2.6536
  128OSM     O313711   3.340   2.065   6.433 -0.5120 -0.2547 -0.1311
  128OSM    HO313712   3.372   2.014   6.358 -1.3953 -0.1687 -0.5846
  128OSM    C4S13713   3.346   2.049   6.677 -0.3954  0.3911 -0.2130
  128OSM    H4S13714   3.294   1.988   6.752 -0.2446 -1.4378 -1.5305
  128OSM    C5S13715   3.414   2.168   6.710  0.7179  0.4275  0.5811
  128OSM    H5S13716   3.473   2.224   6.637  1.1308  1.5084  1.7051
  128OSM    C6S13717   3.410   2.227   6.846 -0.1919  0.3699 -0.1395
  128OSM    H6S13718   3.335   2.309   6.847 -0.3419  0.2517 -1.0582
  128OSM    H6T13719   3.503   2.283   6.869  0.0597 -0.0567 -0.1187
  128OSM    C7S13720   3.381   2.130   6.963 -0.4653 -0.2720 -0.2380
  128OSM    H7S13721   3.455   2.049   6.975 -0.5898 -0.1699  1.5690
  128OSM    H7T13722   3.277   2.094   6.949 -1.3502  2.5040 -1.6445
  128OSM    C8S13723   3.385   2.194   7.106  0.1520 -0.1714 -0.7210
  128OSM    H8S13724   3.336   2.294   7.111 -1.1819 -0.8517  0.5838
  128OSM    H8T13725   3.492   2.219   7.120  0.4461 -1.3968 -0.7402
  128OSM    C9S13726   3.329   2.103   7.220 -0.1928  0.2530  0.5604
  128OSM    H9S13727   3.378   2.006   7.198 -0.4371  0.7337 -2.5792
  128OSM    H9T13728   3.220   2.084   7.209  0.0478 -0.9567  0.1450
  128OSM   C10S13729   3.362   2.143   7.366 -0.3594  0.2625  0.0946
  128OSM   H10S13730   3.305   2.235   7.391  0.1075  0.7304 -0.5176
  128OSM   H10T13731   3.469   2.163   7.389  0.2234 -1.6684 -0.7623
  128OSM   C11S13732   3.317   2.041   7.468 -0.2889 -0.4155 -0.1732
  128OSM   H11S13733   3.376   1.948   7.454  0.2760 -0.3854  1.7733
  128OSM   H11T13734   3.211   2.016   7.444  0.0149 -3.1787  1.0205
  128OSM   C12S13735   3.320   2.090   7.615  0.3633  0.0162  0.2653
  128OSM   H12S13736   3.263   2.184   7.629  0.9557  0.4471 -0.1747
  128OSM   H12T13737   3.422   2.134   7.616  1.8415 -2.9206 -2.3215
  128OSM   C13S13738   3.328   1.977   7.724 -0.1497 -0.2683 -0.5647
  128OSM   H13S13739   3.416   1.914   7.698 -0.0271  0.6221 -2.5297
  128OSM   H13T13740   3.237   1.914   7.710 -0.8171  1.0058 -2.4665
  128OSM   C14S13741   3.335   2.036   7.865  0.3120  0.1142  0.5421
  128OSM   H14S13742   3.246   2.100   7.887  1.1407  1.5356 -0.1207
  128OSM   H14T13743   3.431   2.091   7.874 -0.2395  1.2106  0.0471
  128OSM   C15S13744   3.343   1.931   7.974 -0.0100 -0.7656  0.3662
  128OSM   H15S13745   3.440   1.876   7.969  0.2169 -0.4070  0.7672
  128OSM   H15T13746   3.269   1.848   7.966 -0.9295 -0.1455  1.9078
  128OSM   C16S13747   3.339   2.003   8.111  0.6893 -0.3000 -0.3088
  128OSM   H16S13748   3.231   2.027   8.115  0.9910  1.4957 -1.5318
  128OSM   H16T13749   3.389   2.102   8.106 -3.0336  2.0498  3.1635
  128OSM   C17S13750   3.376   1.931   8.239  0.0587  0.0584  0.3825
  128OSM   H17S13751   3.355   2.001   8.323 -1.7326  0.2748 -0.2193
  128OSM   H17T13752   3.484   1.905   8.229  0.1643  0.5997  0.1090
  128OSM   C18S13753   3.294   1.807   8.274  0.9961 -0.0684 -0.6924
  128OSM   H18S13754   3.308   1.728   8.197 -3.7480 -1.6468 -0.2867
  128OSM   H18T13755   3.186   1.828   8.258  1.4287  1.3154 -2.0304
  128OSM   H18U13756   3.299   1.768   8.378 -2.4939 -0.2479 -0.4787
  128OSM    C1F13757   3.534   1.669   6.674  0.3303  0.3620 -0.3321
  128OSM     OF13758   3.651   1.685   6.647 -0.5223 -0.1073  0.3335
  128OSM    C2F13759   3.476   1.552   6.756 -0.6620  0.3182  0.0272
  128OSM    H2F13760   3.406   1.493   6.694  0.3240 -0.5513 -0.2811
  128OSM    H2G13761   3.418   1.605   6.835 -0.3437  2.6381 -1.1986
  128OSM    C3F13762   3.584   1.459   6.806  0.4850  0.7882 -0.0769
  128OSM    H3F13763   3.645   1.423   6.721  1.1573 -0.4217  0.8787
  128OSM    H3G13764   3.526   1.373   6.844  0.9688  0.9691  1.1227
  128OSM    C4F13765   3.678   1.514   6.920  0.3923 -0.0198 -0.0187
  128OSM    H4F13766   3.715   1.611   6.880  0.1461  0.5020  0.9743
  128OSM    H4G13767   3.767   1.451   6.942 -1.0552 -1.5911  1.6292
  128OSM    C5F13768   3.595   1.538   7.048 -0.5448 -0.3399 -0.3324
  128OSM    H5F13769   3.551   1.448   7.097  1.5564 -0.2818  1.8710
  128OSM    H5G13770   3.509   1.593   7.005  1.0207  1.3201 -1.5239
  128OSM    C6F13771   3.669   1.618   7.158 -0.4050  0.0004 -0.3596
  128OSM    H6F13772   3.740   1.692   7.116  3.2265 -3.2903 -0.5653
  128OSM    H6G13773   3.728   1.549   7.222 -1.9255 -0.5153  0.5359
  128OSM    C7F13774   3.572   1.699   7.242 -0.4704 -0.0170  0.1422
  128OSM    H7F13775   3.518   1.766   7.172 -1.1280  0.4979  1.1234
  128OSM    H7G13776   3.628   1.756   7.318  1.4703 -0.2413 -1.0536
  128OSM    C8F13777   3.461   1.622   7.317  0.4344 -0.0770 -0.2615
  128OSM    H8F13778   3.388   1.591   7.240 -0.0226 -0.1773  0.2094
  128OSM    H8G13779   3.409   1.707   7.366  2.9916  0.5845  1.5763
  128OSM    C9F13780   3.511   1.505   7.399  0.7133 -0.8680  0.0816
  128OSM    H9F13781   3.571   1.435   7.340 -1.7292 -0.3854 -3.2357
  128OSM   C10F13782   3.478   1.481   7.527 -0.3683  0.0721 -0.0150
  128OSM   H10F13783   3.500   1.377   7.557 -1.5327 -0.8163 -1.9796
  128OSM   C11F13784   3.395   1.559   7.619 -0.1097  0.1108  0.4208
  128OSM   H11F13785   3.292   1.519   7.612  1.0795 -3.2021  0.1857
  128OSM   H11G13786   3.382   1.666   7.590 -0.2325  0.2828  1.1041
  128OSM   C12F13787   3.427   1.575   7.766  0.1023  0.3767 -0.7352
  128OSM   H12F13788   3.384   1.672   7.799  0.5798  1.1438 -2.2415
  128OSM   H12G13789   3.537   1.574   7.783 -0.3451  1.4304  3.2079
  128OSM   C13F13790   3.367   1.466   7.861 -0.4403 -0.2598  0.0975
  128OSM   H13F13791   3.381   1.361   7.826  2.3940 -0.5009  1.6707
  128OSM   H13G13792   3.256   1.479   7.865 -0.3802  0.2193  3.5774
  128OSM   C14F13793   3.430   1.487   8.004 -0.3780  0.3069 -0.2485
  128OSM   H14F13794   3.402   1.589   8.039  0.0970  0.4474 -0.2748
  128OSM   H14G13795   3.540   1.478   7.998 -0.3513  1.1500 -1.3262
  128OSM   C15F13796   3.389   1.394   8.112  0.5455 -0.2744  0.1468
  128OSM   H15F13797   3.427   1.292   8.089 -2.4909 -1.6888  0.7721
  128OSM   H15G13798   3.277   1.398   8.113  0.5772  1.2163  0.6826
  128OSM   C16F13799   3.436   1.439   8.245  0.1033 -0.1094  0.4055
  128OSM   H16F13800   3.414   1.545   8.268 -0.9127 -0.0217 -0.8817
  128OSM   H16G13801   3.546   1.434   8.233  0.1746  2.4393 -0.5002
  128OSM   C17F13802   3.402   1.340   8.364 -0.2017 -0.4437  0.3514
  128OSM   H17F13803   3.487   1.345   8.435  1.8149 -3.1510 -1.7084
  128OSM   H17G13804   3.401   1.233   8.336  1.0464 -0.2314 -0.5863
  128OSM   C18F13805   3.270   1.369   8.430 -0.8037 -0.0382  0.7368
  128OSM   H18F13806   3.268   1.465   8.486  1.0599  0.7360 -0.4144
  128OSM   H18G13807   3.247   1.288   8.502  0.7828 -0.9025  0.3343
  128OSM   H18H13808   3.184   1.376   8.360 -0.3781 -2.0036 -0.0660
  129OSM      N13809   0.316   1.165   6.115 -0.1971 -0.0790  0.5721
  129OSM    C1513810   0.210   1.268   6.155  0.5104 -0.1659  0.2341
  129OSM   H15A13811   0.238   1.372   6.157 -1.0353  0.2801  0.3644
  129OSM   H15B13812   0.165   1.239   6.249  3.3617 -3.3642  0.7931
  129OSM   H15C13813   0.133   1.253   6.080  0.2446 -0.7873  0.6287
  129OSM    C1413814   0.401   1.227   6.006 -0.2031  0.3124  0.7039
  129OSM   H14A13815   0.465   1.157   5.955 -0.6131  1.0273 -0.8491
  129OSM   H14B13816   0.468   1.306   6.037 -0.0824  0.3729  0.2971
  129OSM   H14C13817   0.336   1.275   5.934 -0.7451 -0.5611  0.5952
  129OSM    C1313818   0.396   1.151   6.237  0.1844  0.1349  0.3500
  129OSM   H13A13819   0.355   1.071   6.298  1.0328 -1.3214 -0.9155
  129OSM   H13B13820   0.405   1.241   6.295  0.4631  0.3552 -0.0344
  129OSM   H13C13821   0.495   1.116   6.210  0.9752  0.8261  2.1724
  129OSM    C1213822   0.245   1.040   6.079  0.6092  0.2377 -0.0253
  129OSM   H12A13823   0.195   1.008   6.169  1.1967  1.1267  0.6302
  129OSM   H12B13824   0.314   0.961   6.051 -0.5568 -0.4419 -1.1344
  129OSM    C1113825   0.141   1.046   5.961  0.2206  0.2093 -0.2580
  129OSM   H11A13826   0.121   0.945   5.919 -1.1903 -0.4672  1.8433
  129OSM   H11B13827   0.195   1.095   5.878 -0.0598  1.7579  0.4313
  129OSM      P13828  -0.103   1.053   6.049  0.1956  0.2798 -0.0130
  129OSM    O1313829  -0.216   1.149   6.034  0.0785  0.0728  0.3917
  129OSM    O1413830  -0.133   0.914   5.998 -0.5736  0.4905 -0.3085
  129OSM    O1113831  -0.064   1.058   6.198  0.4248  0.9372 -0.4037
  129OSM    O1213832   0.026   1.114   5.989  0.3819 -0.1308  0.4894
  129OSM    C1S13833  -0.133   1.136   6.298 -0.3500  0.0381  1.1145
  129OSM    H1S13834  -0.243   1.129   6.281 -0.8760  0.4995  3.9140
  129OSM    H1T13835  -0.097   1.241   6.298  0.9605 -0.3886  0.5203
  129OSM     NF13836  -0.197   1.179   6.527 -0.4705  0.1548  0.0952
  129OSM    HNF13837  -0.151   1.248   6.583  1.6189 -2.0051  1.2285
  129OSM    C2S13838  -0.124   1.079   6.444  0.4012  0.0131 -0.1934
  129OSM    H2S13839  -0.182   0.984   6.447 -1.0897  0.9141  1.5202
  129OSM    C3S13840   0.028   1.059   6.468  0.2989  0.0364 -0.4522
  129OSM    H3S13841   0.089   1.149   6.446  1.1202 -0.7742 -1.5656
  129OSM     O313842   0.092   0.964   6.388  0.6170 -0.8994 -0.8179
  129OSM    HO313843   0.031   0.946   6.316  0.4523 -1.3651 -0.5648
  129OSM    C4S13844   0.048   1.010   6.609  0.1000 -0.0404 -0.2679
  129OSM    H4S13845   0.050   0.900   6.606 -1.2315 -0.1206 -4.0303
  129OSM    C5S13846   0.076   1.089   6.719 -0.1116  0.1404  1.0192
  129OSM    H5S13847   0.106   1.192   6.695  0.3157  0.2090  1.8053
  129OSM    C6S13848   0.104   1.046   6.857  0.1783 -0.7674 -0.6396
  129OSM    H6S13849   0.078   0.938   6.868  0.2826 -0.5369  3.1169
  129OSM    H6T13850   0.039   1.092   6.935  0.8546  0.6154 -0.8633
  129OSM    C7S13851   0.245   1.066   6.908 -0.3102 -0.3477  0.1804
  129OSM    H7S13852   0.279   1.171   6.899  0.6063 -0.7056 -0.8005
  129OSM    H7T13853   0.308   0.996   6.849 -0.9542 -0.9776  0.2284
  129OSM    C8S13854   0.267   1.005   7.047 -0.1823 -0.3974  0.0831
  129OSM    H8S13855   0.372   0.970   7.058 -0.4638 -0.8284  1.5468
  129OSM    H8T13856   0.198   0.919   7.053 -0.3634 -0.5074 -2.5041
  129OSM    C9S13857   0.246   1.104   7.160 -0.5648  0.7995  1.0536
  129OSM    H9S13858   0.139   1.133   7.152 -0.2288  2.0681  0.9032
  129OSM    H9T13859   0.310   1.192   7.140  0.2066  0.1755  0.7394
  129OSM   C10S13860   0.273   1.034   7.295 -0.0647  0.0008  0.3938
  129OSM   H10S13861   0.380   1.002   7.302 -0.2479 -0.9598 -0.8527
  129OSM   H10T13862   0.205   0.947   7.305 -1.1535  0.6814 -0.8549
  129OSM   C11S13863   0.248   1.130   7.411  0.7795 -0.1141 -0.9980
  129OSM   H11S13864   0.142   1.164   7.410  0.9550  0.4742 -0.4823
  129OSM   H11T13865   0.312   1.219   7.401  2.6817 -1.1375  1.2299
  129OSM   C12S13866   0.272   1.062   7.550  0.1650 -0.0600  0.7861
  129OSM   H12S13867   0.368   1.007   7.540  0.2289 -0.2001  2.0379
  129OSM   H12T13868   0.192   0.988   7.572 -2.9992  2.3476 -1.6540
  129OSM   C13S13869   0.278   1.162   7.662 -0.1963  0.0174 -0.6463
  129OSM   H13S13870   0.180   1.215   7.661  0.5473  1.4728  0.3605
  129OSM   H13T13871   0.340   1.250   7.637 -0.6402  1.4063  2.5762
  129OSM   C14S13872   0.312   1.109   7.808 -0.5121 -0.7285 -0.8698
  129OSM   H14S13873   0.422   1.108   7.795 -0.2001  1.4282  1.0230
  129OSM   H14T13874   0.262   1.011   7.822 -0.7076 -0.5589 -0.3386
  129OSM   C15S13875   0.261   1.197   7.924 -0.2169  0.0885  0.2492
  129OSM   H15S13876   0.152   1.215   7.909 -0.2633 -1.0695 -0.8996
  129OSM   H15T13877   0.309   1.297   7.917  2.2350 -0.9473  1.2995
  129OSM   C16S13878   0.284   1.150   8.068 -0.2164  0.0336 -1.1592
  129OSM   H16S13879   0.394   1.144   8.079 -0.3744  1.0387  1.9170
  129OSM   H16T13880   0.231   1.054   8.089 -0.9685  0.7092  0.1542
  129OSM   C17S13881   0.220   1.244   8.172 -0.2147  0.2685 -0.8422
  129OSM   H17S13882   0.205   1.186   8.266 -0.5331 -0.1101 -1.1248
  129OSM   H17T13883   0.120   1.269   8.130 -0.5841 -0.3490 -0.3581
  129OSM   C18S13884   0.284   1.379   8.191 -1.1908  0.3735  0.3247
  129OSM   H18S13885   0.390   1.382   8.224 -1.0251 -0.4713 -0.1142
  129OSM   H18T13886   0.223   1.436   8.264 -1.6896 -2.1347  1.9569
  129OSM   H18U13887   0.283   1.432   8.093  0.8279 -0.7908 -0.3923
  129OSM    C1F13888  -0.329   1.168   6.518  0.1876 -0.6506 -0.1940
  129OSM     OF13889  -0.387   1.076   6.472  0.5907 -0.0022  0.7961
  129OSM    C2F13890  -0.407   1.287   6.565  0.3510 -0.6757 -0.2676
  129OSM    H2F13891  -0.488   1.316   6.495  0.5905  1.7925  0.4149
  129OSM    H2G13892  -0.339   1.373   6.572  1.3931 -1.5758  1.4786
  129OSM    C3F13893  -0.459   1.268   6.714 -0.6107 -0.3653  0.5273
  129OSM    H3F13894  -0.377   1.221   6.773  1.4323  2.1120 -0.1677
  129OSM    H3G13895  -0.543   1.196   6.705  0.6291 -1.9315  0.9258
  129OSM    C4F13896  -0.497   1.402   6.783  0.0819  0.1782 -0.1819
  129OSM    H4F13897  -0.594   1.432   6.740  0.5390  0.7090 -0.8711
  129OSM    H4G13898  -0.423   1.480   6.757  0.1556  0.2336  0.1790
  129OSM    C5F13899  -0.520   1.396   6.936 -0.6158  0.1389  0.3050
  129OSM    H5F13900  -0.420   1.378   6.981  0.4468  0.8526 -1.6857
  129OSM    H5G13901  -0.588   1.310   6.958  1.0502 -1.8159 -1.7657
  129OSM    C6F13902  -0.565   1.536   6.983  0.4243 -0.2806 -0.1873
  129OSM    H6F13903  -0.646   1.580   6.922  1.2970  1.0138 -0.4501
  129OSM    H6G13904  -0.476   1.601   6.971 -0.4690  0.5397 -3.1042
  129OSM    C7F13905  -0.608   1.538   7.134 -0.0775  0.2939 -0.1215
  129OSM    H7F13906  -0.677   1.452   7.150 -0.1523  0.2374 -0.7133
  129OSM    H7G13907  -0.642   1.640   7.159  0.6038  0.2131  1.2490
  129OSM    C8F13908  -0.489   1.511   7.221 -0.6855 -0.0391 -0.6262
  129OSM    H8F13909  -0.408   1.583   7.194 -0.1911 -0.2216  0.3368
  129OSM    H8G13910  -0.449   1.409   7.205  0.0480  0.2445 -0.6407
  129OSM    C9F13911  -0.533   1.519   7.365 -0.2726  0.4096 -0.2695
  129OSM    H9F13912  -0.595   1.431   7.393  0.8995 -0.7878 -1.3008
  129OSM   C10F13913  -0.505   1.623   7.447 -1.2317 -0.2926  0.5769
  129OSM   H10F13914  -0.528   1.627   7.555 -0.7267  0.7097  0.6560
  129OSM   C11F13915  -0.425   1.750   7.402 -0.0184  0.7453  0.0838
  129OSM   H11F13916  -0.456   1.841   7.458 -2.3158  1.6970 -2.5046
  129OSM   H11G13917  -0.446   1.779   7.297 -1.8268  3.1611  1.0126
  129OSM   C12F13918  -0.270   1.734   7.415  0.0658  0.2753 -0.4855
  129OSM   H12F13919  -0.219   1.827   7.380 -0.4620 -0.2504 -2.8800
  129OSM   H12G13920  -0.237   1.659   7.340  0.6718 -0.0026  0.0517
  129OSM   C13F13921  -0.218   1.687   7.549  0.0945 -0.0211 -0.5216
  129OSM   H13F13922  -0.266   1.590   7.576 -1.0861 -0.3128 -3.3079
  129OSM   H13G13923  -0.237   1.752   7.636  0.1621 -2.8090  1.7386
  129OSM   C14F13924  -0.066   1.667   7.529 -0.5653  0.2552 -0.1347
  129OSM   H14F13925  -0.016   1.754   7.483 -2.0567  0.8747 -0.6448
  129OSM   H14G13926  -0.046   1.574   7.471  1.4113 -0.5965  1.7588
  129OSM   C15F13927   0.011   1.637   7.662 -0.3033  0.6663  0.7826
  129OSM   H15F13928  -0.030   1.550   7.718  1.4408 -2.3913 -2.2890
  129OSM   H15G13929   0.009   1.729   7.724  0.0105  1.6867 -0.6600
  129OSM   C16F13930   0.158   1.599   7.631 -0.4513  0.0617 -0.0641
  129OSM   H16F13931   0.206   1.685   7.579 -0.1266  1.8526  2.9679
  129OSM   H16G13932   0.161   1.509   7.565  1.9006 -0.3319  0.4730
  129OSM   C17F13933   0.229   1.577   7.762 -0.4574  0.0523  0.0334
  129OSM   H17F13934   0.187   1.488   7.814  0.6591 -0.5627 -0.0801
  129OSM   H17G13935   0.212   1.664   7.830  1.2918 -0.2761  0.9821
  129OSM   C18F13936   0.379   1.577   7.755  0.8266  0.0374  0.0972
  129OSM   H18F13937   0.413   1.571   7.861 -5.1735  0.2377  2.4341
  129OSM   H18G13938   0.421   1.667   7.706  0.9561  0.0480  0.2256
  129OSM   H18H13939   0.414   1.484   7.705 -0.1400  1.1976 -2.9590
  130OSM      N13940   3.403   2.887   5.912 -0.6241 -0.1667  0.8865
  130OSM    C1513941   3.356   2.982   6.013  0.2621  0.0896 -0.5605
  130OSM   H15A13942   3.380   2.951   6.114  2.9568  2.0009 -0.5129
  130OSM   H15B13943   3.251   3.000   5.997 -0.1689 -1.9800 -0.4267
  130OSM   H15C13944   3.402   3.078   6.002  0.2505 -0.0039 -1.4856
  130OSM    C1413945   3.329   2.760   5.920  0.8769  0.8754 -0.3840
  130OSM   H14A13946   3.378   2.686   5.982 -2.5636 -0.6431  0.7689
  130OSM   H14B13947   3.303   2.714   5.826 -0.3606 -0.7065  0.6718
  130OSM   H14C13948   3.235   2.787   5.966  0.2628  0.7886 -1.5638
  130OSM    C1313949   3.375   2.947   5.784 -0.4553 -0.7057 -0.1950
  130OSM   H13A13950   3.269   2.957   5.766 -0.3322  2.1925  0.1246
  130OSM   H13B13951   3.417   2.883   5.708 -0.5241 -1.1763  0.1642
  130OSM   H13C13952   3.409   3.049   5.770  0.2668 -0.7904  0.8929
  130OSM    C1213953   3.555   2.856   5.929  0.7765 -0.4385  0.0712
  130OSM   H12A13954   3.616   2.942   5.903  1.8514 -1.4468 -0.8392
  130OSM   H12B13955   3.583   2.787   5.851 -3.0637 -1.9324 -0.1636
  130OSM    C1113956   3.600   2.794   6.065  0.4320  0.2545 -0.2368
  130OSM   H11A13957   3.553   2.859   6.142 -0.1696  1.6060 -1.6999
  130OSM   H11B13958   3.709   2.816   6.073  0.4089  1.3912 -2.4123
  130OSM      P13959   3.659   2.551   6.024 -0.3383  0.1691  0.0027
  130OSM    O1313960   3.590   2.430   5.993  0.3579  0.1897 -0.0697
  130OSM    O1413961   3.747   2.611   5.917 -0.8421 -0.8451 -0.6229
  130OSM    O1113962   3.751   2.511   6.154  0.6362 -0.8723 -0.0370
  130OSM    O1213963   3.557   2.657   6.081 -0.3599  0.0781  0.6901
  130OSM    C1S13964   3.725   2.539   6.290 -0.0828  0.3742 -0.4063
  130OSM    H1S13965   3.634   2.480   6.314  1.7088 -1.2149  3.1660
  130OSM    H1T13966   3.708   2.648   6.305  0.8066  1.0731 -3.6436
  130OSM     NF13967   3.798   2.528   6.532 -0.1372  0.2189 -0.3176
  130OSM    HNF13968   3.858   2.598   6.569 -0.8950  0.5034  0.3916
  130OSM    C2S13969   3.830   2.481   6.392 -0.1148  0.0892 -0.7264
  130OSM    H2S13970   3.799   2.375   6.392 -0.7357  0.2527  0.6826
  130OSM    C3S13971   3.980   2.504   6.352  0.6551 -0.2138 -0.2516
  130OSM    H3S13972   3.997   2.613   6.343 -0.9880  0.2419  1.4481
  130OSM     O313973   4.012   2.448   6.229  0.1011 -0.0716  0.4338
  130OSM    HO313974   3.926   2.434   6.189  0.4810  0.7436 -0.7144
  130OSM    C4S13975   4.076   2.443   6.443 -0.2937 -0.4071  0.4185
  130OSM    H4S13976   4.059   2.334   6.447  0.7591 -0.5839  0.3233
  130OSM    C5S13977   4.178   2.501   6.511 -0.0374 -0.1076  0.4399
  130OSM    H5S13978   4.194   2.609   6.501 -0.0968 -0.1057  0.3638
  130OSM    C6S13979   4.263   2.434   6.613 -0.3360  0.1194 -0.2382
  130OSM    H6S13980   4.365   2.478   6.623 -0.9781  1.2552  2.2550
  130OSM    H6T13981   4.271   2.324   6.606  2.1983  0.2570 -0.2025
  130OSM    C7S13982   4.199   2.467   6.755  0.3113 -0.3057  0.4934
  130OSM    H7S13983   4.093   2.441   6.775  0.9096 -1.4469  2.5015
  130OSM    H7T13984   4.202   2.578   6.764  0.8841  0.0156 -2.6792
  130OSM    C8S13985   4.277   2.404   6.876 -0.4817  0.1089 -0.2791
  130OSM    H8S13986   4.384   2.424   6.852 -0.1259 -2.5889 -1.2750
  130OSM    H8T13987   4.285   2.295   6.891  3.3491  0.1887 -0.6927
  130OSM    C9S13988   4.234   2.470   7.010 -0.3666 -0.4955 -0.3841
  130OSM    H9S13989   4.127   2.442   7.027 -1.4807  3.7076  0.6960
  130OSM    H9T13990   4.230   2.578   6.986 -0.7001 -0.3249  0.3897
  130OSM   C10S13991   4.331   2.433   7.121 -0.7116 -0.0122  0.4845
  130OSM   H10S13992   4.431   2.465   7.084 -1.9439  0.6664 -2.5239
  130OSM   H10T13993   4.338   2.322   7.120 -2.5945 -0.1713 -1.0930
  130OSM   C11S13994   4.280   2.495   7.246 -0.6703 -0.1784  0.3789
  130OSM   H11S13995   4.172   2.473   7.259 -1.1758  2.3030  0.9795
  130OSM   H11T13996   4.302   2.604   7.238  0.8987 -0.5839 -2.1508
  130OSM   C12S13997   4.365   2.432   7.370  0.6691  0.1912 -0.3621
  130OSM   H12S13998   4.470   2.401   7.351  1.3288 -0.7021  3.7481
  130OSM   H12T13999   4.312   2.338   7.396  0.1361  0.3613 -0.7902
  130OSM   C13S14000   4.358   2.532   7.490 -0.3115 -0.2921 -0.2900
  130OSM   H13S14001   4.249   2.549   7.507 -0.5511 -1.1757 -0.8868
  130OSM   H13T14002   4.413   2.625   7.465  0.8187 -1.1395 -1.0311
  130OSM   C14S14003   4.420   2.470   7.618  0.0059 -0.1441  0.4701
  130OSM   H14S14004   4.528   2.455   7.597 -0.2191  1.3068 -2.1308
  130OSM   H14T14005   4.379   2.371   7.648 -2.5618 -0.5039 -3.4377
  130OSM   C15S14006   4.400   2.569   7.732  0.8326  0.9819 -0.6419
  130OSM   H15S14007   4.414   2.530   7.835  0.9909  0.0422 -1.0080
  130OSM   H15T14008   4.296   2.609   7.733  0.1737 -0.6645  0.3986
  130OSM   C16S14009   4.500   2.691   7.728  0.4154  0.5703  0.0916
  130OSM   H16S14010   4.503   2.731   7.624 -0.2516 -1.6797 -0.8333
  130OSM   H16T14011   4.599   2.641   7.737 -1.2944 -3.0181  0.3585
  130OSM   C17S14012   4.483   2.795   7.836 -0.4152  0.1959  0.4449
  130OSM   H17S14013   4.487   2.749   7.937 -1.4703 -0.8589  0.0283
  130OSM   H17T14014   4.378   2.834   7.841 -0.5327  0.2099 -1.5890
  130OSM   C18S14015   4.590   2.904   7.819  0.4598 -0.0877  0.2408
  130OSM   H18S14016   4.691   2.859   7.825  0.5872  0.2318  0.4981
  130OSM   H18T14017   4.585   2.994   7.884  1.9594  0.9199 -0.9513
  130OSM   H18U14018   4.585   2.948   7.717 -0.1826  0.2672  0.4235
  130OSM    C1F14019   3.676   2.504   6.586 -0.3484  0.2560 -0.2418
  130OSM     OF14020   3.602   2.413   6.555  0.1304  0.3676  0.1702
  130OSM    C2F14021   3.630   2.608   6.688  0.5665 -1.1684  0.3076
  130OSM    H2F14022   3.652   2.714   6.663 -0.4219 -0.5358  1.9723
  130OSM    H2G14023   3.689   2.585   6.779  1.0791  0.8791  0.5247
  130OSM    C3F14024   3.478   2.589   6.733 -0.5419 -0.4598  0.0963
  130OSM    H3F14025   3.471   2.482   6.762 -1.2341 -0.6993 -0.9011
  130OSM    H3G14026   3.425   2.609   6.637  1.9168  3.5855 -0.7004
  130OSM    C4F14027   3.423   2.688   6.837  0.2396  0.5900 -0.0218
  130OSM    H4F14028   3.313   2.688   6.846  0.0123  0.7980 -2.3227
  130OSM    H4G14029   3.463   2.788   6.809  2.3382 -0.6494 -1.7686
  130OSM    C5F14030   3.484   2.647   6.973  0.4162  0.2863 -0.0895
  130OSM    H5F14031   3.594   2.661   6.969  0.2338  2.0398  0.3787
  130OSM    H5G14032   3.456   2.541   6.996 -0.3319  0.4721 -0.1245
  130OSM    C6F14033   3.420   2.726   7.100 -0.2690 -0.5961  0.1653
  130OSM    H6F14034   3.314   2.696   7.116  0.0551 -0.5511  2.9458
  130OSM    H6G14035   3.422   2.836   7.084 -1.7771 -0.4991  0.5283
  130OSM    C7F14036   3.498   2.708   7.237 -0.5607 -0.7275 -0.4338
  130OSM    H7F14037   3.468   2.795   7.300  2.5565  0.2555 -0.1538
  130OSM    H7G14038   3.607   2.712   7.214 -0.1195  1.9530  1.6063
  130OSM    C8F14039   3.460   2.581   7.316 -0.3891 -0.2161 -0.6079
  130OSM    H8F14040   3.543   2.547   7.381 -0.0898  0.4510 -0.6335
  130OSM    H8G14041   3.445   2.493   7.250 -1.4419 -0.0002 -0.6854
  130OSM    C9F14042   3.332   2.610   7.395  1.1092  0.1151 -0.1054
  130OSM    H9F14043   3.248   2.614   7.324  3.3200 -1.4972 -3.0359
  130OSM   C10F14044   3.320   2.629   7.524  0.6077 -0.4920 -0.3245
  130OSM   H10F14045   3.221   2.634   7.571  0.7743  0.2991 -0.0385
  130OSM   C11F14046   3.438   2.640   7.620  0.3142  0.2489 -0.4350
  130OSM   H11F14047   3.520   2.699   7.575  1.4200 -1.4097 -0.7069
  130OSM   H11G14048   3.481   2.541   7.648 -0.3299 -0.0901 -0.6253
  130OSM   C12F14049   3.398   2.709   7.755  0.2245  0.1521 -0.3169
  130OSM   H12F14050   3.347   2.806   7.734 -1.9136 -1.1629 -1.4701
  130OSM   H12G14051   3.489   2.738   7.812 -0.8409  1.1227  0.9312
  130OSM   C13F14052   3.308   2.623   7.856  0.3317  0.0655  0.1727
  130OSM   H13F14053   3.221   2.585   7.797  1.4849  0.5719 -1.9402
  130OSM   H13G14054   3.270   2.686   7.940  0.1067  1.0518 -0.6542
  130OSM   C14F14055   3.367   2.487   7.908  0.3892 -0.1897 -0.6538
  130OSM   H14F14056   3.447   2.468   7.833 -0.5843  0.5897 -1.9114
  130OSM   H14G14057   3.285   2.412   7.902 -0.8130  1.1698 -1.9320
  130OSM   C15F14058   3.423   2.486   8.060  0.1494  0.5711 -0.5969
  130OSM   H15F14059   3.351   2.478   8.144  2.3137 -1.0111  1.2427
  130OSM   H15G14060   3.488   2.575   8.074 -0.4824  1.2450 -1.7736
  130OSM   C16F14061   3.516   2.369   8.080 -0.2311  0.1042 -0.4806
  130OSM   H16F14062   3.592   2.381   8.000 -0.3732  0.1261 -0.6110
  130OSM   H16G14063   3.468   2.272   8.055  2.9130 -1.5581 -0.6747
  130OSM   C17F14064   3.576   2.364   8.223  0.3406  0.1077 -0.7131
  130OSM   H17F14065   3.610   2.464   8.257  1.0157 -0.1549 -0.5874
  130OSM   H17G14066   3.671   2.306   8.219  0.9910  1.1605 -0.7825
  130OSM   C18F14067   3.491   2.295   8.332 -0.0052 -0.2038  0.1532
  130OSM   H18F14068   3.538   2.297   8.433 -2.4335 -0.9798  1.3729
  130OSM   H18G14069   3.474   2.187   8.313  2.0780 -0.5914  0.1784
  130OSM   H18H14070   3.398   2.355   8.340 -0.0520 -0.1294 -0.8482
  131OSM      N14071   0.721   3.928   5.699  0.7302  0.3643 -0.1458
  131OSM    C1514072   0.686   3.796   5.638 -0.1202  0.3296 -0.2603
  131OSM   H15A14073   0.717   3.709   5.694  0.9759  0.0857 -1.1882
  131OSM   H15B14074   0.739   3.786   5.544  1.1294  0.6636  0.3854
  131OSM   H15C14075   0.582   3.790   5.609 -0.2747  0.0575  0.3344
  131OSM    C1414076   0.871   3.950   5.692  0.1341 -1.0232  0.1322
  131OSM   H14A14077   0.896   4.048   5.729  0.2399 -0.7528 -0.6339
  131OSM   H14B14078   0.898   3.944   5.588 -2.2027 -3.4279 -0.4614
  131OSM   H14C14079   0.918   3.878   5.758 -0.9868 -0.4986  1.5753
  131OSM    C1314080   0.657   4.029   5.615 -0.2059 -0.1012  0.0561
  131OSM   H13A14081   0.552   4.010   5.599 -0.8151  2.3040  0.7325
  131OSM   H13B14082   0.704   4.029   5.518 -0.8980 -1.8805 -0.3081
  131OSM   H13C14083   0.670   4.126   5.662  0.6837 -1.2175  2.2562
  131OSM    C1214084   0.664   3.942   5.838 -0.0640  0.1636 -0.7488
  131OSM   H12A14085   0.699   3.860   5.899  0.1231  1.8190  1.5079
  131OSM   H12B14086   0.558   3.925   5.838 -0.3447  1.4795  1.7579
  131OSM    C1114087   0.704   4.062   5.932 -0.3052  0.5283  0.1172
  131OSM   H11A14088   0.814   4.068   5.940  0.1254 -3.8531  0.0659
  131OSM   H11B14089   0.674   4.037   6.036 -1.3379  0.0697 -0.2749
  131OSM      P14090   0.513   4.239   5.922 -0.1784 -0.1159  0.0217
  131OSM    O1314091   0.497   4.383   5.890 -0.2261 -0.1257 -0.3648
  131OSM    O1414092   0.407   4.145   5.878  0.4054  0.0639 -0.6585
  131OSM    O1114093   0.525   4.223   6.082  0.0566 -0.3612 -0.7697
  131OSM    O1214094   0.653   4.181   5.878  0.0168 -0.0103 -0.1426
  131OSM    C1S14095   0.613   4.301   6.156  0.2697  0.3440  0.0159
  131OSM    H1S14096   0.581   4.406   6.141 -0.4181  0.0409 -0.7738
  131OSM    H1T14097   0.718   4.295   6.120  0.2188 -0.0220 -0.0795
  131OSM     NF14098   0.674   4.374   6.391 -0.3966  0.6768  0.0238
  131OSM    HNF14099   0.757   4.347   6.439 -1.8399  0.0305  2.3095
  131OSM    C2S14100   0.611   4.268   6.310  0.0202  0.2788  0.2821
  131OSM    H2S14101   0.503   4.265   6.339  0.1818  2.2489  1.2505
  131OSM    C3S14102   0.672   4.128   6.349  0.1034  0.1881  0.0868
  131OSM    H3S14103   0.778   4.120   6.314  0.2532  2.6496 -0.2152
  131OSM     O314104   0.610   4.026   6.271  0.2090  0.0957 -0.6285
  131OSM    HO314105   0.562   4.068   6.200  1.5761 -2.4570 -3.2401
  131OSM    C4S14106   0.664   4.087   6.493 -0.5305 -1.0707  0.3966
  131OSM    H4S14107   0.566   4.082   6.542 -1.1318 -0.8227 -0.7505
  131OSM    C5S14108   0.778   4.067   6.559  0.3799 -0.4117  0.2278
  131OSM    H5S14109   0.874   4.085   6.508 -1.3949  1.8315 -2.6889
  131OSM    C6S14110   0.797   4.028   6.704  0.2023  0.0964 -0.2818
  131OSM    H6S14111   0.896   3.979   6.717  0.5354  1.1375  1.3492
  131OSM    H6T14112   0.730   3.951   6.748  2.1296 -2.1367 -1.0164
  131OSM    C7S14113   0.802   4.154   6.802 -0.4110  0.4153  0.6643
  131OSM    H7S14114   0.717   4.224   6.797  0.0508  1.0040  0.9153
  131OSM    H7T14115   0.892   4.209   6.769 -0.4402 -0.0810 -0.2652
  131OSM    C8S14116   0.823   4.107   6.950  0.2821  0.0184  0.3066
  131OSM    H8S14117   0.908   4.036   6.945 -0.6925 -1.0793 -1.2926
  131OSM    H8T14118   0.738   4.045   6.988  0.6848 -1.1650 -0.6770
  131OSM    C9S14119   0.826   4.224   7.046  0.4223 -0.3892 -0.1881
  131OSM    H9S14120   0.725   4.269   7.041  0.5412 -0.2557 -1.8165
  131OSM    H9T14121   0.890   4.307   7.010  0.2836  0.8863  2.2449
  131OSM   C10S14122   0.882   4.184   7.183 -0.3324 -0.3762  0.3506
  131OSM   H10S14123   0.990   4.162   7.173 -0.4757 -0.4805 -1.1423
  131OSM   H10T14124   0.836   4.087   7.211 -0.7280 -0.4154 -0.4038
  131OSM   C11S14125   0.879   4.304   7.284 -0.3523 -0.2051  0.7417
  131OSM   H11S14126   0.780   4.352   7.273 -0.1898  0.1575  0.8524
  131OSM   H11T14127   0.960   4.374   7.254 -0.5007 -0.3115  0.0751
  131OSM   C12S14128   0.926   4.263   7.425  0.3083 -0.3846 -0.1307
  131OSM   H12S14129   1.020   4.209   7.402  1.9572  2.8895 -1.7340
  131OSM   H12T14130   0.865   4.179   7.465  1.5780 -2.6762 -2.6992
  131OSM   C13S14131   0.935   4.370   7.529  0.3538 -0.8548  0.0662
  131OSM   H13S14132   0.838   4.421   7.543 -0.4381 -2.2633 -0.1212
  131OSM   H13T14133   1.012   4.444   7.496 -0.5987  0.3861  0.5628
  131OSM   C14S14134   0.964   4.313   7.667 -0.2397 -1.3297 -0.1355
  131OSM   H14S14135   1.061   4.260   7.657  0.5906 -0.0971  0.9745
  131OSM   H14T14136   0.889   4.235   7.689 -0.8138 -0.5334  0.8341
  131OSM   C15S14137   0.976   4.411   7.779  0.6219 -0.9769  0.0871
  131OSM   H15S14138   0.883   4.469   7.793  0.2439 -1.2926 -1.0293
  131OSM   H15T14139   1.051   4.485   7.743 -1.3483  1.6466  1.0984
  131OSM   C16S14140   1.029   4.349   7.907 -0.5440  0.1221  0.0104
  131OSM   H16S14141   1.125   4.293   7.895 -0.7160 -1.2509  3.7761
  131OSM   H16T14142   0.954   4.271   7.935  0.8337 -1.0662  0.5182
  131OSM   C17S14143   1.053   4.443   8.023  0.2795  0.2351 -0.4804
  131OSM   H17S14144   1.097   4.377   8.101  1.9464  1.1793 -0.5848
  131OSM   H17T14145   0.954   4.469   8.066  0.5860  0.3577  0.1635
  131OSM   C18S14146   1.157   4.558   7.991 -0.2407  0.2530  0.0440
  131OSM   H18S14147   1.110   4.634   7.924 -1.5642 -0.1250  0.5192
  131OSM   H18T14148   1.253   4.525   7.945  0.4203  0.6781  1.1023
  131OSM   H18U14149   1.190   4.598   8.089  2.8731 -0.9581 -0.3895
  131OSM    C1F14150   0.624   4.496   6.385  0.2903  0.2124  0.1183
  131OSM     OF14151   0.511   4.512   6.342  0.6269  0.0857  0.3197
  131OSM    C2F14152   0.705   4.607   6.438  0.2624  0.2639  0.2764
  131OSM    H2F14153   0.761   4.660   6.358  1.5884  0.0213  1.0204
  131OSM    H2G14154   0.782   4.563   6.505 -1.4069  0.3891  2.3999
  131OSM    C3F14155   0.622   4.718   6.507 -0.5838  0.6321 -0.3375
  131OSM    H3F14156   0.561   4.774   6.434  0.1998  2.7078  0.5180
  131OSM    H3G14157   0.689   4.790   6.559  0.4671 -2.4554  3.0555
  131OSM    C4F14158   0.527   4.680   6.624 -0.2528  0.2137  0.7706
  131OSM    H4F14159   0.458   4.595   6.602 -0.9153  1.1735 -1.0613
  131OSM    H4G14160   0.455   4.764   6.635 -0.6973  0.3971 -2.6643
  131OSM    C5F14161   0.597   4.632   6.749  0.2029  0.0226  0.0978
  131OSM    H5F14162   0.687   4.697   6.758 -0.2646  0.4963  1.6413
  131OSM    H5G14163   0.632   4.528   6.735 -0.7833 -0.2065 -0.8419
  131OSM    C6F14164   0.513   4.642   6.882 -0.5556 -0.5584  0.2839
  131OSM    H6F14165   0.419   4.585   6.870  1.2173 -3.0983 -3.3534
  131OSM    H6G14166   0.497   4.750   6.903 -0.6891 -0.4574 -0.3086
  131OSM    C7F14167   0.589   4.591   7.002  0.5696  0.2241 -0.4167
  131OSM    H7F14168   0.671   4.656   7.040  0.3312 -0.4013  1.2424
  131OSM    H7G14169   0.645   4.504   6.962  0.2183  0.5404 -1.6504
  131OSM    C8F14170   0.489   4.543   7.109  0.0927 -0.2642  0.1348
  131OSM    H8F14171   0.409   4.480   7.063  1.1771 -0.4469 -1.5796
  131OSM    H8G14172   0.443   4.639   7.141 -2.8596 -1.3979 -0.3960
  131OSM    C9F14173   0.564   4.461   7.206 -0.2006  0.2869 -0.4767
  131OSM    H9F14174   0.613   4.369   7.171 -3.2800 -1.8213  0.3048
  131OSM   C10F14175   0.579   4.504   7.338 -0.3249  0.4252  0.0414
  131OSM   H10F14176   0.648   4.446   7.401  0.3183 -1.2297 -2.0613
  131OSM   C11F14177   0.531   4.625   7.403  0.2668 -0.9411  0.2514
  131OSM   H11F14178   0.426   4.624   7.437  0.8944 -0.6863  2.3099
  131OSM   H11G14179   0.534   4.706   7.327  1.8907  0.4395  1.7077
  131OSM   C12F14180   0.604   4.656   7.538 -0.4950 -0.5016 -0.0610
  131OSM   H12F14181   0.564   4.758   7.558  3.5141  1.2563 -0.1232
  131OSM   H12G14182   0.712   4.676   7.520 -0.2035  1.5404  3.1472
  131OSM   C13F14183   0.586   4.562   7.649  0.5116  0.1978 -0.4831
  131OSM   H13F14184   0.655   4.475   7.640 -1.5475 -1.5263 -0.3528
  131OSM   H13G14185   0.486   4.514   7.654  0.5158  0.3261  1.0147
  131OSM   C14F14186   0.595   4.629   7.787 -0.2855 -0.1584 -0.5312
  131OSM   H14F14187   0.514   4.705   7.787  0.9503  1.2060 -0.1154
  131OSM   H14G14188   0.694   4.678   7.798 -0.5984  0.1709  1.0266
  131OSM   C15F14189   0.570   4.542   7.903  0.7282 -0.1473  1.0785
  131OSM   H15F14190   0.641   4.457   7.901 -0.5397 -1.2509  1.2721
  131OSM   H15G14191   0.464   4.509   7.905 -0.0194  2.0342  0.6342
  131OSM   C16F14192   0.594   4.619   8.035 -0.4657 -0.3733  0.0099
  131OSM   H16F14193   0.610   4.728   8.022  0.9862 -0.2098  2.4434
  131OSM   H16G14194   0.688   4.577   8.077 -0.9634 -2.5906 -0.9968
  131OSM   C17F14195   0.480   4.612   8.133  0.8968  0.5063 -0.1545
  131OSM   H17F14196   0.385   4.645   8.087 -0.5084 -2.2157  0.5912
  131OSM   H17G14197   0.506   4.662   8.229  1.0288 -0.0818  0.1217
  131OSM   C18F14198   0.455   4.469   8.177  0.2653 -0.4516 -0.2147
  131OSM   H18F14199   0.414   4.403   8.097  2.3519 -1.5158 -0.4784
  131OSM   H18G14200   0.387   4.463   8.265  0.0346 -1.3497 -0.4366
  131OSM   H18H14201   0.551   4.423   8.207  1.1494  1.1131 -0.5665
  132OSM      N14202   2.142   5.896   6.044  0.3626 -0.3612  0.3385
  132OSM    C1514203   2.018   5.823   6.066 -0.7911  0.1620 -0.6755
  132OSM   H15A14204   1.979   5.858   6.160  3.3536  0.6230  1.1125
  132OSM   H15B14205   2.038   5.717   6.073 -0.4688  0.2973  0.9336
  132OSM   H15C14206   1.946   5.839   5.988  0.4709  0.0715 -1.9083
  132OSM    C1414207   2.205   5.838   5.926 -0.0147  0.2444 -0.3291
  132OSM   H14A14208   2.276   5.910   5.888  1.2044  0.7427  2.6082
  132OSM   H14B14209   2.134   5.821   5.847 -2.2091  1.7746  1.1866
  132OSM   H14C14210   2.248   5.744   5.956  2.0640  1.4239  0.6181
  132OSM    C1314211   2.107   6.038   6.018 -0.0480  0.1392  0.1331
  132OSM   H13A14212   2.047   6.055   5.930  1.1950 -2.1853 -1.2539
  132OSM   H13B14213   2.201   6.090   6.002  1.4587 -1.9348  1.6688
  132OSM   H13C14214   2.061   6.090   6.101  0.1082  3.1991 -1.5510
  132OSM    C1214215   2.226   5.891   6.168  0.4177  0.4683  0.1611
  132OSM   H12A14216   2.241   5.787   6.195 -1.3609 -0.3521 -1.7636
  132OSM   H12B14217   2.178   5.950   6.245 -0.0686  1.8431 -1.1569
  132OSM    C1114218   2.376   5.938   6.154 -0.6456  0.1776  0.1274
  132OSM   H11A14219   2.427   5.877   6.076  2.2517 -0.6093  2.4729
  132OSM   H11B14220   2.426   5.904   6.248 -0.1615 -3.0582 -1.1535
  132OSM      P14221   2.371   6.181   6.226 -0.3200 -0.2490 -0.0445
  132OSM    O1314222   2.494   6.170   6.314  0.1706  0.5578 -0.5095
  132OSM    O1414223   2.341   6.307   6.157  0.3087 -0.7002 -0.3479
  132OSM    O1114224   2.241   6.138   6.312  0.3175 -0.0642 -0.2602
  132OSM    O1214225   2.386   6.078   6.115 -0.3714 -0.0226  0.2915
  132OSM    C1S14226   2.253   6.143   6.452 -0.2297 -0.5553 -0.3439
  132OSM    H1S14227   2.309   6.230   6.490 -2.8526  0.9086  0.4366
  132OSM    H1T14228   2.317   6.057   6.482  0.3036 -0.1826 -0.4198
  132OSM     NF14229   2.122   6.173   6.650  0.0914 -0.0148  0.4638
  132OSM    HNF14230   2.114   6.090   6.706 -0.7899  0.1845  0.6372
  132OSM    C2S14231   2.115   6.145   6.513  0.4747  0.2794 -0.2191
  132OSM    H2S14232   2.064   6.236   6.475  2.1249  1.7087  0.8666
  132OSM    C3S14233   2.032   6.017   6.476 -0.4872 -0.6760 -0.0015
  132OSM    H3S14234   2.108   5.937   6.493  0.7659  0.1815 -1.3356
  132OSM     O314235   1.984   6.005   6.344 -0.0383 -0.3948  0.9079
  132OSM    HO314236   2.016   6.089   6.310 -3.6010  0.5648 -0.4783
  132OSM    C4S14237   1.913   5.997   6.569 -0.9025  0.3610  0.3548
  132OSM    H4S14238   1.840   6.078   6.555 -0.1662  0.6974 -2.1046
  132OSM    C5S14239   1.898   5.891   6.648 -0.3492  0.2794  0.8538
  132OSM    H5S14240   1.979   5.817   6.651  0.3783  1.0590  3.6445
  132OSM    C6S14241   1.781   5.871   6.740 -0.6199  0.1805  0.2822
  132OSM    H6S14242   1.720   5.781   6.717  2.0128 -1.2118 -1.8514
  132OSM    H6T14243   1.721   5.964   6.739  0.5944  0.9734 -0.2920
  132OSM    C7S14244   1.850   5.858   6.882 -0.3098  0.1006  0.2033
  132OSM    H7S14245   1.885   5.956   6.921  1.7754 -1.0279  1.3161
  132OSM    H7T14246   1.937   5.789   6.887 -1.2024 -1.0838 -0.2467
  132OSM    C8S14247   1.738   5.819   6.982  0.4559 -0.1115  0.2306
  132OSM    H8S14248   1.692   5.725   6.947 -1.5461  0.1261  2.0444
  132OSM    H8T14249   1.650   5.887   6.984 -1.3068 -2.2730 -0.4581
  132OSM    C9S14250   1.782   5.821   7.129 -0.5719  0.1216 -0.4483
  132OSM    H9S14251   1.811   5.924   7.160 -0.7228  0.1298 -0.3338
  132OSM    H9T14252   1.875   5.762   7.128 -0.6909 -0.3639  3.4422
  132OSM   C10S14253   1.688   5.743   7.232 -0.2089 -0.6464  0.2470
  132OSM   H10S14254   1.681   5.633   7.220 -0.7669 -0.7398  1.3116
  132OSM   H10T14255   1.585   5.784   7.236  0.0218 -0.1386  2.8068
  132OSM   C11S14256   1.744   5.768   7.371 -0.7411  0.0346 -0.3251
  132OSM   H11S14257   1.767   5.877   7.370 -1.4188  0.1842 -1.4536
  132OSM   H11T14258   1.842   5.718   7.387 -1.2759 -2.0659 -2.9240
  132OSM   C12S14259   1.654   5.722   7.488 -0.0414 -0.1084  0.1008
  132OSM   H12S14260   1.613   5.622   7.462  1.3151  0.0228 -2.9835
  132OSM   H12T14261   1.575   5.799   7.490  0.9736  0.9793  2.8060
  132OSM   C13S14262   1.720   5.728   7.624  0.4812 -0.3542  0.8127
  132OSM   H13S14263   1.758   5.833   7.628 -0.3934  0.0201 -0.2335
  132OSM   H13T14264   1.806   5.659   7.611 -0.3148 -0.7455 -4.1950
  132OSM   C14S14265   1.626   5.691   7.740  0.3962  0.5059 -0.6388
  132OSM   H14S14266   1.680   5.659   7.832 -2.8782  1.2009  1.7206
  132OSM   H14T14267   1.572   5.601   7.706  0.8978  0.6814 -1.9424
  132OSM   C15S14268   1.540   5.805   7.795  0.4617  0.2658 -0.0865
  132OSM   H15S14269   1.514   5.869   7.708 -0.1763  0.2367  0.0843
  132OSM   H15T14270   1.614   5.867   7.850 -1.9363  0.8971  2.6529
  132OSM   C16S14271   1.419   5.760   7.885 -0.0554  0.8466  0.3100
  132OSM   H16S14272   1.470   5.682   7.945 -0.9862 -1.0086 -1.1986
  132OSM   H16T14273   1.335   5.721   7.824 -0.2531 -0.8464  1.5990
  132OSM   C17S14274   1.362   5.880   7.956 -0.1223  0.9826 -0.7621
  132OSM   H17S14275   1.445   5.951   7.975 -0.7502  2.1009 -2.0193
  132OSM   H17T14276   1.313   5.851   8.051  1.8905  2.7538  0.9137
  132OSM   C18S14277   1.261   5.963   7.872 -0.0102 -0.3111 -0.1360
  132OSM   H18S14278   1.294   5.959   7.766 -0.0729  0.4748 -0.1922
  132OSM   H18T14279   1.254   6.069   7.902 -0.1224 -0.7605  1.4953
  132OSM   H18U14280   1.164   5.910   7.885  1.5267 -3.0645  0.7717
  132OSM    C1F14281   2.172   6.288   6.702 -0.0703  0.1845 -0.4864
  132OSM     OF14282   2.168   6.390   6.639 -0.2560 -0.5114 -0.3411
  132OSM    C2F14283   2.220   6.277   6.845  0.1531  0.6272  0.3723
  132OSM    H2F14284   2.313   6.215   6.851 -0.7352 -0.6747  1.0976
  132OSM    H2G14285   2.143   6.221   6.903  0.9156 -0.8173  0.0507
  132OSM    C3F14286   2.235   6.418   6.911 -0.4905 -0.4409  0.0680
  132OSM    H3F14287   2.143   6.481   6.905  0.4460  0.8338 -2.3827
  132OSM    H3G14288   2.309   6.466   6.843  1.1398  0.5117  2.3977
  132OSM    C4F14289   2.299   6.418   7.051 -0.3642  0.1360 -0.2435
  132OSM    H4F14290   2.394   6.363   7.060 -0.3936  0.1479  0.1605
  132OSM    H4G14291   2.224   6.359   7.109 -1.9212  0.9722 -1.3194
  132OSM    C5F14292   2.321   6.550   7.106 -0.5203  0.0122  0.2597
  132OSM    H5F14293   2.346   6.613   7.017 -1.6739  0.4954  0.2708
  132OSM    H5G14294   2.419   6.549   7.159 -0.7734 -1.5604  0.7360
  132OSM    C6F14295   2.225   6.615   7.202  0.2192  0.6514 -0.3832
  132OSM    H6F14296   2.178   6.525   7.249  0.8554  0.8443  0.6577
  132OSM    H6G14297   2.148   6.664   7.139 -0.2485 -0.3696 -0.6409
  132OSM    C7F14298   2.281   6.720   7.295 -0.3381  0.3968 -0.7429
  132OSM    H7F14299   2.198   6.776   7.343 -0.3774  1.2412 -1.7606
  132OSM    H7G14300   2.334   6.793   7.230  2.7054  0.0170  1.1603
  132OSM    C8F14301   2.379   6.665   7.400 -0.1895 -0.0615 -0.0759
  132OSM    H8F14302   2.414   6.751   7.462 -2.0468  1.7755 -1.4226
  132OSM    H8G14303   2.467   6.619   7.350 -0.6210 -2.3960  1.2052
  132OSM    C9F14304   2.318   6.556   7.485  0.1918 -0.0298  0.1008
  132OSM    H9F14305   2.265   6.484   7.421  0.0394 -0.7112  0.9703
  132OSM   C10F14306   2.310   6.558   7.618 -1.0814  0.1240  0.6125
  132OSM   H10F14307   2.282   6.468   7.676  0.4298  0.5293  2.0610
  132OSM   C11F14308   2.365   6.664   7.707 -0.4951 -0.3396  0.3935
  132OSM   H11F14309   2.433   6.732   7.652  0.6677 -2.7068 -1.2786
  132OSM   H11G14310   2.449   6.619   7.764  1.2511  1.2972 -0.7840
  132OSM   C12F14311   2.263   6.711   7.804  0.5926 -0.1148 -0.2888
  132OSM   H12F14312   2.212   6.798   7.758 -0.5896  0.4011  1.8899
  132OSM   H12G14313   2.324   6.754   7.886 -2.5010  1.7783  1.1962
  132OSM   C13F14314   2.170   6.611   7.869 -0.3173  0.4909 -0.4625
  132OSM   H13F14315   2.225   6.524   7.912 -2.6251 -0.3082  1.0171
  132OSM   H13G14316   2.101   6.570   7.793  0.8573 -0.7496 -0.9101
  132OSM   C14F14317   2.099   6.677   7.981 -0.3122  0.2913  0.3999
  132OSM   H14F14318   2.059   6.778   7.957  0.6360  0.2147 -1.7597
  132OSM   H14G14319   2.166   6.690   8.068 -0.7841 -1.1853  1.0276
  132OSM   C15F14320   1.979   6.607   8.033  0.1936 -0.3102 -0.0245
  132OSM   H15F14321   2.014   6.506   8.064 -1.1313 -0.8479 -0.2492
  132OSM   H15G14322   1.894   6.604   7.962  0.4861 -1.0625 -0.3507
  132OSM   C16F14323   1.928   6.661   8.170 -0.4392  0.4290  0.3154
  132OSM   H16F14324   1.895   6.766   8.155 -1.4213  0.4708  2.4716
  132OSM   H16G14325   2.021   6.672   8.229 -1.5072  0.2480  2.0768
  132OSM   C17F14326   1.827   6.583   8.248 -0.3728  0.3343 -0.7251
  132OSM   H17F14327   1.852   6.475   8.257  2.3822  1.0617  2.4695
  132OSM   H17G14328   1.728   6.580   8.199 -1.1257 -1.5261  0.8054
  132OSM   C18F14329   1.816   6.640   8.391  0.6243 -0.5780 -0.1557
  132OSM   H18F14330   1.914   6.638   8.444 -0.0080 -0.0192  1.0797
  132OSM   H18G14331   1.742   6.585   8.453  0.7184  1.6118  2.0437
  132OSM   H18H14332   1.774   6.742   8.387 -0.2638 -0.9796 -2.2731
  133OSM      N14333   2.001   6.409   5.757 -0.0856  0.0201  0.1593
  133OSM    C1514334   2.131   6.358   5.710 -0.1217 -0.1882  0.1008
  133OSM   H15A14335   2.193   6.445   5.693 -2.1801  1.0254 -1.8953
  133OSM   H15B14336   2.132   6.292   5.625  1.4531 -0.9232  0.6636
  133OSM   H15C14337   2.178   6.304   5.791  1.6092 -0.1273 -0.8323
  133OSM    C1414338   2.030   6.493   5.877  0.0006 -0.0588  0.0824
  133OSM   H14A14339   2.102   6.569   5.852 -0.0455 -0.0838 -0.1258
  133OSM   H14B14340   2.072   6.429   5.953 -0.9734 -0.9653 -0.1035
  133OSM   H14C14341   1.940   6.543   5.910 -0.2738  1.1163 -2.2492
  133OSM    C1314342   1.948   6.496   5.644  0.4713  0.0304  0.2364
  133OSM   H13A14343   1.863   6.558   5.666  1.3483  1.1658  0.5310
  133OSM   H13B14344   1.916   6.427   5.567  0.7276 -1.0219  1.0330
  133OSM   H13C14345   2.027   6.555   5.601  0.5795 -0.5392 -0.3674
  133OSM    C1214346   1.906   6.288   5.782 -0.4666 -1.1787 -0.0851
  133OSM   H12A14347   1.952   6.222   5.854  0.3553  1.0787  1.5919
  133OSM   H12B14348   1.898   6.224   5.696 -1.3913 -0.6485 -0.4138
  133OSM    C1114349   1.769   6.329   5.836 -0.2485 -0.0706  0.9072
  133OSM   H11A14350   1.700   6.243   5.831 -0.0953 -0.1282 -1.4614
  133OSM   H11B14351   1.734   6.406   5.764 -0.4389 -1.9205 -1.0838
  133OSM      P14352   1.824   6.287   6.084 -0.5037  0.3678  0.5012
  133OSM    O1314353   1.748   6.159   6.068 -0.6904 -0.5116  0.0825
  133OSM    O1414354   1.971   6.280   6.089  0.4813 -0.2978  0.3486
  133OSM    O1114355   1.768   6.359   6.212  0.2410 -0.4381 -0.2150
  133OSM    O1214356   1.775   6.381   5.966  0.5174 -0.2283 -0.3193
  133OSM    C1S14357   1.635   6.367   6.263 -0.3578 -0.1827  0.0570
  133OSM    H1S14358   1.567   6.288   6.225 -3.3015  0.9465  2.5594
  133OSM    H1T14359   1.577   6.455   6.228 -1.4820 -0.4082  1.2838
  133OSM     NF14360   1.510   6.375   6.481  0.0159  0.6848 -0.1767
  133OSM    HNF14361   1.497   6.465   6.524  1.3303  2.0689 -2.4613
  133OSM    C2S14362   1.645   6.343   6.424  0.0628 -0.1408  0.2293
  133OSM    H2S14363   1.661   6.234   6.439 -1.1393 -0.2316  1.0028
  133OSM    C3S14364   1.747   6.433   6.489 -0.7022 -0.3150 -0.2840
  133OSM    H3S14365   1.735   6.531   6.438  0.6187 -0.4040 -0.8044
  133OSM     O314366   1.879   6.398   6.453 -1.0216 -0.7221 -0.0750
  133OSM    HO314367   1.868   6.330   6.386  2.0850  0.9277 -2.5407
  133OSM    C4S14368   1.746   6.440   6.643 -0.3401 -0.2245  0.0829
  133OSM    H4S14369   1.708   6.536   6.680 -2.4579 -1.5664  1.6275
  133OSM    C5S14370   1.795   6.355   6.732  0.0396 -0.3317 -0.4153
  133OSM    H5S14371   1.860   6.275   6.692 -0.6824 -1.3833  0.4688
  133OSM    C6S14372   1.795   6.383   6.881  0.3731  0.4568  0.2847
  133OSM    H6S14373   1.885   6.329   6.917  0.4985 -1.1264 -2.1875
  133OSM    H6T14374   1.710   6.333   6.932  1.6670 -0.9420  1.1558
  133OSM    C7S14375   1.815   6.525   6.937 -0.5915  0.4415  0.2874
  133OSM    H7S14376   1.735   6.596   6.906 -0.8602 -0.0826 -0.2477
  133OSM    H7T14377   1.901   6.577   6.890 -1.4504  0.9114 -0.8047
  133OSM    C8S14378   1.828   6.541   7.086 -0.6592 -0.2787 -0.1722
  133OSM    H8S14379   1.909   6.479   7.131  0.4149  0.9567 -0.3469
  133OSM    H8T14380   1.733   6.503   7.128 -0.7146 -1.6737 -1.4503
  133OSM    C9S14381   1.862   6.688   7.125 -0.1189  0.1430 -0.3266
  133OSM    H9S14382   1.774   6.745   7.088 -1.0805  0.0540  1.7126
  133OSM    H9T14383   1.947   6.743   7.080  1.1930 -0.5871  1.1905
  133OSM   C10S14384   1.873   6.701   7.278 -0.4270  0.4577 -0.6360
  133OSM   H10S14385   1.969   6.668   7.323 -0.5613 -0.0205 -0.6958
  133OSM   H10T14386   1.785   6.652   7.325 -0.9784 -0.0947 -2.2008
  133OSM   C11S14387   1.869   6.848   7.324  0.1403  0.2128 -0.3754
  133OSM   H11S14388   1.779   6.898   7.284  1.3391  0.6369 -2.6877
  133OSM   H11T14389   1.954   6.910   7.288 -0.5769  0.5978 -1.4306
  133OSM   C12S14390   1.887   6.867   7.478  0.3655  0.7054 -0.1511
  133OSM   H12S14391   1.988   6.840   7.514  0.5408  0.0167 -1.1277
  133OSM   H12T14392   1.821   6.786   7.515  0.5207  0.0967 -1.1904
  133OSM   C13S14393   1.838   7.004   7.531 -0.2501 -0.1294  0.2445
  133OSM   H13S14394   1.733   7.022   7.497 -0.9839 -4.0213  0.0053
  133OSM   H13T14395   1.901   7.090   7.500 -1.3854  0.0524 -1.7440
  133OSM   C14S14396   1.835   7.004   7.684  0.3572 -0.0635 -0.5852
  133OSM   H14S14397   1.804   7.109   7.704 -0.3241 -0.5265  0.9034
  133OSM   H14T14398   1.939   6.993   7.722 -0.2616  0.0549  1.2336
  133OSM   C15S14399   1.742   6.906   7.756  0.3468  0.0258  0.3756
  133OSM   H15S14400   1.778   6.801   7.752 -0.9978 -0.4377 -0.1084
  133OSM   H15T14401   1.652   6.896   7.691 -0.9031 -1.2567  2.1840
  133OSM   C16S14402   1.714   6.936   7.902 -1.2078 -0.8601  0.1243
  133OSM   H16S14403   1.667   7.037   7.895  0.7703  0.0654 -0.6571
  133OSM   H16T14404   1.808   6.953   7.959 -1.4713  4.0678 -0.4505
  133OSM   C17S14405   1.625   6.834   7.972  0.2015 -0.2291  0.0587
  133OSM   H17S14406   1.663   6.734   7.945  0.6316 -0.0784  0.1050
  133OSM   H17T14407   1.524   6.845   7.926  1.5871  3.2092 -2.6194
  133OSM   C18S14408   1.623   6.862   8.121 -0.2720 -0.2226  0.1273
  133OSM   H18S14409   1.719   6.904   8.157 -0.9851 -0.9221  3.1128
  133OSM   H18T14410   1.616   6.763   8.170 -1.6507  0.2291  0.9030
  133OSM   H18U14411   1.542   6.933   8.151 -0.5249 -1.5761  3.0547
  133OSM    C1F14412   1.415   6.290   6.448  0.7343  0.1396 -0.2510
  133OSM     OF14413   1.434   6.178   6.400 -0.2642  0.1879 -0.4387
  133OSM    C2F14414   1.277   6.331   6.479  0.1828 -0.2468  0.6717
  133OSM    H2F14415   1.219   6.352   6.387  3.2004  1.5308 -0.9912
  133OSM    H2G14416   1.282   6.432   6.525  1.5765  0.5638 -1.1121
  133OSM    C3F14417   1.206   6.227   6.562  0.7370  0.3748  0.1988
  133OSM    H3F14418   1.200   6.134   6.502 -0.7915  0.4451  0.2203
  133OSM    H3G14419   1.102   6.266   6.568  0.6633  0.0896  0.9470
  133OSM    C4F14420   1.264   6.203   6.691  0.0286 -0.3990 -0.6826
  133OSM    H4F14421   1.265   6.295   6.752  0.1378 -0.4160 -0.6581
  133OSM    H4G14422   1.372   6.180   6.677 -0.4500 -1.5040 -3.1670
  133OSM    C5F14423   1.179   6.101   6.785 -0.0414 -0.2418 -0.1102
  133OSM    H5F14424   1.206   5.996   6.760  1.3252  0.0515  0.0487
  133OSM    H5G14425   1.070   6.116   6.770 -0.2088 -0.2453  1.0610
  133OSM    C6F14426   1.212   6.134   6.940  0.0581  0.5777  0.8084
  133OSM    H6F14427   1.163   6.061   7.008 -0.5155  0.0250 -0.1748
  133OSM    H6G14428   1.166   6.232   6.965  2.6475  2.2212 -0.4138
  133OSM    C7F14429   1.361   6.142   6.967 -0.0907  0.3680 -0.2426
  133OSM    H7F14430   1.407   6.203   6.887 -0.3735 -0.3056 -0.9186
  133OSM    H7G14431   1.396   6.037   6.958 -0.7735  0.0718  0.4270
  133OSM    C8F14432   1.400   6.191   7.104 -0.0503  0.2473 -0.3705
  133OSM    H8F14433   1.308   6.200   7.166  0.7773 -0.4644  1.0026
  133OSM    H8G14434   1.446   6.291   7.090  0.6872 -0.2710 -1.8628
  133OSM    C9F14435   1.499   6.111   7.189 -0.5520 -0.1096  0.4189
  133OSM    H9F14436   1.599   6.103   7.143 -1.7140  0.9764 -2.4846
  133OSM   C10F14437   1.489   6.052   7.305  0.4014 -0.3934 -0.4555
  133OSM   H10F14438   1.573   6.006   7.359  0.8152  0.9261  0.0552
  133OSM   C11F14439   1.360   6.031   7.381 -0.5450  0.4060 -0.1333
  133OSM   H11F14440   1.294   6.120   7.377 -0.3045  0.5747 -0.3282
  133OSM   H11G14441   1.397   6.021   7.486 -0.8127  1.4984  0.0705
  133OSM   C12F14442   1.279   5.903   7.344 -0.6065 -0.6024  0.0947
  133OSM   H12F14443   1.343   5.819   7.311 -1.1348 -1.6011  1.5235
  133OSM   H12G14444   1.197   5.924   7.272 -2.3038  1.6628  2.4623
  133OSM   C13F14445   1.196   5.872   7.473  0.2299  0.6524  0.2689
  133OSM   H13F14446   1.134   5.957   7.509 -0.9861 -1.4188  3.4659
  133OSM   H13G14447   1.261   5.854   7.561 -0.5206 -2.6838  0.2889
  133OSM   C14F14448   1.108   5.745   7.455 -0.0803  0.0512 -0.0570
  133OSM   H14F14449   1.162   5.684   7.380 -0.3086 -1.9831  1.3540
  133OSM   H14G14450   1.014   5.788   7.415  0.6044  0.9614 -0.7355
  133OSM   C15F14451   1.079   5.659   7.585 -0.7570  0.1467 -0.2816
  133OSM   H15F14452   1.176   5.644   7.637 -1.4001  0.7405  1.1605
  133OSM   H15G14453   1.045   5.562   7.542  1.4914 -0.0899 -1.6648
  133OSM   C16F14454   0.968   5.702   7.682 -0.1114 -0.7504 -0.3581
  133OSM   H16F14455   0.873   5.719   7.628  0.5173  1.5681 -0.8460
  133OSM   H16G14456   1.002   5.797   7.730  1.2804 -2.5853  2.5608
  133OSM   C17F14457   0.952   5.605   7.798  0.1216  0.0376 -0.1934
  133OSM   H17F14458   0.895   5.659   7.876 -0.0866 -0.5435  0.0607
  133OSM   H17G14459   1.055   5.580   7.832 -0.5058 -1.5558  0.6189
  133OSM   C18F14460   0.870   5.478   7.764 -0.1421 -0.4449 -0.7155
  133OSM   H18F14461   0.860   5.412   7.853  0.4568  0.8717  0.3696
  133OSM   H18G14462   0.927   5.425   7.685 -0.5068  2.6536 -3.2522
  133OSM   H18H14463   0.769   5.505   7.726  0.2748  3.0193  0.2414
  134OSM      N14464   2.991   3.916   6.043 -0.2514 -0.2220 -0.1480
  134OSM    C1514465   2.910   4.003   5.955 -0.2242 -0.7988 -0.2788
  134OSM   H15A14466   2.941   3.996   5.852 -0.8954 -3.0189 -0.3787
  134OSM   H15B14467   2.925   4.103   5.994 -0.9299 -1.3355  1.5000
  134OSM   H15C14468   2.803   3.994   5.962 -0.1825 -1.3316 -0.3191
  134OSM    C1414469   3.137   3.960   6.031 -0.4207 -0.1628 -0.1472
  134OSM   H14A14470   3.169   3.951   5.928  1.3885  1.9735  0.1573
  134OSM   H14B14471   3.201   3.914   6.105 -1.1904 -0.8656  0.0921
  134OSM   H14C14472   3.142   4.066   6.051 -1.4139  0.4073 -2.5886
  134OSM    C1314473   2.956   3.943   6.183 -0.4861  0.1327 -0.0739
  134OSM   H13A14474   2.981   4.041   6.221  1.1731 -0.9793  1.9463
  134OSM   H13B14475   3.020   3.881   6.244 -0.5158  0.6843  0.5217
  134OSM   H13C14476   2.852   3.927   6.209 -0.8906 -0.0023 -1.6499
  134OSM    C1214477   2.973   3.772   6.005 -0.7186 -0.0587 -0.0551
  134OSM   H12A14478   3.051   3.708   6.043  1.3269  0.9161 -2.3888
  134OSM   H12B14479   2.977   3.763   5.897 -0.0669 -1.9799  0.0867
  134OSM    C1114480   2.844   3.695   6.044  0.3010 -0.8890  0.7442
  134OSM   H11A14481   2.829   3.608   5.977  2.8697 -0.1522 -0.9557
  134OSM   H11B14482   2.756   3.759   6.019  0.0797 -1.7294 -0.7682
  134OSM      P14483   2.882   3.535   6.245 -0.0148 -0.2741  0.1065
  134OSM    O1314484   2.778   3.498   6.344  0.4627 -0.2309  0.1708
  134OSM    O1414485   2.913   3.440   6.139 -0.2271 -0.2558  0.3612
  134OSM    O1114486   3.019   3.576   6.320  0.0359  0.6423  0.3641
  134OSM    O1214487   2.839   3.674   6.185  0.0592 -0.0368  0.0702
  134OSM    C1S14488   3.004   3.630   6.455  0.5189  0.5501  0.3433
  134OSM    H1S14489   2.943   3.558   6.512 -2.1694  1.5945 -1.0456
  134OSM    H1T14490   2.945   3.724   6.460  0.9306  0.8367 -0.0409
  134OSM     NF14491   3.108   3.687   6.662 -0.3064 -0.3496 -0.5693
  134OSM    HNF14492   3.128   3.781   6.691 -1.2417 -0.4936  0.5922
  134OSM    C2S14493   3.135   3.655   6.523  0.1013  0.3834  0.0675
  134OSM    H2S14494   3.193   3.561   6.512  0.5713  0.7159 -0.3776
  134OSM    C3S14495   3.212   3.765   6.437 -0.1127  0.1346  0.3801
  134OSM    H3S14496   3.150   3.857   6.448  0.8008  0.8366 -0.2787
  134OSM     O314497   3.230   3.723   6.301 -0.0990 -0.1819  0.0816
  134OSM    HO314498   3.171   3.647   6.292  3.2507 -3.2537  1.5762
  134OSM    C4S14499   3.348   3.779   6.509  0.0869  0.3315 -0.0529
  134OSM    H4S14500   3.341   3.846   6.596  1.7932  1.4102 -0.7013
  134OSM    C5S14501   3.461   3.708   6.490  0.1530 -0.5304  0.5828
  134OSM    H5S14502   3.477   3.641   6.404 -1.1123 -0.8675  0.5996
  134OSM    C6S14503   3.583   3.747   6.572 -0.3569  0.3649  0.6391
  134OSM    H6S14504   3.568   3.832   6.642  2.1012  1.2311  0.2087
  134OSM    H6T14505   3.659   3.770   6.495 -0.1615 -0.8601  0.4474
  134OSM    C7S14506   3.655   3.632   6.648  0.3278 -0.3494  0.6281
  134OSM    H7S14507   3.676   3.545   6.582 -1.5523  0.6776 -1.4861
  134OSM    H7T14508   3.601   3.606   6.741  1.7644 -1.4706  1.1863
  134OSM    C8S14509   3.795   3.667   6.699 -0.1191 -0.0158  0.4797
  134OSM    H8S14510   3.782   3.772   6.731 -1.3307 -0.4193  1.3928
  134OSM    H8T14511   3.869   3.676   6.616  0.1120 -0.9699  0.5692
  134OSM    C9S14512   3.843   3.578   6.818  0.0913  0.2161  0.1895
  134OSM    H9S14513   3.926   3.518   6.774 -0.6914 -0.0665 -0.9375
  134OSM    H9T14514   3.759   3.510   6.843 -1.8612  2.2800 -0.3830
  134OSM   C10S14515   3.885   3.664   6.947 -0.1829  0.4800 -0.0685
  134OSM   H10S14516   3.800   3.732   6.966 -0.9743 -0.6360  0.4556
  134OSM   H10T14517   3.986   3.710   6.939  0.9546 -1.8576  0.1143
  134OSM   C11S14518   3.906   3.572   7.068  0.2930  0.1872  0.5000
  134OSM   H11S14519   3.981   3.505   7.021 -0.0702  0.1351 -0.0163
  134OSM   H11T14520   3.817   3.510   7.094  0.2153  0.2524  0.3951
  134OSM   C12S14521   3.941   3.638   7.201  0.1557 -0.4422  1.1148
  134OSM   H12S14522   3.870   3.718   7.232 -1.4336 -1.2947 -0.1845
  134OSM   H12T14523   4.035   3.694   7.182  0.2284 -1.1479 -0.8393
  134OSM   C13S14524   3.953   3.544   7.318  0.9755 -0.2267  0.3375
  134OSM   H13S14525   3.987   3.596   7.410 -1.5070  0.6667  0.8264
  134OSM   H13T14526   4.022   3.461   7.290  1.5310  0.6321 -0.9490
  134OSM   C14S14527   3.810   3.489   7.346 -0.2393  0.5954 -0.1321
  134OSM   H14S14528   3.778   3.409   7.276 -1.2684  0.3118  0.6454
  134OSM   H14T14529   3.727   3.563   7.352 -2.6230 -1.8987 -0.6133
  134OSM   C15S14530   3.800   3.410   7.478 -0.0587  0.0335 -0.0642
  134OSM   H15S14531   3.879   3.332   7.489 -0.4507 -0.4241 -0.4859
  134OSM   H15T14532   3.703   3.359   7.465  0.2907 -0.0556 -2.7576
  134OSM   C16S14533   3.798   3.504   7.598 -0.5240 -0.4120  0.6666
  134OSM   H16S14534   3.719   3.582   7.590  0.3729  0.3755 -1.1669
  134OSM   H16T14535   3.896   3.552   7.615  0.1834 -1.7014  0.3553
  134OSM   C17S14536   3.764   3.427   7.726  0.7997  0.4005  0.0419
  134OSM   H17S14537   3.841   3.347   7.736  0.0015 -0.4696 -0.6205
  134OSM   H17T14538   3.662   3.384   7.716  0.5352  0.9901  0.1480
  134OSM   C18S14539   3.783   3.511   7.850  0.1237 -0.1051 -0.5175
  134OSM   H18S14540   3.880   3.565   7.842 -0.1236  0.4846  0.3333
  134OSM   H18T14541   3.775   3.453   7.944  0.0862 -1.5675 -1.3955
  134OSM   H18U14542   3.700   3.585   7.848 -0.0091 -0.1909 -3.5017
  134OSM    C1F14543   3.058   3.602   6.747  0.5084 -0.0932 -0.0476
  134OSM     OF14544   3.069   3.480   6.725  0.1311 -0.5331  0.8500
  134OSM    C2F14545   2.984   3.656   6.868 -0.3149  0.4728 -0.3740
  134OSM    H2F14546   2.875   3.664   6.848  0.1229 -1.3269 -4.6846
  134OSM    H2G14547   3.030   3.754   6.888  0.4212  0.1188 -0.3057
  134OSM    C3F14548   2.991   3.563   6.990  0.1687  0.2961 -0.5156
  134OSM    H3F14549   3.097   3.549   7.021  0.2620  2.9649  0.6121
  134OSM    H3G14550   2.961   3.462   6.953  2.9813  0.7811 -4.8090
  134OSM    C4F14551   2.917   3.618   7.112  0.3782  0.1166  0.1983
  134OSM    H4F14552   2.816   3.659   7.088  0.0199 -0.6710  0.3309
  134OSM    H4G14553   2.953   3.722   7.131  0.4413  0.1633 -0.1668
  134OSM    C5F14554   2.937   3.548   7.244 -0.9643  0.4506 -0.1647
  134OSM    H5F14555   3.042   3.564   7.276 -0.5211  2.3291 -2.3043
  134OSM    H5G14556   2.912   3.439   7.242  0.5542  0.0812 -1.6591
  134OSM    C6F14557   2.854   3.624   7.348 -0.1437 -0.3821  0.5743
  134OSM    H6F14558   2.746   3.621   7.322 -0.3148  0.5977  1.1452
  134OSM    H6G14559   2.881   3.731   7.339 -0.5770 -0.4205 -2.0457
  134OSM    C7F14560   2.884   3.577   7.488  0.9858 -0.5731  0.4658
  134OSM    H7F14561   2.990   3.602   7.508  0.6531  1.1977  0.1822
  134OSM    H7G14562   2.891   3.466   7.486  2.4446 -0.4968 -0.2391
  134OSM    C8F14563   2.794   3.637   7.590  0.0443 -0.0029  0.4143
  134OSM    H8F14564   2.694   3.609   7.551 -1.2114  1.5779  2.2837
  134OSM    H8G14565   2.804   3.747   7.586  0.9112 -0.1135 -0.7378
  134OSM    C9F14566   2.802   3.579   7.732 -0.3340  0.0725 -0.1418
  134OSM    H9F14567   2.817   3.471   7.738  0.1298  0.1764  0.7215
  134OSM   C10F14568   2.799   3.650   7.845  0.5779 -0.1264  0.5532
  134OSM   H10F14569   2.798   3.598   7.942 -1.8256 -1.4134 -0.0963
  134OSM   C11F14570   2.778   3.793   7.872 -0.5245  0.5218  0.6073
  134OSM   H11F14571   2.707   3.797   7.958 -1.3120  1.3652 -0.0573
  134OSM   H11G14572   2.736   3.850   7.787 -2.0262  1.4584  1.9275
  134OSM   C12F14573   2.903   3.876   7.912 -0.1594 -0.9543  0.2594
  134OSM   H12F14574   2.876   3.984   7.920  2.3108 -0.3894  2.4742
  134OSM   H12G14575   2.983   3.876   7.834  1.0034  2.8786  1.2155
  134OSM   C13F14576   2.962   3.836   8.053 -0.5940 -0.2905  0.8855
  134OSM   H13F14577   2.990   3.731   8.027  0.8099  0.7677 -2.4013
  134OSM   H13G14578   2.878   3.834   8.125 -2.0914 -2.6402 -0.7630
  134OSM   C14F14579   3.082   3.923   8.098  0.6280  0.0418 -0.1644
  134OSM   H14F14580   3.166   3.936   8.027  0.2615  0.7984 -0.4743
  134OSM   H14G14581   3.131   3.874   8.184  0.1537 -0.5308 -0.2142
  134OSM   C15F14582   3.037   4.065   8.130  0.0513  0.7189  0.0422
  134OSM   H15F14583   2.945   4.064   8.192  0.5158 -1.4927  0.7819
  134OSM   H15G14584   3.022   4.127   8.039  1.4037  1.4651  0.2936
  134OSM   C16F14585   3.131   4.152   8.218  0.2379  0.1833 -0.5898
  134OSM   H16F14586   3.141   4.112   8.321  0.5870 -0.4494 -0.8597
  134OSM   H16G14587   3.086   4.253   8.225  3.4010  1.6873 -0.1695
  134OSM   C17F14588   3.278   4.163   8.163  0.4176 -0.5577 -0.5641
  134OSM   H17F14589   3.265   4.195   8.057 -0.0139 -1.1364 -0.6929
  134OSM   H17G14590   3.319   4.060   8.158  0.6996 -0.4876  0.1368
  134OSM   C18F14591   3.365   4.260   8.245 -0.4311  0.3008 -0.6775
  134OSM   H18F14592   3.436   4.196   8.302  0.3567 -0.8432 -2.8307
  134OSM   H18G14593   3.304   4.316   8.319 -0.9267 -1.1715  0.0865
  134OSM   H18H14594   3.415   4.347   8.198 -0.0128 -1.8395 -4.6017
  135OSM      N14595   2.855   2.755   6.362  0.1892 -0.2804  0.1159
  135OSM    C1514596   2.737   2.806   6.286 -0.0029 -0.7537 -0.6536
  135OSM   H15A14597   2.645   2.764   6.325  1.0018 -1.3142  1.2851
  135OSM   H15B14598   2.746   2.778   6.182 -0.1802 -0.9104 -0.6272
  135OSM   H15C14599   2.719   2.912   6.290 -1.3061 -0.9830 -0.0386
  135OSM    C1414600   2.827   2.768   6.505 -0.7137 -0.4941  0.1801
  135OSM   H14A14601   2.730   2.728   6.533 -0.3489 -1.5441 -0.0204
  135OSM   H14B14602   2.842   2.874   6.519 -1.6021 -0.1059 -1.5373
  135OSM   H14C14603   2.903   2.717   6.562 -0.8809 -0.3417  0.5447
  135OSM    C1314604   2.878   2.608   6.331 -0.4069  0.3132 -0.1079
  135OSM   H13A14605   2.777   2.577   6.312 -0.2582  0.4917 -1.3410
  135OSM   H13B14606   2.921   2.544   6.406  0.1017 -1.7790 -2.0454
  135OSM   H13C14607   2.916   2.590   6.231  0.3026  0.6779  0.0845
  135OSM    C1214608   2.988   2.832   6.334  0.3653  0.5932  0.1165
  135OSM   H12A14609   3.063   2.808   6.408 -0.0563  0.6472  0.5674
  135OSM   H12B14610   2.966   2.936   6.358  1.7157  1.1173 -0.8099
  135OSM    C1114611   3.048   2.826   6.190  0.0639 -0.0938 -0.7555
  135OSM   H11A14612   3.049   2.729   6.134  0.2429 -0.0628 -0.8067
  135OSM   H11B14613   3.150   2.870   6.194 -0.4081  0.9287  0.6605
  135OSM      P14614   2.984   3.064   6.102 -0.4239 -0.1104 -0.1609
  135OSM    O1314615   3.053   3.099   5.977  0.1215 -0.7316  0.3736
  135OSM    O1414616   2.845   3.116   6.121  0.2467 -0.0966  0.9281
  135OSM    O1114617   3.078   3.089   6.230 -0.6618 -0.2518  0.2669
  135OSM    O1214618   2.976   2.908   6.103  0.2353 -1.1710 -0.7326
  135OSM    C1S14619   3.041   3.184   6.331  0.0640  0.6491  0.2940
  135OSM    H1S14620   2.933   3.176   6.360  0.4007 -0.9184  1.2329
  135OSM    H1T14621   3.045   3.289   6.296 -0.4889 -0.2886 -2.8482
  135OSM     NF14622   3.059   3.235   6.570  0.6720 -0.1805 -0.3419
  135OSM    HNF14623   3.069   3.331   6.596  1.1759 -0.3431  0.0817
  135OSM    C2S14624   3.131   3.171   6.460  0.0782 -0.5587 -0.0403
  135OSM    H2S14625   3.130   3.064   6.489 -1.6543 -0.1688  1.4666
  135OSM    C3S14626   3.269   3.231   6.436 -0.4448  0.6418 -0.2046
  135OSM    H3S14627   3.268   3.334   6.395 -0.4554  0.9253  0.4955
  135OSM     O314628   3.338   3.149   6.339 -0.2406 -0.5644 -0.3166
  135OSM    HO314629   3.265   3.092   6.314  0.0567 -1.6693  1.2126
  135OSM    C4S14630   3.346   3.233   6.568  0.1075  0.3107 -0.3335
  135OSM    H4S14631   3.368   3.131   6.605 -0.4391  0.3058 -0.0059
  135OSM    C5S14632   3.397   3.340   6.627  0.2826 -0.2349  0.0751
  135OSM    H5S14633   3.402   3.437   6.576 -0.4711 -0.5653 -0.6429
  135OSM    C6S14634   3.473   3.340   6.755 -0.2269  0.0628 -0.0978
  135OSM    H6S14635   3.575   3.379   6.735 -0.2998 -0.0318 -0.6905
  135OSM    H6T14636   3.479   3.239   6.799 -0.6608  0.1654  0.2023
  135OSM    C7S14637   3.412   3.428   6.865  0.1435  0.9775  0.2745
  135OSM    H7S14638   3.310   3.388   6.883  0.7518 -0.5024  0.5801
  135OSM    H7T14639   3.405   3.532   6.826  2.5417 -0.0153 -3.2209
  135OSM    C8S14640   3.500   3.428   6.989 -0.1368 -0.9503 -0.3191
  135OSM    H8S14641   3.594   3.487   6.988 -0.3506 -0.5989 -1.9772
  135OSM    H8T14642   3.522   3.321   7.008  1.8989 -0.4187  0.5861
  135OSM    C9S14643   3.414   3.487   7.102  0.0158 -0.5792 -0.2319
  135OSM    H9S14644   3.320   3.428   7.102 -1.7223  2.0117 -0.6912
  135OSM    H9T14645   3.387   3.591   7.073 -1.4994 -1.3299 -1.6731
  135OSM   C10S14646   3.468   3.481   7.243 -1.0553  0.2349 -0.6095
  135OSM   H10S14647   3.560   3.542   7.256 -0.8208  0.2880 -2.3273
  135OSM   H10T14648   3.494   3.376   7.268  0.9997  1.0895  1.2533
  135OSM   C11S14649   3.368   3.531   7.350  0.0805  0.7042  0.1841
  135OSM   H11S14650   3.267   3.488   7.335  0.3600 -1.3417  3.2906
  135OSM   H11T14651   3.367   3.640   7.327 -2.6411  0.2786 -2.4413
  135OSM   C12S14652   3.418   3.497   7.488 -0.7227 -0.4562 -0.2124
  135OSM   H12S14653   3.519   3.538   7.509 -0.9155 -1.0200  2.1590
  135OSM   H12T14654   3.431   3.389   7.506  0.0868 -0.3880 -0.3454
  135OSM   C13S14655   3.337   3.545   7.609  0.6103  0.5316 -0.4063
  135OSM   H13S14656   3.233   3.507   7.596  0.8526 -0.1964 -0.2616
  135OSM   H13T14657   3.331   3.656   7.612  0.6730  0.5176  1.1450
  135OSM   C14S14658   3.387   3.517   7.748 -0.0568  0.3252  0.2209
  135OSM   H14S14659   3.490   3.555   7.760  0.1703 -0.1839 -0.1179
  135OSM   H14T14660   3.391   3.407   7.760  0.1443  0.4175  1.0686
  135OSM   C15S14661   3.295   3.556   7.861 -0.0392 -0.5732  0.1712
  135OSM   H15S14662   3.190   3.521   7.852 -0.3124  0.4778 -0.9761
  135OSM   H15T14663   3.291   3.666   7.846 -0.0692 -0.4179  1.2134
  135OSM   C16S14664   3.351   3.527   8.003 -0.1848 -0.4944 -0.2285
  135OSM   H16S14665   3.459   3.549   8.005  0.2401 -2.2659 -1.5579
  135OSM   H16T14666   3.340   3.417   8.016  0.3157 -0.4783  0.3615
  135OSM   C17S14667   3.280   3.600   8.112 -0.3469 -0.0175 -0.9643
  135OSM   H17S14668   3.173   3.573   8.123 -0.2584  0.2623  1.0588
  135OSM   H17T14669   3.276   3.711   8.102  0.6575  0.3437  1.6309
  135OSM   C18S14670   3.347   3.579   8.254 -0.5779 -0.6704  0.6321
  135OSM   H18S14671   3.442   3.637   8.252 -0.9351 -0.0648 -1.9443
  135OSM   H18T14672   3.371   3.471   8.263 -1.1178 -1.1749 -2.6420
  135OSM   H18U14673   3.276   3.605   8.336  0.5329 -2.1601  2.1377
  135OSM    C1F14674   2.947   3.186   6.626 -0.1001  0.5650  0.4753
  135OSM     OF14675   2.928   3.061   6.616 -0.0504 -0.1764  0.5578
  135OSM    C2F14676   2.852   3.287   6.698  0.6265 -0.3980 -0.1444
  135OSM    H2F14677   2.851   3.383   6.642  0.6964  0.4419  1.2717
  135OSM    H2G14678   2.910   3.315   6.788  0.1710 -1.5880  0.5416
  135OSM    C3F14679   2.720   3.206   6.734 -0.0018  0.0918 -0.1363
  135OSM    H3F14680   2.748   3.133   6.813  0.0622  1.8268  1.5074
  135OSM    H3G14681   2.681   3.147   6.648 -0.4828  1.5468 -0.9496
  135OSM    C4F14682   2.594   3.283   6.779 -0.5645 -0.5934  0.0201
  135OSM    H4F14683   2.517   3.204   6.790 -2.1363  0.9176  0.5257
  135OSM    H4G14684   2.548   3.350   6.703 -0.8383  0.4448  1.0557
  135OSM    C5F14685   2.610   3.358   6.920  0.0980 -0.3198 -0.0468
  135OSM    H5F14686   2.533   3.437   6.927 -0.7268 -1.1763  0.7155
  135OSM    H5G14687   2.711   3.403   6.934  0.2739 -0.3848 -1.0322
  135OSM    C6F14688   2.603   3.260   7.035  0.0878  0.2108 -0.1688
  135OSM    H6F14689   2.701   3.208   7.045 -0.2397 -0.5499 -0.8173
  135OSM    H6G14690   2.513   3.196   7.029 -0.3037  0.5111  1.7794
  135OSM    C7F14691   2.592   3.341   7.164 -0.3321 -0.5720  1.1249
  135OSM    H7F14692   2.503   3.407   7.174  0.7871  1.7356 -2.5371
  135OSM    H7G14693   2.679   3.410   7.171  0.1051 -1.1251  1.2089
  135OSM    C8F14694   2.595   3.257   7.290 -0.2852 -0.1697  0.0996
  135OSM    H8F14695   2.690   3.200   7.284  0.2071  0.6616 -0.0340
  135OSM    H8G14696   2.504   3.192   7.290 -0.9582  0.6988  1.8645
  135OSM    C9F14697   2.620   3.343   7.416 -0.0329 -0.1458 -0.1219
  135OSM    H9F14698   2.701   3.419   7.413 -1.9272  1.9626 -0.6124
  135OSM   C10F14699   2.548   3.340   7.530 -0.2927  0.5077 -0.0040
  135OSM   H10F14700   2.575   3.411   7.609  0.7298  0.6211 -0.4302
  135OSM   C11F14701   2.436   3.246   7.552  0.9144  0.6416 -0.0387
  135OSM   H11F14702   2.413   3.166   7.478 -0.1840 -0.4869  1.4667
  135OSM   H11G14703   2.340   3.301   7.555  0.1683 -0.5252 -1.5379
  135OSM   C12F14704   2.472   3.176   7.684  0.1930  0.2300 -0.5383
  135OSM   H12F14705   2.567   3.120   7.671  1.3706  1.9560  0.1451
  135OSM   H12G14706   2.384   3.111   7.705 -0.3309  1.5104  1.6195
  135OSM   C13F14707   2.498   3.273   7.806 -0.4702  0.9621  0.3600
  135OSM   H13F14708   2.421   3.353   7.805 -1.3982  0.1515  2.2107
  135OSM   H13G14709   2.597   3.321   7.790 -0.5008  0.4012 -1.8279
  135OSM   C14F14710   2.493   3.201   7.936 -0.0106  0.7503 -0.1082
  135OSM   H14F14711   2.399   3.141   7.946  0.8868 -0.4335  1.8869
  135OSM   H14G14712   2.496   3.278   8.015 -2.2778  0.5237  0.2623
  135OSM   C15F14713   2.602   3.095   7.966  0.3120  0.3560 -0.4579
  135OSM   H15F14714   2.709   3.126   7.959  0.0631  2.2370  2.3505
  135OSM   H15G14715   2.590   3.014   7.891 -2.7575 -0.0859  0.3946
  135OSM   C16F14716   2.580   3.025   8.103 -0.7338  0.4487  0.5998
  135OSM   H16F14717   2.485   2.969   8.106  0.0263 -0.8656  2.9250
  135OSM   H16G14718   2.568   3.096   8.188 -0.8850  2.0273 -0.6967
  135OSM   C17F14719   2.689   2.925   8.143  0.0606 -0.5433 -0.0370
  135OSM   H17F14720   2.796   2.956   8.131  0.0210 -0.3128  0.1814
  135OSM   H17G14721   2.670   2.841   8.074 -1.6146 -1.5232  1.5505
  135OSM   C18F14722   2.681   2.890   8.297  0.2592  0.5075 -0.2504
  135OSM   H18F14723   2.743   2.799   8.312  1.3693  1.0713 -1.2511
  135OSM   H18G14724   2.575   2.866   8.323  0.3280 -1.1082 -1.2552
  135OSM   H18H14725   2.727   2.971   8.356 -1.1088  1.0594  0.1088
  136OSM      N14726   0.784   4.459   5.636 -0.4053 -0.4890 -0.3583
  136OSM    C1514727   0.669   4.543   5.693 -1.0425 -0.1229  0.6186
  136OSM   H15A14728   0.704   4.596   5.780  2.9127 -0.6918 -0.4011
  136OSM   H15B14729   0.586   4.483   5.726 -0.4545 -0.3674  1.6810
  136OSM   H15C14730   0.631   4.611   5.618  0.1522 -1.6127 -1.4385
  136OSM    C1414731   0.762   4.416   5.498  0.4652 -0.1194 -0.5359
  136OSM   H14A14732   0.751   4.500   5.430 -0.3270  0.9817  0.8953
  136OSM   H14B14733   0.671   4.357   5.495  0.1351  0.2471  1.1553
  136OSM   H14C14734   0.844   4.352   5.468  1.2699  0.4817  0.3243
  136OSM    C1314735   0.905   4.548   5.627  0.6393 -0.0607 -0.0863
  136OSM   H13A14736   0.899   4.621   5.548  0.5632  0.1723  0.1348
  136OSM   H13B14737   0.994   4.488   5.614 -1.7461 -3.4738 -2.3038
  136OSM   H13C14738   0.914   4.596   5.723  1.0756  0.1324 -0.2216
  136OSM    C1214739   0.822   4.342   5.732 -0.3992  0.3537  0.1654
  136OSM   H12A14740   0.887   4.278   5.675 -0.3184 -0.6682  1.3565
  136OSM   H12B14741   0.731   4.299   5.770 -0.1371  0.0518  0.4605
  136OSM    C1114742   0.904   4.379   5.861  0.1281  0.0857 -0.2033
  136OSM   H11A14743   0.885   4.305   5.942 -0.8000  1.3814  0.8226
  136OSM   H11B14744   0.873   4.481   5.895 -1.8660 -1.0125  1.4844
  136OSM      P14745   1.129   4.270   5.800 -0.1353 -0.2152  0.4712
  136OSM    O1314746   1.065   4.211   5.679 -0.7176 -0.0007 -0.3587
  136OSM    O1414747   1.274   4.310   5.794 -0.4677 -0.7181  0.4251
  136OSM    O1114748   1.104   4.176   5.923 -0.2304  0.1305 -0.4166
  136OSM    O1214749   1.046   4.396   5.842  0.8635 -0.2039 -0.0963
  136OSM    C1S14750   1.141   4.204   6.057 -1.3036  0.0072  0.1873
  136OSM    H1S14751   1.108   4.305   6.090  1.4606 -0.0482  3.7896
  136OSM    H1T14752   1.252   4.206   6.071 -1.2520  1.8397 -0.1950
  136OSM     NF14753   1.117   4.145   6.299  0.2280  0.0343  0.4118
  136OSM    HNF14754   1.197   4.098   6.337  0.1251  0.6132  1.3929
  136OSM    C2S14755   1.075   4.110   6.164  0.3972 -1.0230 -0.0724
  136OSM    H2S14756   0.964   4.112   6.161  0.4121  0.3707 -0.3602
  136OSM    C3S14757   1.093   3.958   6.134 -0.4355 -0.5089 -0.6823
  136OSM    H3S14758   1.202   3.938   6.128  0.0890  2.0751 -0.9890
  136OSM     O314759   1.044   3.918   6.008 -0.6928 -0.1325 -0.0932
  136OSM    HO314760   1.058   3.992   5.947 -1.3682 -1.2660 -1.6952
  136OSM    C4S14761   1.033   3.874   6.245 -0.1801 -0.7003  0.1294
  136OSM    H4S14762   1.104   3.864   6.329 -1.5346  1.4594  1.6581
  136OSM    C5S14763   0.913   3.814   6.255 -0.6953  0.0439  0.0710
  136OSM    H5S14764   0.847   3.828   6.168 -1.0266  1.7239  0.5627
  136OSM    C6S14765   0.871   3.737   6.377 -0.3926  0.2289  0.3051
  136OSM    H6S14766   0.765   3.762   6.402 -0.2882  0.1278  0.8588
  136OSM    H6T14767   0.930   3.758   6.469  0.4944  0.1619 -0.2336
  136OSM    C7S14768   0.874   3.581   6.362  0.2869 -0.1409 -0.3206
  136OSM    H7S14769   0.974   3.534   6.357 -0.7686 -2.7592  1.0903
  136OSM    H7T14770   0.806   3.551   6.280 -1.9944  0.0390  1.3986
  136OSM    C8S14771   0.814   3.514   6.488 -0.1703  0.5381  0.3544
  136OSM    H8S14772   0.821   3.404   6.476 -0.2064  0.6387 -0.6709
  136OSM    H8T14773   0.707   3.544   6.494 -0.7474 -1.5056  0.9776
  136OSM    C9S14774   0.886   3.562   6.611  0.2894  0.1052 -0.1302
  136OSM    H9S14775   0.852   3.667   6.625  0.3470  0.2680 -1.1184
  136OSM    H9T14776   0.997   3.555   6.604  0.2910 -0.6301  0.6007
  136OSM   C10S14777   0.842   3.488   6.736  0.0652  0.2140  0.8577
  136OSM   H10S14778   0.882   3.385   6.727 -1.6018 -0.4699  0.9620
  136OSM   H10T14779   0.733   3.471   6.730  0.3096 -1.9161  1.6619
  136OSM   C11S14780   0.878   3.558   6.869 -0.4311 -0.5490  0.7651
  136OSM   H11S14781   0.836   3.661   6.866 -1.8828 -1.0912  1.6423
  136OSM   H11T14782   0.987   3.573   6.884 -0.8620  2.1608  1.7075
  136OSM   C12S14783   0.810   3.484   6.990  0.0760  0.1282 -0.7870
  136OSM   H12S14784   0.838   3.377   6.989 -1.5564 -0.3416  0.3061
  136OSM   H12T14785   0.699   3.492   6.985 -0.0458 -0.6013  0.4187
  136OSM   C13S14786   0.853   3.542   7.133  0.7725 -0.5503  0.0769
  136OSM   H13S14787   0.847   3.653   7.134  1.8390 -0.3391 -3.4063
  136OSM   H13T14788   0.953   3.502   7.163  0.2431 -0.3520  2.3093
  136OSM   C14S14789   0.757   3.501   7.246  0.1003  0.2230  0.3740
  136OSM   H14S14790   0.766   3.396   7.279 -1.4753  0.2607  1.0105
  136OSM   H14T14791   0.649   3.512   7.219 -0.5793 -1.3789  2.2430
  136OSM   C15S14792   0.784   3.589   7.370 -0.2237 -0.0667 -0.4645
  136OSM   H15S14793   0.738   3.690   7.370  0.8163  0.4313 -2.4511
  136OSM   H15T14794   0.892   3.613   7.373 -0.1786 -0.2187 -0.8224
  136OSM   C16S14795   0.728   3.519   7.494  0.5850 -0.5512  0.2272
  136OSM   H16S14796   0.794   3.430   7.504 -1.3404 -1.7938  2.7194
  136OSM   H16T14797   0.624   3.486   7.474  0.8269  0.0790 -2.5704
  136OSM   C17S14798   0.727   3.603   7.618  0.0463  0.2449  0.3001
  136OSM   H17S14799   0.661   3.692   7.609  1.3095  1.3257  1.1801
  136OSM   H17T14800   0.826   3.651   7.638  0.0881  0.3230 -0.0860
  136OSM   C18S14801   0.689   3.530   7.743 -0.2882  0.2161 -0.4496
  136OSM   H18S14802   0.580   3.533   7.761 -0.0742  0.4709  0.9400
  136OSM   H18T14803   0.732   3.576   7.835  2.1334 -0.4119 -1.1737
  136OSM   H18U14804   0.721   3.424   7.728  0.0776  0.2278  0.1866
  136OSM    C1F14805   1.079   4.251   6.368 -0.0501  0.3075  1.0819
  136OSM     OF14806   0.980   4.306   6.323 -0.0843  0.7578 -0.0197
  136OSM    C2F14807   1.153   4.293   6.485  0.6731 -0.4743  0.3006
  136OSM    H2F14808   1.259   4.324   6.475  0.3054  0.8296  0.2407
  136OSM    H2G14809   1.155   4.202   6.548  0.4851 -0.7320 -0.0584
  136OSM    C3F14810   1.084   4.408   6.568  0.1715 -0.2839 -0.3330
  136OSM    H3F14811   0.978   4.378   6.588  0.0748  0.1673 -0.1570
  136OSM    H3G14812   1.083   4.499   6.505  2.3227  1.7312  2.3073
  136OSM    C4F14813   1.169   4.437   6.695 -0.0531 -0.2532 -0.4681
  136OSM    H4F14814   1.134   4.536   6.731  0.3566  0.5900 -2.2908
  136OSM    H4G14815   1.278   4.438   6.675 -0.2194 -2.3415 -1.8116
  136OSM    C5F14816   1.135   4.341   6.812 -0.3201 -0.0110  0.5331
  136OSM    H5F14817   1.114   4.236   6.785  1.8345 -0.4432  0.4236
  136OSM    H5G14818   1.033   4.374   6.842 -0.4901 -0.9808  1.0643
  136OSM    C6F14819   1.224   4.350   6.929  0.0561 -0.2164 -0.2570
  136OSM    H6F14820   1.321   4.306   6.899 -0.6766 -1.5055 -0.8027
  136OSM    H6G14821   1.187   4.279   7.006 -0.5818  0.6753  0.2752
  136OSM    C7F14822   1.260   4.488   6.986 -0.1271 -0.6566 -0.7339
  136OSM    H7F14823   1.167   4.540   7.018  0.0982  0.1627 -1.3827
  136OSM    H7G14824   1.307   4.552   6.909  0.1659  1.2708  0.9666
  136OSM    C8F14825   1.363   4.497   7.103 -0.6620 -0.4663 -0.6245
  136OSM    H8F14826   1.433   4.582   7.088  1.5312 -1.3329  3.2395
  136OSM    H8G14827   1.420   4.402   7.112  1.4167  0.8908  1.6575
  136OSM    C9F14828   1.293   4.514   7.238 -0.6422 -0.1909  0.2997
  136OSM    H9F14829   1.248   4.613   7.254  1.1764  0.8858 -0.8781
  136OSM   C10F14830   1.292   4.427   7.338 -0.5901 -0.1423  0.0473
  136OSM   H10F14831   1.236   4.454   7.429 -0.2041  2.1316 -0.3391
  136OSM   C11F14832   1.361   4.294   7.336  0.0129 -0.5641  0.5384
  136OSM   H11F14833   1.467   4.316   7.313 -0.8287  2.3119 -0.9946
  136OSM   H11G14834   1.321   4.229   7.255 -1.1262  1.7880 -0.8694
  136OSM   C12F14835   1.351   4.230   7.475 -0.8013 -0.2996  0.5569
  136OSM   H12F14836   1.410   4.136   7.465  0.4451  0.5166  0.0059
  136OSM   H12G14837   1.248   4.197   7.499 -0.9836 -1.1858 -1.2895
  136OSM   C13F14838   1.410   4.304   7.593  1.0565 -0.4161  0.7633
  136OSM   H13F14839   1.356   4.400   7.608 -0.7298 -1.3339  0.4677
  136OSM   H13G14840   1.518   4.321   7.573  1.2855 -0.6065  1.7812
  136OSM   C14F14841   1.417   4.228   7.719 -0.6625 -0.1295  0.1160
  136OSM   H14F14842   1.319   4.183   7.742 -0.8456  0.7703  1.1428
  136OSM   H14G14843   1.445   4.304   7.795  0.4607 -0.5772  0.1770
  136OSM   C15F14844   1.525   4.114   7.722 -0.4098  0.2337 -0.4647
  136OSM   H15F14845   1.620   4.149   7.676  0.6050 -1.1033  0.5310
  136OSM   H15G14846   1.487   4.035   7.654 -2.7409  1.0982 -0.2572
  136OSM   C16F14847   1.569   4.065   7.859  0.8538 -0.1721 -0.1785
  136OSM   H16F14848   1.592   4.157   7.918 -0.7343  0.6155 -0.7287
  136OSM   H16G14849   1.657   3.998   7.850  1.4114  0.5198  0.0722
  136OSM   C17F14850   1.460   3.977   7.933 -0.0035  0.3886  0.4209
  136OSM   H17F14851   1.435   3.885   7.875  0.6504  0.7381 -0.4550
  136OSM   H17G14852   1.366   4.035   7.924 -0.7768 -0.6690  1.4333
  136OSM   C18F14853   1.487   3.943   8.074 -0.4051 -0.0670 -0.1849
  136OSM   H18F14854   1.387   3.920   8.118 -1.4278  0.9403 -1.8851
  136OSM   H18G14855   1.532   4.033   8.121 -2.5428  2.2189 -2.2077
  136OSM   H18H14856   1.561   3.862   8.089  0.4599  0.7549  0.0653
  137OSM      N14857   4.614   2.968   6.112 -0.0610  1.1889  0.2926
  137OSM    C1514858   4.642   3.113   6.123  0.4752 -0.1352 -0.1941
  137OSM   H15A14859   4.604   3.168   6.038  0.6082 -0.9849 -0.8139
  137OSM   H15B14860   4.746   3.140   6.119  0.1588  1.2230  0.0874
  137OSM   H15C14861   4.604   3.158   6.214 -0.3982  1.6444 -1.3779
  137OSM    C1414862   4.671   2.920   5.986 -0.2469 -0.6576  0.3338
  137OSM   H14A14863   4.649   2.990   5.907  0.1651 -1.0035 -0.0987
  137OSM   H14B14864   4.637   2.822   5.956 -0.0881 -0.4884 -0.4297
  137OSM   H14C14865   4.777   2.907   6.000 -0.0352  0.1512 -0.4230
  137OSM    C1314866   4.686   2.891   6.219  0.3834  0.5429  0.0952
  137OSM   H13A14867   4.638   2.910   6.314  1.2425  1.9871  0.2666
  137OSM   H13B14868   4.786   2.931   6.228  1.6403 -2.7579  3.3178
  137OSM   H13C14869   4.698   2.786   6.197 -0.7915  0.5693 -0.7572
  137OSM    C1214870   4.464   2.942   6.114  0.6048 -0.5634 -0.8358
  137OSM   H12A14871   4.435   2.838   6.122  0.8783 -0.5193  1.5685
  137OSM   H12B14872   4.422   2.970   6.019  0.1651 -1.3793 -0.8882
  137OSM    C1114873   4.388   3.016   6.233 -0.2402  0.0578 -0.1275
  137OSM   H11A14874   4.286   2.979   6.209 -0.1118  1.4838 -3.2769
  137OSM   H11B14875   4.393   3.125   6.213 -1.8922  0.0630 -0.6265
  137OSM      P14876   4.382   2.852   6.439 -0.2454 -0.1036  0.2535
  137OSM    O1314877   4.293   2.900   6.545 -0.0705 -0.6983 -0.3409
  137OSM    O1414878   4.336   2.746   6.345 -0.6385 -0.7768 -0.2894
  137OSM    O1114879   4.525   2.799   6.504  0.2496  0.9188 -0.2910
  137OSM    O1214880   4.438   2.983   6.362 -0.0916  0.1725  0.1898
  137OSM    C1S14881   4.615   2.896   6.559 -0.4821  0.2703 -0.0615
  137OSM    H1S14882   4.581   3.000   6.537  1.7799  0.8286 -1.1797
  137OSM    H1T14883   4.715   2.876   6.516  0.2171  0.2712  1.4906
  137OSM     NF14884   4.717   2.992   6.765 -0.1597  0.1886 -0.1668
  137OSM    HNF14885   4.813   2.973   6.781 -0.0759 -0.3090 -1.1874
  137OSM    C2S14886   4.640   2.877   6.712 -0.4955 -0.5167 -0.0567
  137OSM    H2S14887   4.548   2.874   6.775 -0.2510  2.7417  0.6402
  137OSM    C3S14888   4.693   2.730   6.734  0.4191 -0.3483  0.7782
  137OSM    H3S14889   4.780   2.713   6.667  0.5732 -0.3290  0.9694
  137OSM     O314890   4.596   2.631   6.696  0.0627  0.0162 -0.2992
  137OSM    HO314891   4.543   2.685   6.637 -0.2196  3.3861  2.6566
  137OSM    C4S14892   4.735   2.719   6.878  0.3354 -0.9475 -0.2486
  137OSM    H4S14893   4.837   2.757   6.896  0.6929 -1.1807 -1.6360
  137OSM    C5S14894   4.655   2.695   6.985  0.2934  0.3535  0.0315
  137OSM    H5S14895   4.548   2.705   6.962  0.4397  1.2289 -0.3138
  137OSM    C6S14896   4.699   2.683   7.124 -0.2712 -0.4865  0.2176
  137OSM    H6S14897   4.809   2.680   7.135 -0.1389 -0.0812 -0.8186
  137OSM    H6T14898   4.675   2.588   7.175  1.1924 -0.0650  1.7878
  137OSM    C7S14899   4.651   2.802   7.216 -0.1347 -0.4708 -0.3423
  137OSM    H7S14900   4.541   2.813   7.206 -0.0992  0.7759  0.5166
  137OSM    H7T14901   4.697   2.900   7.191  0.8244 -0.2121  2.2229
  137OSM    C8S14902   4.677   2.782   7.367  0.7526 -0.1542  0.7839
  137OSM    H8S14903   4.632   2.684   7.394 -0.4152 -0.4482 -1.8804
  137OSM    H8T14904   4.620   2.856   7.428  0.5174 -0.3258  0.7742
  137OSM    C9S14905   4.828   2.782   7.405 -0.5942 -0.1717  0.1939
  137OSM    H9S14906   4.877   2.870   7.358 -0.7197  0.6664  1.5782
  137OSM    H9T14907   4.870   2.697   7.346 -0.4616  0.7755 -1.1401
  137OSM   C10S14908   4.845   2.790   7.551 -0.2681 -0.6774 -0.7421
  137OSM   H10S14909   4.822   2.695   7.604  0.2929 -1.2172 -1.4421
  137OSM   H10T14910   4.788   2.872   7.598  2.0160  0.2721  0.4796
  137OSM   C11S14911   4.993   2.820   7.583 -0.5099 -0.5072  0.1065
  137OSM   H11S14912   5.021   2.913   7.530  1.9215 -1.0975  0.2424
  137OSM   H11T14913   5.063   2.738   7.557  0.7700  1.1847 -2.0760
  137OSM   C12S14914   5.014   2.851   7.729 -0.1145 -0.4220  0.6061
  137OSM   H12S14915   4.978   2.762   7.786 -0.6438  0.8927  2.4039
  137OSM   H12T14916   4.964   2.943   7.766  0.3788  0.2516 -0.3621
  137OSM   C13S14917   5.163   2.858   7.774  0.2488  0.1948 -0.1270
  137OSM   H13S14918   5.221   2.935   7.719 -1.0002  0.1058 -1.6314
  137OSM   H13T14919   5.206   2.759   7.748 -0.6401  0.4426 -2.8596
  137OSM   C14S14920   5.175   2.891   7.928 -0.2346  0.5457  0.0668
  137OSM   H14S14921   5.279   2.862   7.957 -0.2194  0.8678  0.3439
  137OSM   H14T14922   5.106   2.820   7.980 -1.1738 -0.7686 -2.8056
  137OSM   C15S14923   5.147   3.036   7.970  0.1040  0.0564  0.1254
  137OSM   H15S14924   5.036   3.044   7.972  0.2338  3.7204 -0.1324
  137OSM   H15T14925   5.172   3.111   7.891 -3.6162  0.0835 -1.2197
  137OSM   C16S14926   5.199   3.073   8.106 -0.4605  0.2400 -0.5089
  137OSM   H16S14927   5.171   3.011   8.193  1.5812 -1.3602 -0.9136
  137OSM   H16T14928   5.150   3.170   8.129  0.8600  1.0046 -0.7987
  137OSM   C17S14929   5.352   3.101   8.128  0.2010 -0.0207 -0.7829
  137OSM   H17S14930   5.414   3.014   8.096  1.7811  1.3453 -1.6427
  137OSM   H17T14931   5.374   3.105   8.237  3.4450 -1.5075 -1.2782
  137OSM   C18S14932   5.396   3.233   8.064  0.3004 -0.0790  0.3448
  137OSM   H18S14933   5.505   3.248   8.070  0.4227 -1.2830  1.9207
  137OSM   H18T14934   5.344   3.325   8.099  0.8224  0.9554 -1.4762
  137OSM   H18U14935   5.388   3.217   7.954  1.1504  0.4083  0.2036
  137OSM    C1F14936   4.660   3.111   6.789  0.2241  0.5684 -0.1334
  137OSM     OF14937   4.536   3.121   6.787  0.1214 -0.2321  0.1360
  137OSM    C2F14938   4.753   3.225   6.806  0.1703  0.0718 -0.3083
  137OSM    H2F14939   4.736   3.287   6.715  0.6138 -1.2889 -1.3424
  137OSM    H2G14940   4.857   3.188   6.801 -0.1798 -1.3073  1.4804
  137OSM    C3F14941   4.722   3.307   6.940  0.1592  0.1876 -1.0727
  137OSM    H3F14942   4.619   3.348   6.943  0.4415  0.8622  0.2552
  137OSM    H3G14943   4.790   3.394   6.944 -0.7295  0.8635 -0.2923
  137OSM    C4F14944   4.755   3.233   7.072 -0.2466  0.1475  0.3668
  137OSM    H4F14945   4.864   3.212   7.082 -0.6051 -1.4135  1.3735
  137OSM    H4G14946   4.705   3.135   7.056  1.6956 -0.6405 -1.4054
  137OSM    C5F14947   4.712   3.324   7.186 -0.0286 -0.5558 -0.2249
  137OSM    H5F14948   4.606   3.356   7.174  0.4854  1.4549  0.2303
  137OSM    H5G14949   4.767   3.420   7.182  0.8198 -0.9977  0.6290
  137OSM    C6F14950   4.739   3.266   7.329 -0.2285  0.0283  0.3069
  137OSM    H6F14951   4.833   3.209   7.314 -0.6048 -0.7624  0.8894
  137OSM    H6G14952   4.654   3.198   7.353 -0.2542 -0.0915 -0.1228
  137OSM    C7F14953   4.743   3.371   7.438 -0.0771 -0.0616 -0.2957
  137OSM    H7F14954   4.647   3.425   7.421 -0.0660 -0.8297 -3.2200
  137OSM    H7G14955   4.828   3.441   7.430 -0.2807  0.1312 -0.7774
  137OSM    C8F14956   4.756   3.305   7.577  0.1826 -0.2271  0.2145
  137OSM    H8F14957   4.861   3.275   7.597  0.8702  2.3435  0.8161
  137OSM    H8G14958   4.701   3.208   7.580  0.4939 -0.3833  1.0892
  137OSM    C9F14959   4.724   3.411   7.681 -0.3158 -0.3178  0.4445
  137OSM    H9F14960   4.687   3.505   7.640 -1.4795 -0.9575 -0.0252
  137OSM   C10F14961   4.744   3.391   7.810 -0.4118 -0.2465  0.9440
  137OSM   H10F14962   4.714   3.479   7.869  3.0730  0.5511  1.7225
  137OSM   C11F14963   4.806   3.271   7.886 -0.1697 -0.0564  0.4795
  137OSM   H11F14964   4.879   3.225   7.817 -0.3812  1.1359 -0.5707
  137OSM   H11G14965   4.727   3.196   7.910  0.4333 -1.6923 -2.3282
  137OSM   C12F14966   4.883   3.312   8.020  0.3011  0.3221  0.5785
  137OSM   H12F14967   4.952   3.397   8.000 -1.2007  1.5418  0.4213
  137OSM   H12G14968   4.946   3.222   8.040  1.0739  0.6272 -0.3794
  137OSM   C13F14969   4.804   3.324   8.154  0.2676 -0.3476  0.7754
  137OSM   H13F14970   4.737   3.412   8.153  1.1297  0.3209 -0.1794
  137OSM   H13G14971   4.882   3.338   8.232 -1.0789 -1.0111  2.2894
  137OSM   C14F14972   4.735   3.190   8.175  0.4857  0.3836  0.4299
  137OSM   H14F14973   4.795   3.110   8.126 -1.9398 -0.5748 -1.1827
  137OSM   H14G14974   4.635   3.187   8.127  0.8571  0.7138 -0.3862
  137OSM   C15F14975   4.728   3.151   8.326 -0.4969 -0.4931 -0.1498
  137OSM   H15F14976   4.662   3.062   8.337  0.0132 -1.1391 -1.8222
  137OSM   H15G14977   4.676   3.236   8.374  2.3009  1.0587  0.3674
  137OSM   C16F14978   4.861   3.116   8.385 -0.9235 -0.0542  0.6733
  137OSM   H16F14979   4.928   3.205   8.386  0.2078 -0.8552 -0.5237
  137OSM   H16G14980   4.907   3.041   8.317  0.6548  0.9621  0.5470
  137OSM   C17F14981   4.865   3.065   8.528  0.7092  0.5941 -0.0849
  137OSM   H17F14982   4.807   2.970   8.534  0.8226  0.5163 -0.2087
  137OSM   H17G14983   4.822   3.144   8.592 -0.8636 -0.3867  0.1361
  137OSM   C18F14984   5.005   3.047   8.587  0.1742 -0.3132 -0.3135
  137OSM   H18F14985   5.062   2.975   8.524  0.4050 -0.0328 -0.4336
  137OSM   H18G14986   5.006   3.008   8.691  1.4970 -0.5118 -0.3754
  137OSM   H18H14987   5.053   3.147   8.586  0.9947 -0.6840 -2.0766
  138OSM      N14988   4.629   4.500   5.957 -0.0248 -0.3492  0.2641
  138OSM    C1514989   4.717   4.489   5.832  0.1927  0.8410 -0.0466
  138OSM   H15A14990   4.799   4.420   5.826  0.3004  0.9988 -0.4163
  138OSM   H15B14991   4.757   4.586   5.807  0.2762  1.2132  1.4055
  138OSM   H15C14992   4.653   4.460   5.750 -1.1180 -1.5385  1.6751
  138OSM    C1414993   4.707   4.564   6.061 -0.2187  0.4626 -0.4022
  138OSM   H14A14994   4.751   4.655   6.023 -0.0180  1.0103  1.0574
  138OSM   H14B14995   4.790   4.504   6.094 -0.2026  0.6674 -0.0589
  138OSM   H14C14996   4.647   4.582   6.149 -0.0636  1.5460 -0.5030
  138OSM    C1314997   4.511   4.588   5.923  0.3949 -0.3458  0.8843
  138OSM   H13A14998   4.458   4.539   5.843 -0.2380  0.5627  0.7460
  138OSM   H13B14999   4.546   4.685   5.893 -0.5988 -0.9670 -2.8108
  138OSM   H13C15000   4.439   4.589   6.003 -2.2154  0.9587 -1.3394
  138OSM    C1215001   4.576   4.364   5.985 -0.6311  0.0595  0.1070
  138OSM   H12A15002   4.518   4.324   5.903  0.2194 -0.5958 -0.1982
  138OSM   H12B15003   4.503   4.372   6.063 -1.1789  1.2744 -0.4959
  138OSM    C1115004   4.682   4.257   6.031 -0.2521 -0.2682  0.1202
  138OSM   H11A15005   4.771   4.275   5.968  0.4221  0.2073  1.1733
  138OSM   H11B15006   4.639   4.157   6.013 -1.9521  0.1651  1.4167
  138OSM      P15007   4.841   4.275   6.234  0.0279  0.5913  0.1056
  138OSM    O1315008   4.928   4.177   6.166 -0.3735 -0.3497 -0.7078
  138OSM    O1415009   4.897   4.407   6.244 -0.3628 -0.2167 -0.1785
  138OSM    O1115010   4.806   4.227   6.371 -0.1811  0.1949  0.4148
  138OSM    O1215011   4.702   4.276   6.172 -0.0456 -0.3673 -0.8010
  138OSM    C1S15012   4.741   4.096   6.384  0.1458 -0.2114 -0.8100
  138OSM    H1S15013   4.796   4.018   6.327  1.6521  0.6356 -0.5865
  138OSM    H1T15014   4.639   4.089   6.340  0.1015 -0.7771 -0.6170
  138OSM     NF15015   4.709   3.918   6.571  0.0054  0.1816 -0.6809
  138OSM    HNF15016   4.634   3.894   6.632  0.7123  1.2047  0.6586
  138OSM    C2S15017   4.733   4.060   6.542  0.1441 -0.3011 -0.2359
  138OSM    H2S15018   4.834   4.091   6.576  0.8717 -1.4341 -1.2463
  138OSM    C3S15019   4.627   4.151   6.615  0.3771  0.2801 -0.0284
  138OSM    H3S15020   4.528   4.124   6.571 -0.1706  4.8955 -2.2454
  138OSM     O315021   4.651   4.287   6.603  0.2266 -0.1094  0.2630
  138OSM    HO315022   4.712   4.301   6.531 -0.6853  0.5420 -0.3976
  138OSM    C4S15023   4.615   4.107   6.767  0.5177  0.1001 -0.2809
  138OSM    H4S15024   4.716   4.117   6.810  0.4537 -2.9399  0.8094
  138OSM    C5S15025   4.513   4.058   6.836 -0.1795  0.4324  0.4013
  138OSM    H5S15026   4.415   4.047   6.788 -0.3207  1.6076  0.3778
  138OSM    C6S15027   4.523   4.025   6.984  0.1897  0.0817 -0.4559
  138OSM    H6S15028   4.588   3.939   7.009  0.6428  0.6461  0.3673
  138OSM    H6T15029   4.420   3.992   7.011 -0.6348  1.8112 -1.2666
  138OSM    C7S15030   4.559   4.151   7.072 -0.8850  0.5159 -0.0198
  138OSM    H7S15031   4.492   4.234   7.040  1.8583  3.1611  0.5742
  138OSM    H7T15032   4.667   4.175   7.065 -0.3400 -1.7794 -0.2469
  138OSM    C8S15033   4.516   4.157   7.222  0.6786  0.6082 -0.7302
  138OSM    H8S15034   4.406   4.172   7.223  0.6169  0.1935 -1.0701
  138OSM    H8T15035   4.569   4.249   7.255  1.7485 -0.5694  0.9921
  138OSM    C9S15036   4.537   4.028   7.308  0.0097 -0.4048  0.6736
  138OSM    H9S15037   4.643   3.996   7.302  0.8455  1.9675  1.6325
  138OSM    H9T15038   4.490   3.944   7.253  0.6322 -0.3836  0.0896
  138OSM   C10S15039   4.493   4.041   7.453 -0.3364 -0.6484  0.3487
  138OSM   H10S15040   4.497   3.942   7.502  1.2395 -1.7666 -1.8424
  138OSM   H10T15041   4.386   4.069   7.456  0.0104  1.0147 -0.9419
  138OSM   C11S15042   4.580   4.143   7.538  0.4870 -0.5187  0.1998
  138OSM   H11S15043   4.567   4.247   7.502  0.1170 -0.1759  1.2924
  138OSM   H11T15044   4.683   4.112   7.510  0.5006  2.3022 -3.5744
  138OSM   C12S15045   4.558   4.125   7.691 -0.0111 -0.1643  0.4615
  138OSM   H12S15046   4.592   4.023   7.719  2.3171  0.3062 -0.3755
  138OSM   H12T15047   4.450   4.143   7.710 -0.3098  2.2446 -2.5559
  138OSM   C13S15048   4.652   4.208   7.782 -0.1653 -0.3052 -0.2975
  138OSM   H13S15049   4.648   4.314   7.750 -0.9365  0.1330  1.1420
  138OSM   H13T15050   4.759   4.179   7.780  0.3678  1.5646 -0.8471
  138OSM   C14S15051   4.609   4.205   7.929  0.1039 -0.7461 -0.1637
  138OSM   H14S15052   4.586   4.100   7.960  0.7005 -1.1200 -0.9545
  138OSM   H14T15053   4.510   4.255   7.926 -0.4499 -1.8207 -0.3360
  138OSM   C15S15054   4.701   4.282   8.027  0.0271  0.1785  0.0627
  138OSM   H15S15055   4.732   4.378   7.980  0.5076 -0.6520 -1.4206
  138OSM   H15T15056   4.795   4.222   8.036 -0.1877 -0.4078 -1.2911
  138OSM   C16S15057   4.632   4.319   8.158 -0.0441  0.4052 -0.3330
  138OSM   H16S15058   4.588   4.229   8.205  0.1672 -0.6921 -2.1538
  138OSM   H16T15059   4.548   4.392   8.154  0.0970  0.8500  2.4592
  138OSM   C17S15060   4.743   4.383   8.257  0.9079  0.3898  0.7744
  138OSM   H17S15061   4.797   4.288   8.279  0.8204  0.2205  0.2740
  138OSM   H17T15062   4.689   4.410   8.350  1.0443 -1.5909  1.4781
  138OSM   C18S15063   4.842   4.488   8.204  0.3552  0.3538 -0.0003
  138OSM   H18S15064   4.782   4.562   8.148 -0.6816 -2.8045 -3.4673
  138OSM   H18T15065   4.909   4.449   8.124  1.1669  1.8502 -0.0675
  138OSM   H18U15066   4.907   4.521   8.287  2.1395  1.0101 -1.5989
  138OSM    C1F15067   4.803   3.824   6.550  0.3633 -0.5170 -0.2590
  138OSM     OF15068   4.902   3.851   6.482  0.0971  0.3382  0.8945
  138OSM    C2F15069   4.779   3.690   6.617 -0.7541  0.6459 -0.3940
  138OSM    H2F15070   4.778   3.621   6.530 -1.5386  0.5964 -0.3516
  138OSM    H2G15071   4.680   3.684   6.667  0.3839  0.8606  2.0450
  138OSM    C3F15072   4.889   3.651   6.713 -0.6684 -0.5970 -0.8340
  138OSM    H3F15073   4.987   3.658   6.660 -0.2282  1.2773  0.1426
  138OSM    H3G15074   4.890   3.545   6.747  2.0239 -0.8856 -1.5485
  138OSM    C4F15075   4.904   3.745   6.836  0.2146  0.4361  0.2778
  138OSM    H4F15076   4.907   3.852   6.808 -0.4159  0.2989 -0.3478
  138OSM    H4G15077   5.007   3.724   6.873  0.2750  1.8059  0.9473
  138OSM    C5F15078   4.811   3.713   6.959 -0.1493  0.2177  0.3890
  138OSM    H5F15079   4.831   3.610   6.995  4.2868  0.7201 -0.0696
  138OSM    H5G15080   4.708   3.729   6.921  0.8798  2.5419 -1.6623
  138OSM    C6F15081   4.817   3.816   7.072  0.0077 -0.1001 -0.2808
  138OSM    H6F15082   4.730   3.819   7.141 -0.0459  1.4616 -0.3703
  138OSM    H6G15083   4.798   3.918   7.033 -1.8647 -0.0841  0.5801
  138OSM    C7F15084   4.941   3.798   7.164  0.2788 -0.9893  0.3135
  138OSM    H7F15085   4.939   3.891   7.224 -3.2544  0.3867 -1.6427
  138OSM    H7G15086   5.040   3.793   7.115  1.4824 -0.5168  2.5419
  138OSM    C8F15087   4.924   3.682   7.258 -0.2778 -0.5837 -0.3511
  138OSM    H8F15088   4.905   3.590   7.199 -2.6645 -0.7648  0.5893
  138OSM    H8G15089   4.834   3.690   7.323  1.5170 -0.3729  2.2819
  138OSM    C9F15090   5.045   3.682   7.351 -0.6356  0.4620  0.8511
  138OSM    H9F15091   5.118   3.602   7.332 -0.9314 -0.2844  2.6160
  138OSM   C10F15092   5.056   3.733   7.471 -0.3803 -0.6017 -0.3308
  138OSM   H10F15093   5.146   3.721   7.533 -1.7735 -0.6743  1.7866
  138OSM   C11F15094   4.956   3.817   7.550 -0.4408  0.1714 -0.1413
  138OSM   H11F15095   4.854   3.813   7.506 -0.3946  0.7639 -0.3048
  138OSM   H11G15096   4.983   3.922   7.572  0.0606 -0.1892  1.0550
  138OSM   C12F15097   4.949   3.753   7.690  0.2264  0.5810  0.3095
  138OSM   H12F15098   5.051   3.762   7.732  0.1715  2.0210  0.1993
  138OSM   H12G15099   4.935   3.643   7.688 -0.4164  0.6631 -0.5753
  138OSM   C13F15100   4.837   3.810   7.771  0.7761  0.0279  0.0732
  138OSM   H13F15101   4.753   3.772   7.708  3.4233 -4.1110 -1.4243
  138OSM   H13G15102   4.828   3.920   7.758  2.0156 -0.1254 -2.7460
  138OSM   C14F15103   4.843   3.779   7.921  0.6045 -1.1299  0.0723
  138OSM   H14F15104   4.940   3.796   7.972 -0.2575 -0.2856  1.4837
  138OSM   H14G15105   4.818   3.676   7.954  2.3261 -1.3377  0.8288
  138OSM   C15F15106   4.747   3.871   7.996 -0.2766 -0.0203 -0.3417
  138OSM   H15F15107   4.640   3.846   7.975 -0.6070  0.7185  0.4246
  138OSM   H15G15108   4.777   3.974   7.966  0.5299 -0.3489 -0.6938
  138OSM   C16F15109   4.757   3.858   8.149  0.2599 -0.5871  0.0326
  138OSM   H16F15110   4.862   3.863   8.185 -0.0158  1.7707  0.7256
  138OSM   H16G15111   4.715   3.761   8.184 -1.1543  0.7281  2.2838
  138OSM   C17F15112   4.679   3.971   8.225 -0.5352  0.5926 -0.2257
  138OSM   H17F15113   4.580   3.980   8.176 -0.7306 -1.4922 -0.2662
  138OSM   H17G15114   4.731   4.069   8.213 -2.4422  1.6059 -0.5320
  138OSM   C18F15115   4.666   3.946   8.375 -0.1400 -0.1803  0.2388
  138OSM   H18F15116   4.765   3.974   8.418  0.2354 -0.3581 -0.5020
  138OSM   H18G15117   4.658   3.837   8.394 -0.0057 -0.2324  0.0006
  138OSM   H18H15118   4.591   4.002   8.434  0.0177 -1.6645  1.9440
  139OSM      N15119   4.438   4.792   6.429 -0.1442  0.5074 -0.4735
  139OSM    C1515120   4.295   4.778   6.385  0.2195  0.1357 -0.0787
  139OSM   H15A15121   4.268   4.860   6.320  1.8906  1.6006  0.9728
  139OSM   H15B15122   4.228   4.789   6.469  0.6758 -2.0476  0.6304
  139OSM   H15C15123   4.274   4.683   6.338 -2.0509 -1.1936  3.1872
  139OSM    C1415124   4.437   4.930   6.488  0.5776  0.2062 -0.2804
  139OSM   H14A15125   4.527   4.932   6.547  0.0425  0.8600  0.5259
  139OSM   H14B15126   4.348   4.949   6.546  0.7523  2.6431 -0.7302
  139OSM   H14C15127   4.433   5.006   6.412 -0.4547  3.0433  2.3993
  139OSM    C1315128   4.467   4.693   6.539 -0.4624  0.5403 -0.9585
  139OSM   H13A15129   4.419   4.729   6.629 -2.4777  0.8919 -2.1089
  139OSM   H13B15130   4.572   4.678   6.560 -0.4747  1.4596 -0.1291
  139OSM   H13C15131   4.428   4.595   6.521 -0.2991 -0.2269  2.2217
  139OSM    C1215132   4.533   4.779   6.314 -0.0939 -0.7132  0.1900
  139OSM   H12A15133   4.537   4.674   6.289  2.7502 -0.5558 -0.4411
  139OSM   H12B15134   4.635   4.795   6.349  0.5160 -0.8034 -1.4847
  139OSM    C1115135   4.509   4.872   6.190 -0.4772 -0.0406  0.0854
  139OSM   H11A15136   4.409   4.852   6.144 -1.0003  1.2775  0.6171
  139OSM   H11B15137   4.574   4.843   6.105 -0.2725  0.0069  0.2241
  139OSM      P15138   4.608   5.098   6.143 -0.4928 -0.3842  0.2445
  139OSM    O1315139   4.738   5.030   6.118 -0.0654  0.0690 -0.0228
  139OSM    O1415140   4.530   5.145   6.029  0.1724 -0.4800  0.3205
  139OSM    O1115141   4.632   5.220   6.229 -0.3444  0.0161 -0.7075
  139OSM    O1215142   4.508   5.007   6.218  0.0311  0.2984  0.1594
  139OSM    C1S15143   4.715   5.225   6.353  0.5044  0.0975 -0.7174
  139OSM    H1S15144   4.822   5.243   6.332  0.9700 -1.6475 -0.0029
  139OSM    H1T15145   4.707   5.133   6.415  1.9117  0.8838  0.6878
  139OSM     NF15146   4.780   5.378   6.531 -0.2261 -0.1800 -0.5660
  139OSM    HNF15147   4.773   5.325   6.615 -0.1666  1.7550  0.7099
  139OSM    C2S15148   4.669   5.339   6.446  0.1455 -1.1831 -0.1946
  139OSM    H2S15149   4.643   5.415   6.369 -0.9640 -0.4836  0.8407
  139OSM    C3S15150   4.533   5.304   6.518  0.3251  0.0473  0.1028
  139OSM    H3S15151   4.560   5.218   6.582  1.9001  0.7185  0.3949
  139OSM     O315152   4.442   5.262   6.417 -0.2566 -0.1482  0.0752
  139OSM    HO315153   4.489   5.272   6.333  1.2134  1.1280  0.9908
  139OSM    C4S15154   4.485   5.416   6.610  0.1852 -0.0193  0.6046
  139OSM    H4S15155   4.524   5.416   6.713  0.6481  2.3613  0.4749
  139OSM    C5S15156   4.392   5.511   6.589 -0.1704 -0.0684  0.0132
  139OSM    H5S15157   4.329   5.504   6.499 -0.6023  2.1268  0.0946
  139OSM    C6S15158   4.352   5.621   6.684 -0.8715 -0.2115  0.2654
  139OSM    H6S15159   4.241   5.625   6.677 -0.7927  0.5738 -0.6229
  139OSM    H6T15160   4.385   5.724   6.660 -1.3913  0.1871  1.2155
  139OSM    C7S15161   4.391   5.590   6.826  0.3589 -0.4387 -0.5704
  139OSM    H7S15162   4.501   5.593   6.837  0.5337 -0.8208 -1.9691
  139OSM    H7T15163   4.360   5.487   6.856 -0.3452 -0.3730 -1.0319
  139OSM    C8S15164   4.324   5.690   6.919 -0.2790 -0.2227  0.2411
  139OSM    H8S15165   4.214   5.698   6.907 -0.6402 -1.9047  1.9302
  139OSM    H8T15166   4.362   5.792   6.898  1.2467 -0.1288  2.9812
  139OSM    C9S15167   4.345   5.659   7.068 -0.2525  0.4956  0.6906
  139OSM    H9S15168   4.437   5.602   7.090 -0.9253  0.4370  3.6970
  139OSM    H9T15169   4.263   5.593   7.104  0.0002  1.0899  2.4149
  139OSM   C10S15170   4.350   5.771   7.170 -0.0601  0.0648 -0.1033
  139OSM   H10S15171   4.256   5.831   7.173  0.8049  1.6963 -2.4351
  139OSM   H10T15172   4.437   5.836   7.146  0.2679 -0.8911 -1.6073
  139OSM   C11S15173   4.376   5.726   7.321 -0.3205  0.3635  0.3074
  139OSM   H11S15174   4.473   5.671   7.321 -1.1164 -1.0995  0.8579
  139OSM   H11T15175   4.300   5.649   7.346 -0.9022  1.4260  1.9695
  139OSM   C12S15176   4.360   5.839   7.419 -0.3198 -0.1171 -0.3039
  139OSM   H12S15177   4.258   5.882   7.428 -0.7649 -1.1372 -0.2582
  139OSM   H12T15178   4.431   5.916   7.382 -0.6020 -1.3885 -3.9458
  139OSM   C13S15179   4.386   5.795   7.561  0.2737 -0.4299  0.2231
  139OSM   H13S15180   4.493   5.765   7.567  1.1520  2.1197 -1.2500
  139OSM   H13T15181   4.313   5.716   7.592 -0.5054  0.3726  0.4902
  139OSM   C14S15182   4.369   5.909   7.661  0.1101  0.5691  0.1456
  139OSM   H14S15183   4.273   5.961   7.638  0.0997  0.5671  0.1826
  139OSM   H14T15184   4.445   5.985   7.633  2.1170 -1.2463  0.4598
  139OSM   C15S15185   4.360   5.875   7.812 -1.1651 -0.1439  0.0031
  139OSM   H15S15186   4.464   5.862   7.849 -1.5461 -2.8100  0.3621
  139OSM   H15T15187   4.308   5.778   7.827 -0.5568 -0.0369  3.9724
  139OSM   C16S15188   4.303   5.991   7.890 -0.7268  0.1138  0.5287
  139OSM   H16S15189   4.207   6.019   7.842 -0.7033  0.5570  0.7355
  139OSM   H16T15190   4.363   6.084   7.876 -2.6895  1.4497  0.6665
  139OSM   C17S15191   4.298   5.970   8.045  0.6437  0.1326 -0.4787
  139OSM   H17S15192   4.397   5.965   8.096  1.9073  0.9267 -2.6778
  139OSM   H17T15193   4.262   5.866   8.058  1.3505  0.1258  1.9533
  139OSM   C18S15194   4.202   6.065   8.124 -0.0035 -0.1521 -0.3040
  139OSM   H18S15195   4.095   6.045   8.100  0.1512  0.0903 -1.2396
  139OSM   H18T15196   4.211   6.174   8.104  0.1874 -0.2354 -0.6761
  139OSM   H18U15197   4.212   6.037   8.231 -2.5124 -1.7194 -0.3981
  139OSM    C1F15198   4.897   5.438   6.507 -0.3902 -0.1832  0.1679
  139OSM     OF15199   4.914   5.480   6.388 -0.2902 -0.3756  0.8685
  139OSM    C2F15200   4.996   5.457   6.626  0.3589  0.4424  0.7577
  139OSM    H2F15201   5.028   5.358   6.663 -1.4354 -1.4593 -2.3116
  139OSM    H2G15202   4.946   5.525   6.699  2.2510  0.8273  1.7702
  139OSM    C3F15203   5.123   5.526   6.580 -0.5758  0.4440 -0.3329
  139OSM    H3F15204   5.093   5.617   6.523 -0.1622  1.3524  0.8477
  139OSM    H3G15205   5.184   5.461   6.515 -1.8983 -1.3000  0.0739
  139OSM    C4F15206   5.204   5.581   6.706  0.5721  0.1079 -0.3455
  139OSM    H4F15207   5.150   5.670   6.746 -0.2229 -0.6298  0.2993
  139OSM    H4G15208   5.301   5.619   6.669 -0.7625  0.7026 -3.5993
  139OSM    C5F15209   5.229   5.468   6.813  0.2777  0.1755  0.1711
  139OSM    H5F15210   5.327   5.495   6.859  0.1256  0.2289  0.4638
  139OSM    H5G15211   5.257   5.379   6.752  0.3562  0.3527 -0.0525
  139OSM    C6F15212   5.136   5.429   6.926 -0.1941  0.1865  0.2581
  139OSM    H6F15213   5.169   5.345   6.991 -0.1800 -0.4285 -0.5212
  139OSM    H6G15214   5.039   5.389   6.888  0.4517 -2.5753  1.2744
  139OSM    C7F15215   5.087   5.552   7.009 -0.0951  0.0466  0.2548
  139OSM    H7F15216   5.003   5.514   7.071 -1.2888 -1.3010 -2.0500
  139OSM    H7G15217   5.045   5.631   6.943 -0.5678 -0.2481  0.2024
  139OSM    C8F15218   5.212   5.617   7.084  0.0289 -0.0729  0.4417
  139OSM    H8F15219   5.283   5.654   7.006  1.0044 -0.7716  0.9736
  139OSM    H8G15220   5.265   5.532   7.133  5.0271  1.7805 -1.1904
  139OSM    C9F15221   5.183   5.722   7.181  0.0259 -0.5317 -0.3867
  139OSM    H9F15222   5.172   5.825   7.142 -1.8961 -0.6377 -0.2177
  139OSM   C10F15223   5.167   5.709   7.316 -0.3425 -0.1169 -0.3788
  139OSM   H10F15224   5.133   5.793   7.379 -0.2803 -0.4833  0.1453
  139OSM   C11F15225   5.191   5.583   7.388 -0.2126  0.6089 -0.2343
  139OSM   H11F15226   5.297   5.550   7.382 -0.5247 -0.8129  1.2662
  139OSM   H11G15227   5.138   5.495   7.347  1.1207 -0.5353  0.3905
  139OSM   C12F15228   5.153   5.586   7.537  0.1093 -0.2063 -0.5478
  139OSM   H12F15229   5.152   5.482   7.577 -1.4624 -0.0471 -0.1032
  139OSM   H12G15230   5.049   5.624   7.534  0.4433  0.6846 -1.0064
  139OSM   C13F15231   5.235   5.668   7.635 -0.6317 -0.3176 -0.2384
  139OSM   H13F15232   5.241   5.774   7.602  4.0416 -0.9816 -2.3617
  139OSM   H13G15233   5.334   5.620   7.647 -0.9008 -0.8496 -0.0937
  139OSM   C14F15234   5.190   5.676   7.776 -0.2026 -0.3467  0.0352
  139OSM   H14F15235   5.219   5.584   7.831  1.8593  0.2923  0.1097
  139OSM   H14G15236   5.079   5.680   7.776 -0.1923  0.1203 -0.8393
  139OSM   C15F15237   5.256   5.788   7.851  0.4786 -0.1398  0.1072
  139OSM   H15F15238   5.235   5.886   7.803  1.8714 -0.0596 -0.3784
  139OSM   H15G15239   5.365   5.766   7.849  0.9093  1.7595 -0.0288
  139OSM   C16F15240   5.208   5.804   7.999 -0.1014  0.4473  0.0471
  139OSM   H16F15241   5.245   5.715   8.053  1.3472  0.3195 -1.1129
  139OSM   H16G15242   5.097   5.803   8.007 -0.1164  0.6087 -0.1296
  139OSM   C17F15243   5.273   5.918   8.083 -0.4921  0.0459  0.6784
  139OSM   H17F15244   5.247   5.912   8.190  0.4061  0.3631  0.9194
  139OSM   H17G15245   5.244   6.020   8.048  2.2125  0.4516 -0.5945
  139OSM   C18F15246   5.430   5.926   8.064 -0.4594  0.1314 -0.4091
  139OSM   H18F15247   5.484   5.845   8.116 -0.6006  0.7149  0.6706
  139OSM   H18G15248   5.455   6.025   8.109 -1.3532  0.1319  0.1158
  139OSM   H18H15249   5.455   5.923   7.955 -3.4326  2.9324 -1.3423
  140OSM      N15250   4.155   0.970   6.072 -0.9028 -0.1572  0.0395
  140OSM    C1515251   4.090   0.979   6.207 -0.2176 -0.1255 -0.6974
  140OSM   H15A15252   4.076   1.080   6.244 -0.8391 -1.1384  2.0569
  140OSM   H15B15253   4.160   0.942   6.281 -0.8993  0.5355  0.3165
  140OSM   H15C15254   4.001   0.919   6.213 -1.5998  1.9423  2.1242
  140OSM    C1415255   4.073   1.027   5.963  0.3480 -0.5610  0.5637
  140OSM   H14A15256   4.114   1.020   5.864 -1.2463 -1.5570 -0.0699
  140OSM   H14B15257   4.058   1.131   5.988 -0.8929 -0.9350  1.5126
  140OSM   H14C15258   3.981   0.973   5.950 -0.9431  1.5580  0.4218
  140OSM    C1315259   4.287   1.049   6.078  0.8835  0.6240 -1.0165
  140OSM   H13A15260   4.267   1.153   6.099  0.5028  0.4518 -0.5188
  140OSM   H13B15261   4.339   1.055   5.983  0.1333  1.3721 -1.3835
  140OSM   H13C15262   4.345   1.001   6.156  0.0881  0.1579 -0.6960
  140OSM    C1215263   4.188   0.823   6.041  0.1521 -0.3600  0.3600
  140OSM   H12A15264   4.231   0.820   5.941  0.5552 -1.0321  0.5421
  140OSM   H12B15265   4.099   0.762   6.028  0.7315 -1.0541 -0.5363
  140OSM    C1115266   4.288   0.737   6.128 -0.5793 -1.0242  0.4170
  140OSM   H11A15267   4.292   0.630   6.095 -0.6213 -1.5780  2.1083
  140OSM   H11B15268   4.240   0.744   6.227 -1.4004  1.6201 -0.0884
  140OSM      P15269   4.510   0.793   6.256  0.4377 -0.3619 -0.0039
  140OSM    O1315270   4.651   0.791   6.211  0.0166 -0.2454 -0.2951
  140OSM    O1415271   4.457   0.904   6.332 -0.1325  0.0757  0.0265
  140OSM    O1115272   4.472   0.654   6.332  0.1218  0.1408  0.1518
  140OSM    O1215273   4.421   0.777   6.121 -0.4746  0.0907  0.1062
  140OSM    C1S15274   4.555   0.617   6.448  0.1893 -0.2725  0.2489
  140OSM    H1S15275   4.647   0.679   6.451 -0.1784  0.2423  1.5558
  140OSM    H1T15276   4.580   0.509   6.439 -0.4866 -0.2832 -2.4100
  140OSM     NF15277   4.575   0.610   6.699 -0.1881 -0.0558  0.2144
  140OSM    HNF15278   4.570   0.530   6.758  2.3870 -0.1464  0.4235
  140OSM    C2S15279   4.480   0.632   6.582 -0.0728 -0.6739  0.0015
  140OSM    H2S15280   4.450   0.739   6.590  0.1056 -0.5873 -0.4166
  140OSM    C3S15281   4.349   0.546   6.577 -0.4004  0.1757 -0.3864
  140OSM    H3S15282   4.379   0.439   6.582 -0.1535  0.2993  0.9421
  140OSM     O315283   4.273   0.574   6.458 -0.8989 -0.0652  0.3301
  140OSM    HO315284   4.345   0.595   6.398  0.0815 -2.4078  0.5542
  140OSM    C4S15285   4.265   0.574   6.697  0.2422  0.8275  0.2790
  140OSM    H4S15286   4.268   0.493   6.771 -1.8711  1.0587  0.6798
  140OSM    C5S15287   4.172   0.669   6.720 -0.1435 -0.0838 -0.4921
  140OSM    H5S15288   4.180   0.760   6.658 -0.2570 -0.3579 -0.9126
  140OSM    C6S15289   4.096   0.684   6.846 -0.0899 -0.4338  0.5911
  140OSM    H6S15290   3.993   0.723   6.830  0.0276  0.0406  0.9535
  140OSM    H6T15291   4.129   0.767   6.913 -1.4314  0.1358  0.5768
  140OSM    C7S15292   4.078   0.566   6.943 -0.3266 -0.1188  0.6191
  140OSM    H7S15293   4.177   0.527   6.973 -0.0600 -0.8455 -1.1159
  140OSM    H7T15294   4.023   0.486   6.888  0.0229  0.8190 -1.1625
  140OSM    C8S15295   4.003   0.592   7.074  0.1955  0.0782  0.2832
  140OSM    H8S15296   3.977   0.491   7.110  1.0106 -1.6586 -3.4888
  140OSM    H8T15297   3.907   0.647   7.062 -0.7752 -1.6903 -0.3664
  140OSM    C9S15298   4.094   0.669   7.160 -1.4998 -0.0241 -0.6312
  140OSM    H9S15299   4.092   0.777   7.134 -0.6843  1.3246  4.0525
  140OSM    H9T15300   4.195   0.629   7.138 -0.7203  2.3386 -1.5889
  140OSM   C10S15301   4.048   0.651   7.306  0.0741 -0.2604 -0.0584
  140OSM   H10S15302   4.069   0.551   7.348  0.0017  0.1268  0.9249
  140OSM   H10T15303   3.938   0.658   7.317  0.1066  0.2998 -0.0496
  140OSM   C11S15304   4.105   0.776   7.388 -0.4768  0.0346 -0.7863
  140OSM   H11S15305   4.044   0.870   7.393 -0.8742 -0.2954  2.0747
  140OSM   H11T15306   4.200   0.801   7.337  0.0837  0.4458  0.4222
  140OSM   C12S15307   4.134   0.736   7.532 -0.0331 -0.4668 -0.2898
  140OSM   H12S15308   4.173   0.632   7.537 -0.9654 -0.7836  0.7441
  140OSM   H12T15309   4.035   0.731   7.582 -0.2931  0.4381 -0.7030
  140OSM   C13S15310   4.222   0.825   7.627  0.2871  0.3916  0.1160
  140OSM   H13S15311   4.198   0.934   7.628 -1.1464  0.1010  1.0011
  140OSM   H13T15312   4.323   0.807   7.584 -0.8123  1.1090 -3.0974
  140OSM   C14S15313   4.216   0.777   7.772 -0.8634  0.0619  0.1541
  140OSM   H14S15314   4.307   0.798   7.832 -1.2366  0.3013  0.6516
  140OSM   H14T15315   4.208   0.667   7.775  1.9128 -0.2557 -1.2332
  140OSM   C15S15316   4.094   0.827   7.855 -0.2898  0.4248 -0.1992
  140OSM   H15S15317   3.999   0.777   7.828 -0.5716  1.2076 -0.7081
  140OSM   H15T15318   4.095   0.936   7.834  2.6638 -0.0474 -3.5399
  140OSM   C16S15319   4.110   0.812   8.011  0.1317  0.1145 -0.1744
  140OSM   H16S15320   4.176   0.723   8.018 -0.0509 -0.3133 -2.7840
  140OSM   H16T15321   4.013   0.796   8.062 -0.1496  1.8602 -0.0680
  140OSM   C17S15322   4.181   0.931   8.072  0.1618 -0.5573 -0.1183
  140OSM   H17S15323   4.122   1.023   8.051  1.2604  0.1958  0.0279
  140OSM   H17T15324   4.272   0.962   8.019 -0.2240 -1.7277 -1.5313
  140OSM   C18S15325   4.187   0.914   8.221  0.1601  0.0470 -0.5124
  140OSM   H18S15326   4.087   0.890   8.264  0.1441  1.8504  0.5643
  140OSM   H18T15327   4.224   1.002   8.277 -1.2968 -0.0252  0.6314
  140OSM   H18U15328   4.250   0.825   8.246  1.8910  0.8337 -1.8858
  140OSM    C1F15329   4.681   0.681   6.726 -0.1828  0.6924  0.7963
  140OSM     OF15330   4.696   0.795   6.692 -0.3260 -0.1029  1.1115
  140OSM    C2F15331   4.783   0.619   6.822 -0.2435  0.0033 -0.1729
  140OSM    H2F15332   4.883   0.658   6.794  0.5481 -0.7940  1.4418
  140OSM    H2G15333   4.791   0.510   6.801  1.0098  0.3406 -1.5879
  140OSM    C3F15334   4.752   0.665   6.968 -0.3504  0.0002  0.2417
  140OSM    H3F15335   4.644   0.649   6.989  0.1714 -3.1767  1.0363
  140OSM    H3G15336   4.782   0.769   6.993 -2.2571  1.1205 -1.7762
  140OSM    C4F15337   4.823   0.564   7.071  0.6011 -0.4740 -0.3633
  140OSM    H4F15338   4.934   0.569   7.065  0.5707 -0.2233 -0.7294
  140OSM    H4G15339   4.815   0.457   7.044 -0.2435 -1.0619  1.9758
  140OSM    C5F15340   4.775   0.594   7.219  0.0212 -0.8675 -0.3512
  140OSM    H5F15341   4.807   0.692   7.260 -2.6353 -0.3339  0.6715
  140OSM    H5G15342   4.832   0.520   7.278  1.0505  0.4416  0.3591
  140OSM    C6F15343   4.628   0.594   7.251  0.6127 -0.3742  0.0138
  140OSM    H6F15344   4.581   0.497   7.223 -0.9886  0.7276 -1.2777
  140OSM    H6G15345   4.570   0.671   7.197 -0.4461 -1.6951 -0.7966
  140OSM    C7F15346   4.598   0.601   7.406 -0.1444 -0.1926  0.1555
  140OSM    H7F15347   4.640   0.693   7.451  1.0608 -0.2121 -0.8585
  140OSM    H7G15348   4.660   0.522   7.454 -0.4299  0.0143  0.8827
  140OSM    C8F15349   4.453   0.585   7.443  0.2329  0.7324  0.1334
  140OSM    H8F15350   4.391   0.668   7.403 -3.1733 -2.0757 -0.9032
  140OSM    H8G15351   4.449   0.610   7.551  1.8259 -0.6241  0.5470
  140OSM    C9F15352   4.386   0.457   7.408  0.5014  0.3085 -0.4008
  140OSM    H9F15353   4.352   0.460   7.303  1.9793 -1.4864 -0.9896
  140OSM   C10F15354   4.367   0.348   7.482 -0.5540  1.0625 -0.1550
  140OSM   H10F15355   4.301   0.275   7.434  1.0439 -0.4398 -0.1403
  140OSM   C11F15356   4.413   0.318   7.623  0.3945 -0.5925 -0.2448
  140OSM   H11F15357   4.489   0.389   7.661 -1.2994  0.7925  0.7166
  140OSM   H11G15358   4.440   0.212   7.642 -2.6767 -1.0065  2.7999
  140OSM   C12F15359   4.290   0.359   7.713  0.3018  0.4375  0.0386
  140OSM   H12F15360   4.208   0.294   7.676  2.6124 -0.6440 -3.6861
  140OSM   H12G15361   4.257   0.464   7.696  0.6607  0.7566  1.2273
  140OSM   C13F15362   4.299   0.328   7.867  0.2735 -0.2276 -0.1085
  140OSM   H13F15363   4.389   0.385   7.900  1.4281 -1.3477 -1.2485
  140OSM   H13G15364   4.317   0.220   7.881 -3.1295 -0.8494  0.3109
  140OSM   C14F15365   4.168   0.374   7.927 -0.5553 -0.2398 -0.8946
  140OSM   H14F15366   4.079   0.329   7.879 -2.4782  1.8482  0.5011
  140OSM   H14G15367   4.157   0.483   7.909 -2.0178 -0.2257 -0.0574
  140OSM   C15F15368   4.155   0.349   8.081 -0.0198 -0.1896  0.6932
  140OSM   H15F15369   4.213   0.414   8.150  0.8928 -1.8932  1.5689
  140OSM   H15G15370   4.198   0.248   8.095 -1.5980 -0.8742  0.8850
  140OSM   C16F15371   4.008   0.344   8.125  0.7295  0.1547 -0.2088
  140OSM   H16F15372   4.010   0.303   8.229 -2.9410 -2.2544 -0.9003
  140OSM   H16G15373   3.946   0.272   8.067 -0.1181  0.4721  0.2863
  140OSM   C17F15374   3.955   0.487   8.115  0.2337  0.0161  0.8186
  140OSM   H17F15375   3.911   0.523   8.020 -0.1853  2.8333  1.9926
  140OSM   H17G15376   4.043   0.551   8.137  0.1442  0.3871  0.1263
  140OSM   C18F15377   3.844   0.516   8.220  0.2083  0.6856  0.3011
  140OSM   H18F15378   3.768   0.436   8.205  1.5977 -0.5184 -0.7731
  140OSM   H18G15379   3.793   0.612   8.196 -1.9422 -1.1828 -3.7714
  140OSM   H18H15380   3.884   0.521   8.323 -1.1048  0.4593  0.8423
  141OSM      N15381   4.280   3.664   5.863  0.1885  0.0783  0.1438
  141OSM    C1515382   4.423   3.688   5.818  0.3450 -0.2406  0.2116
  141OSM   H15A15383   4.439   3.795   5.823 -1.6471  0.1501 -1.0409
  141OSM   H15B15384   4.436   3.660   5.715 -0.0416  1.0379 -0.1976
  141OSM   H15C15385   4.489   3.629   5.881  0.5957 -1.2912 -1.0065
  141OSM    C1415386   4.269   3.720   5.999  0.1510  0.1348  0.2964
  141OSM   H14A15387   4.300   3.650   6.075  2.1247  0.5572 -0.0498
  141OSM   H14B15388   4.169   3.758   6.014 -0.6395 -0.3074 -3.0238
  141OSM   H14C15389   4.334   3.806   5.998  2.1277 -1.1850 -3.0891
  141OSM    C1315390   4.189   3.752   5.779  0.0149  0.0268  0.0415
  141OSM   H13A15391   4.084   3.737   5.801 -0.5382  1.0738 -1.6663
  141OSM   H13B15392   4.197   3.738   5.672  0.9030  0.4363  0.0453
  141OSM   H13C15393   4.206   3.857   5.797 -1.8854  0.5559 -0.9409
  141OSM    C1215394   4.243   3.522   5.844 -0.3983 -0.3155  0.3371
  141OSM   H12A15395   4.310   3.461   5.903 -1.7229 -2.8520 -0.6506
  141OSM   H12B15396   4.270   3.489   5.745  0.6333 -1.1711  0.8875
  141OSM    C1115397   4.096   3.479   5.881 -0.3474  0.1906 -0.2279
  141OSM   H11A15398   4.063   3.387   5.829  0.1474  0.2040 -0.5644
  141OSM   H11B15399   4.025   3.556   5.846  0.2756  1.3153  0.9003
  141OSM      P15400   4.157   3.361   6.100 -0.2910  0.1118  0.3846
  141OSM    O1315401   4.145   3.228   6.035 -0.4918 -0.0226  0.2489
  141OSM    O1415402   4.293   3.421   6.110  0.0335 -0.0417 -0.1749
  141OSM    O1115403   4.092   3.359   6.249  0.5916  0.8008  0.0564
  141OSM    O1215404   4.074   3.468   6.023 -0.8170  0.1867  1.0602
  141OSM    C1S15405   4.169   3.376   6.368 -0.4969  0.6395  0.6657
  141OSM    H1S15406   4.216   3.477   6.373  1.7692 -0.3853  1.3492
  141OSM    H1T15407   4.256   3.307   6.370 -1.7684 -1.0553  3.6250
  141OSM     NF15408   4.192   3.377   6.608 -0.4952  0.5698  0.6025
  141OSM    HNF15409   4.242   3.301   6.648 -2.0391 -0.8777 -0.1041
  141OSM    C2S15410   4.096   3.349   6.503 -0.1572  0.3867  0.0282
  141OSM    H2S15411   4.024   3.432   6.517 -0.4240 -0.1412  2.0167
  141OSM    C3S15412   4.041   3.208   6.496  1.2142 -0.1931 -0.6732
  141OSM    H3S15413   4.126   3.137   6.485  0.5627 -1.4774  1.7460
  141OSM     O315414   3.950   3.185   6.386 -0.1448 -0.0442  0.4302
  141OSM    HO315415   3.977   3.247   6.317  0.3357 -1.1423 -0.3857
  141OSM    C4S15416   3.974   3.170   6.626 -0.1680  0.5861 -0.6946
  141OSM    H4S15417   4.041   3.102   6.682 -0.0758  0.8401 -0.4934
  141OSM    C5S15418   3.856   3.215   6.683 -0.1827  0.3929 -0.4222
  141OSM    H5S15419   3.784   3.272   6.622 -1.0325 -0.2866 -0.0657
  141OSM    C6S15420   3.808   3.175   6.822 -0.3272  0.6259 -1.1130
  141OSM    H6S15421   3.745   3.259   6.858 -2.1099 -0.5638 -1.3372
  141OSM    H6T15422   3.887   3.150   6.896 -0.2951  1.9022 -0.6935
  141OSM    C7S15423   3.740   3.039   6.813 -0.7977 -0.7444 -0.0809
  141OSM    H7S15424   3.813   2.963   6.778  2.9391  2.0625  1.0154
  141OSM    H7T15425   3.646   3.028   6.753 -1.9276 -1.2777  1.7107
  141OSM    C8S15426   3.718   2.978   6.951  0.0111  0.2481 -0.6443
  141OSM    H8S15427   3.630   2.910   6.943  0.8636 -0.9691  0.0167
  141OSM    H8T15428   3.675   3.057   7.016 -0.0346 -1.2898  1.2886
  141OSM    C9S15429   3.839   2.912   7.017 -0.5722  0.5525  0.1612
  141OSM    H9S15430   3.923   2.944   6.952 -1.6825 -2.2415 -2.8918
  141OSM    H9T15431   3.829   2.802   7.011 -0.8034  0.6039 -0.3983
  141OSM   C10S15432   3.857   2.976   7.155  0.4011  0.1504 -0.5548
  141OSM   H10S15433   3.875   3.085   7.149  0.4219  0.3427  1.8555
  141OSM   H10T15434   3.953   2.938   7.196  0.0429  0.8920  1.0539
  141OSM   C11S15435   3.749   2.953   7.256  0.0338 -0.4793  0.2561
  141OSM   H11S15436   3.756   2.853   7.303 -1.0549 -1.2219 -1.0893
  141OSM   H11T15437   3.651   2.963   7.205 -0.2785 -0.4226  0.8599
  141OSM   C12S15438   3.748   3.046   7.379 -0.3267 -0.2821  0.5295
  141OSM   H12S15439   3.713   3.148   7.352  1.8234  1.0198  2.2920
  141OSM   H12T15440   3.850   3.064   7.419 -0.0890 -0.3605 -0.0414
  141OSM   C13S15441   3.655   2.998   7.496  0.5259  0.6721 -0.3490
  141OSM   H13S15442   3.689   2.893   7.510  1.0917  1.0624  1.3330
  141OSM   H13T15443   3.548   2.997   7.465  0.5793  0.7468 -0.5392
  141OSM   C14S15444   3.669   3.078   7.624  0.0107  0.8203  0.2639
  141OSM   H14S15445   3.632   3.182   7.614  0.6433  0.9076 -1.6681
  141OSM   H14T15446   3.778   3.090   7.647 -0.0412 -1.4103  2.1056
  141OSM   C15S15447   3.604   3.021   7.748  0.0895  0.9143  0.2557
  141OSM   H15S15448   3.651   2.926   7.780 -2.4615  0.0171  1.6809
  141OSM   H15T15449   3.499   2.991   7.730  0.6080 -0.3403 -0.7878
  141OSM   C16S15450   3.597   3.121   7.862 -0.5339  0.7512 -0.4239
  141OSM   H16S15451   3.529   3.207   7.846  0.7887  2.2151  1.2826
  141OSM   H16T15452   3.702   3.155   7.876  0.5054 -1.7293 -1.6238
  141OSM   C17S15453   3.543   3.065   8.000 -0.6779 -0.3208 -0.0544
  141OSM   H17S15454   3.597   2.971   8.023 -1.5645 -0.5920  0.9778
  141OSM   H17T15455   3.436   3.038   7.991 -0.6115 -0.7126  0.3203
  141OSM   C18S15456   3.558   3.159   8.117 -0.5774 -0.4836  0.0825
  141OSM   H18S15457   3.517   3.119   8.212 -1.5822  1.3830  0.4985
  141OSM   H18T15458   3.508   3.256   8.095 -1.0272 -0.3393  1.6101
  141OSM   H18U15459   3.664   3.189   8.128  0.2534 -2.6420 -1.3599
  141OSM    C1F15460   4.225   3.492   6.647  0.1102 -0.9285 -0.0525
  141OSM     OF15461   4.178   3.595   6.601  0.0952  0.7068 -0.5384
  141OSM    C2F15462   4.328   3.497   6.753 -1.3746  0.1878 -0.1317
  141OSM    H2F15463   4.424   3.453   6.717 -0.1812  2.3942  0.2133
  141OSM    H2G15464   4.296   3.432   6.838  1.5146  2.3654  2.8797
  141OSM    C3F15465   4.350   3.637   6.836 -0.2156  0.2484 -0.1407
  141OSM    H3F15466   4.254   3.691   6.850  0.5685  2.0615 -1.3270
  141OSM    H3G15467   4.415   3.701   6.772 -1.0700  1.1549 -0.1337
  141OSM    C4F15468   4.421   3.631   6.974 -0.2700  0.0049 -0.4446
  141OSM    H4F15469   4.461   3.733   6.995  2.6427 -1.1476  0.1134
  141OSM    H4G15470   4.509   3.563   6.967  1.1019  1.8540 -2.4433
  141OSM    C5F15471   4.333   3.599   7.101 -0.3494 -0.0427  1.0711
  141OSM    H5F15472   4.287   3.498   7.090 -0.6497  0.3228 -2.0818
  141OSM    H5G15473   4.257   3.679   7.110  0.4277  0.6048  1.9451
  141OSM    C6F15474   4.413   3.601   7.237  0.2577  0.4056  0.5253
  141OSM    H6F15475   4.466   3.698   7.246 -1.0487  1.0225  2.1759
  141OSM    H6G15476   4.491   3.523   7.241 -1.0303 -1.0423 -0.9425
  141OSM    C7F15477   4.312   3.596   7.367 -0.7472 -0.6102  1.0416
  141OSM    H7F15478   4.274   3.492   7.364  0.7672 -1.1904  0.8544
  141OSM    H7G15479   4.230   3.668   7.346  0.7473  0.5999 -1.0988
  141OSM    C8F15480   4.372   3.629   7.507  0.7919 -0.0972 -0.2919
  141OSM    H8F15481   4.415   3.732   7.515 -2.2719  1.4277 -1.7379
  141OSM    H8G15482   4.450   3.554   7.532 -1.4505 -1.7844  2.1017
  141OSM    C9F15483   4.260   3.595   7.605 -0.8076  0.6139 -0.1494
  141OSM    H9F15484   4.199   3.508   7.577  0.3644  0.4324 -2.2942
  141OSM   C10F15485   4.248   3.642   7.726  0.4488 -0.1794  0.0617
  141OSM   H10F15486   4.174   3.595   7.793 -0.5913  0.7598 -0.3892
  141OSM   C11F15487   4.333   3.746   7.797 -0.0163 -1.3600 -0.0036
  141OSM   H11F15488   4.263   3.832   7.800  2.6462  1.0696 -1.9896
  141OSM   H11G15489   4.417   3.781   7.735  1.5489 -3.2708  0.9242
  141OSM   C12F15490   4.382   3.709   7.934 -0.9011 -0.2283 -0.6566
  141OSM   H12F15491   4.428   3.805   7.967 -1.4848  0.6309 -2.2389
  141OSM   H12G15492   4.454   3.625   7.938 -0.1379  0.3297 -1.9479
  141OSM   C13F15493   4.269   3.687   8.033  0.1597 -0.2792  0.3603
  141OSM   H13F15494   4.218   3.594   7.999  0.6712 -0.3476 -0.2424
  141OSM   H13G15495   4.193   3.765   8.017  1.1609  0.4724 -0.9855
  141OSM   C14F15496   4.305   3.673   8.186  0.1920 -0.7420  0.2420
  141OSM   H14F15497   4.370   3.760   8.208  1.0424 -1.5453  0.9588
  141OSM   H14G15498   4.362   3.579   8.202 -1.4930 -1.8278  0.1840
  141OSM   C15F15499   4.178   3.697   8.271 -0.1739 -0.4142 -0.1008
  141OSM   H15F15500   4.097   3.628   8.238 -1.3674 -0.1441  2.1206
  141OSM   H15G15501   4.130   3.796   8.259 -0.3358 -0.3699  0.8476
  141OSM   C16F15502   4.199   3.661   8.413 -0.7530 -0.4776 -0.0545
  141OSM   H16F15503   4.231   3.554   8.410 -2.6173 -1.0491 -2.3508
  141OSM   H16G15504   4.104   3.666   8.471  0.0498  2.6021  1.1989
  141OSM   C17F15505   4.291   3.765   8.489  0.3199 -0.2817 -0.1300
  141OSM   H17F15506   4.352   3.808   8.407 -0.9031  0.2871 -0.7647
  141OSM   H17G15507   4.356   3.724   8.570 -0.5507  2.0936  1.9183
  141OSM   C18F15508   4.202   3.870   8.569 -0.2213 -0.3155 -1.1551
  141OSM   H18F15509   4.261   3.954   8.610 -1.7176 -0.1951  0.8953
  141OSM   H18G15510   4.149   3.818   8.652 -0.6704 -0.6199 -1.6259
  141OSM   H18H15511   4.129   3.917   8.500 -0.3879 -1.0135 -1.4625
  142OSM      N15512   3.354   5.029   6.423  0.7052 -0.5950  0.0040
  142OSM    C1515513   3.362   5.178   6.467 -0.0831  0.5138  0.4894
  142OSM   H15A15514   3.329   5.245   6.389 -0.4173  0.5798  0.6858
  142OSM   H15B15515   3.463   5.198   6.499  0.4785 -1.9255  0.4318
  142OSM   H15C15516   3.289   5.202   6.543  1.1040 -2.3663  2.7336
  142OSM    C1415517   3.449   4.996   6.308 -0.4244 -0.8589  0.4123
  142OSM   H14A15518   3.414   5.041   6.216  2.7470 -0.7536 -0.8872
  142OSM   H14B15519   3.458   4.890   6.292 -0.8490 -0.8699  0.2210
  142OSM   H14C15520   3.549   5.032   6.325 -0.9535 -0.1829  2.2565
  142OSM    C1315521   3.407   4.953   6.538  0.0299  0.2838 -0.2746
  142OSM   H13A15522   3.371   4.851   6.537  0.7369 -0.0348  1.8605
  142OSM   H13B15523   3.382   4.998   6.633  1.4045 -0.6530  0.5642
  142OSM   H13C15524   3.514   4.960   6.528  0.0094  2.8764  0.5225
  142OSM    C1215525   3.212   4.994   6.394  0.5530  0.0123 -0.3804
  142OSM   H12A15526   3.173   5.044   6.306 -1.4645 -0.2140  0.3291
  142OSM   H12B15527   3.148   5.023   6.476 -0.6116 -0.2296 -1.1757
  142OSM    C1115528   3.185   4.847   6.376 -1.0178  0.5068  0.1798
  142OSM   H11A15529   3.258   4.814   6.299  0.1433  2.1060  0.5322
  142OSM   H11B15530   3.081   4.831   6.339 -0.6056 -0.3846 -0.6561
  142OSM      P15531   3.107   4.657   6.533  0.0866 -0.2196  0.2369
  142OSM    O1315532   2.992   4.719   6.600 -0.4647  0.4886  0.5716
  142OSM    O1415533   3.075   4.578   6.412  0.2079 -0.1984  0.3900
  142OSM    O1115534   3.182   4.567   6.639  0.4672 -0.4642  0.6486
  142OSM    O1215535   3.210   4.767   6.496 -0.5335  0.1606  0.2056
  142OSM    C1S15536   3.240   4.605   6.762  0.7661 -0.5685  0.6469
  142OSM    H1S15537   3.210   4.711   6.772 -1.7066 -1.0526 -0.8323
  142OSM    H1T15538   3.351   4.605   6.748  0.7934  3.3663 -0.2046
  142OSM     NF15539   3.242   4.564   7.006 -0.9095 -0.1165 -0.0135
  142OSM    HNF15540   3.320   4.528   7.056 -1.7124  0.4283  1.7180
  142OSM    C2S15541   3.190   4.511   6.877  0.2230 -0.4368 -0.5983
  142OSM    H2S15542   3.079   4.504   6.875  0.2700 -1.4257 -0.3045
  142OSM    C3S15543   3.249   4.366   6.854  0.5176 -0.7374 -0.4001
  142OSM    H3S15544   3.358   4.377   6.874  0.3472  1.7921 -0.5524
  142OSM     O315545   3.243   4.320   6.723 -0.0487 -0.5292  0.0682
  142OSM    HO315546   3.196   4.395   6.686 -2.3878 -1.7905  0.2788
  142OSM    C4S15547   3.190   4.273   6.952 -0.0922 -0.5154 -0.9773
  142OSM    H4S15548   3.255   4.258   7.039 -0.5784  1.4970 -0.2152
  142OSM    C5S15549   3.080   4.202   6.932 -0.0111  0.2754 -0.4178
  142OSM    H5S15550   3.027   4.211   6.836 -2.3532 -0.3840  0.7534
  142OSM    C6S15551   3.022   4.098   7.022  0.2502  0.6864 -0.3762
  142OSM    H6S15552   3.043   4.002   6.970  0.7639  0.4748  0.2024
  142OSM    H6T15553   2.917   4.125   7.045  0.1107  0.0366 -0.2273
  142OSM    C7S15554   3.083   4.092   7.169  0.0487  0.5072  0.1152
  142OSM    H7S15555   3.067   4.193   7.213  1.9766  0.0678  2.0180
  142OSM    H7T15556   3.192   4.070   7.167 -0.0049  0.3010 -1.1563
  142OSM    C8S15557   3.009   3.985   7.259 -0.4518 -0.4241 -0.2238
  142OSM    H8S15558   3.021   3.886   7.210 -0.7622 -0.4618 -0.2247
  142OSM    H8T15559   2.902   4.005   7.242  0.3224  1.5279 -3.7636
  142OSM    C9S15560   3.044   3.990   7.411 -0.3258 -0.8599  0.0390
  142OSM    H9S15561   3.152   3.969   7.422 -0.5626 -0.7295  3.7962
  142OSM    H9T15562   2.981   3.909   7.454 -1.8979  0.3457  0.0927
  142OSM   C10S15563   3.018   4.126   7.485 -0.1842  0.2410  0.3307
  142OSM   H10S15564   2.919   4.173   7.464  1.6661  2.9584 -3.6197
  142OSM   H10T15565   3.089   4.195   7.434  0.5887 -1.0633 -0.4107
  142OSM   C11S15566   3.049   4.103   7.634  0.0903  0.1253 -0.6826
  142OSM   H11S15567   3.139   4.040   7.637 -1.1900 -1.7548  0.9480
  142OSM   H11T15568   2.970   4.042   7.684  2.8241 -1.1418  2.4288
  142OSM   C12S15569   3.075   4.218   7.731 -0.0264 -0.1619  0.6015
  142OSM   H12S15570   3.071   4.202   7.841 -0.8115  2.6429  1.0814
  142OSM   H12T15571   2.995   4.293   7.710  2.2480  1.7586 -1.8533
  142OSM   C13S15572   3.208   4.288   7.707  0.1977 -0.3664  1.3024
  142OSM   H13S15573   3.231   4.304   7.600  0.6201  0.7148  1.5362
  142OSM   H13T15574   3.294   4.232   7.750  1.1165 -0.4663 -0.5764
  142OSM   C14S15575   3.207   4.430   7.764  0.0328 -1.0082 -0.3339
  142OSM   H14S15576   3.115   4.486   7.738 -0.6496 -0.3096  3.1117
  142OSM   H14T15577   3.283   4.488   7.707  0.3226 -1.3892 -0.3414
  142OSM   C15S15578   3.220   4.444   7.912 -0.5996 -0.3700  0.0547
  142OSM   H15S15579   3.313   4.392   7.941 -0.2670  0.2429  0.1079
  142OSM   H15T15580   3.136   4.400   7.970 -1.6204  1.3621 -0.0123
  142OSM   C16S15581   3.223   4.595   7.959 -0.0650  0.0348  0.1559
  142OSM   H16S15582   3.121   4.638   7.956  0.0695  0.4381  0.9586
  142OSM   H16T15583   3.277   4.648   7.877 -0.6135 -0.8292 -0.7814
  142OSM   C17S15584   3.281   4.610   8.098  0.3259 -0.8439 -0.3849
  142OSM   H17S15585   3.389   4.585   8.096 -0.1574 -3.0763 -0.5227
  142OSM   H17T15586   3.231   4.548   8.175  0.6941  0.2282  0.7405
  142OSM   C18S15587   3.271   4.757   8.142  0.5785  0.1411  0.2293
  142OSM   H18S15588   3.311   4.822   8.061 -0.8104 -0.9228 -1.3925
  142OSM   H18T15589   3.317   4.767   8.243 -0.5219 -1.4057  0.9162
  142OSM   H18U15590   3.163   4.782   8.150 -0.0084 -1.6255 -1.4313
  142OSM    C1F15591   3.195   4.673   7.057  0.5251 -0.1361  0.0835
  142OSM     OF15592   3.109   4.739   7.004 -0.0402 -0.1236  0.1443
  142OSM    C2F15593   3.248   4.711   7.193  0.4317 -0.1605  0.0972
  142OSM    H2F15594   3.358   4.722   7.178  0.7667  1.3546  2.9734
  142OSM    H2G15595   3.223   4.621   7.253 -0.1690 -0.9882 -1.3536
  142OSM    C3F15596   3.165   4.833   7.238 -0.1691  0.0680 -0.0970
  142OSM    H3F15597   3.060   4.801   7.253 -0.0294 -0.1234  0.4844
  142OSM    H3G15598   3.171   4.916   7.164 -1.6773  1.9891  1.7915
  142OSM    C4F15599   3.207   4.879   7.377  0.2597 -0.2221  0.3681
  142OSM    H4F15600   3.219   4.794   7.447 -1.6582  0.0822  1.1322
  142OSM    H4G15601   3.121   4.938   7.415  1.9942  1.7842  1.3828
  142OSM    C5F15602   3.333   4.971   7.384 -0.1433 -0.2250 -0.1097
  142OSM    H5F15603   3.319   5.059   7.317  0.7001 -1.1381 -1.5389
  142OSM    H5G15604   3.412   4.909   7.337  1.1055  1.1315  0.1390
  142OSM    C6F15605   3.375   5.019   7.520 -0.5415  0.6235  0.2388
  142OSM    H6F15606   3.486   5.019   7.524 -0.5178 -0.5233  0.1383
  142OSM    H6G15607   3.342   4.935   7.586 -1.7725 -1.2977 -2.6014
  142OSM    C7F15608   3.307   5.138   7.571 -0.5374 -0.0399 -0.7770
  142OSM    H7F15609   3.198   5.124   7.560 -0.9886  1.1808  1.6621
  142OSM    H7G15610   3.328   5.219   7.498 -2.3899 -0.0681 -1.3943
  142OSM    C8F15611   3.363   5.197   7.706  0.0970 -0.1630 -0.5509
  142OSM    H8F15612   3.359   5.112   7.777  1.2387  0.0188 -0.2408
  142OSM    H8G15613   3.287   5.265   7.748 -1.6945 -1.0904 -2.1308
  142OSM    C9F15614   3.499   5.259   7.694 -0.1058  0.4483  0.3498
  142OSM    H9F15615   3.508   5.344   7.624 -2.9831  0.8326  0.3176
  142OSM   C10F15616   3.606   5.226   7.763  0.3285  0.3296 -1.1163
  142OSM   H10F15617   3.695   5.291   7.759  0.9476 -0.5479 -2.0112
  142OSM   C11F15618   3.618   5.119   7.872 -0.2075  0.4826  0.4045
  142OSM   H11F15619   3.723   5.086   7.859  0.6626  3.6033 -1.7841
  142OSM   H11G15620   3.550   5.034   7.848  3.3270 -2.4313 -0.0917
  142OSM   C12F15621   3.576   5.174   8.005 -0.2067 -0.4807 -0.3703
  142OSM   H12F15622   3.466   5.190   8.006 -0.0446  0.7284  0.7632
  142OSM   H12G15623   3.627   5.266   8.040  0.1093 -0.7059 -0.2342
  142OSM   C13F15624   3.607   5.075   8.113  0.2285 -0.2976  0.0019
  142OSM   H13F15625   3.716   5.053   8.117  0.1521 -0.5238  1.2105
  142OSM   H13G15626   3.560   4.980   8.079  0.4106 -1.0917  1.8044
  142OSM   C14F15627   3.545   5.107   8.251 -0.2692 -0.4158  0.0468
  142OSM   H14F15628   3.439   5.118   8.221 -0.5996 -0.9841  0.9844
  142OSM   H14G15629   3.582   5.204   8.290 -0.7098 -0.1598 -0.1651
  142OSM   C15F15630   3.558   4.998   8.361 -1.0613  0.6526 -0.6570
  142OSM   H15F15631   3.663   4.982   8.394 -1.8214 -1.5364  0.9457
  142OSM   H15G15632   3.526   4.900   8.318  0.9972 -0.1654 -0.4524
  142OSM   C16F15633   3.476   5.014   8.486  0.5644  0.0863 -0.1175
  142OSM   H16F15634   3.377   5.026   8.438  1.9009 -1.2487 -3.5535
  142OSM   H16G15635   3.504   5.110   8.534 -0.3630 -0.7524  2.2375
  142OSM   C17F15636   3.491   4.900   8.599  0.6041 -0.8729  0.2842
  142OSM   H17F15637   3.408   4.926   8.668 -0.0614  1.0009 -1.1230
  142OSM   H17G15638   3.592   4.909   8.644  0.1293 -0.6638  1.3552
  142OSM   C18F15639   3.474   4.761   8.548 -0.4594  0.4436  0.2734
  142OSM   H18F15640   3.380   4.759   8.489  0.3138 -0.3207 -0.9796
  142OSM   H18G15641   3.474   4.692   8.635 -2.9868  0.1994  0.1582
  142OSM   H18H15642   3.560   4.733   8.483  0.1420 -1.3001  1.7455
  143OSM      N15643   5.559   6.729   5.989  0.2388  0.0729 -0.4652
  143OSM    C1515644   5.677   6.763   5.909 -0.1174 -0.3719 -0.7198
  143OSM   H15A15645   5.701   6.696   5.828 -0.9245  0.1093 -1.3846
  143OSM   H15B15646   5.767   6.745   5.966 -0.1460 -0.5164 -0.7213
  143OSM   H15C15647   5.660   6.866   5.880 -0.8355  0.6071  2.6738
  143OSM    C1415648   5.452   6.705   5.889 -0.3689  0.2263  0.1359
  143OSM   H14A15649   5.485   6.625   5.825  0.4543  0.4600  0.2508
  143OSM   H14B15650   5.442   6.789   5.822  1.7369 -0.0399 -0.6113
  143OSM   H14C15651   5.355   6.686   5.932 -0.5874  0.3722 -0.2978
  143OSM    C1315652   5.572   6.589   6.057 -0.2913 -0.2147  0.1773
  143OSM   H13A15653   5.627   6.596   6.151 -0.7186  1.1208  0.3532
  143OSM   H13B15654   5.636   6.534   5.989  1.5363  0.8587  0.9312
  143OSM   H13C15655   5.479   6.542   6.084 -0.8510  1.1571  0.7175
  143OSM    C1215656   5.522   6.824   6.098  0.4000 -0.7167 -0.1508
  143OSM   H12A15657   5.498   6.914   6.043 -0.6860 -0.6699  0.3856
  143OSM   H12B15658   5.610   6.869   6.143  0.3954 -1.0070  0.1443
  143OSM    C1115659   5.419   6.783   6.202 -0.1261 -0.6668 -0.3974
  143OSM   H11A15660   5.405   6.872   6.267  1.5796 -0.6279 -0.0511
  143OSM   H11B15661   5.456   6.701   6.266  1.4413 -0.1108 -0.5472
  143OSM      P15662   5.152   6.823   6.184 -0.1386  0.1161 -0.2049
  143OSM    O1315663   5.155   6.960   6.141  0.1175 -0.0740  0.3872
  143OSM    O1415664   5.033   6.746   6.136  0.5556  0.1675  0.5911
  143OSM    O1115665   5.163   6.824   6.346 -0.3654  0.1291  0.1407
  143OSM    O1215666   5.285   6.754   6.142 -0.4059  0.0340  0.2035
  143OSM    C1S15667   5.135   6.696   6.411 -0.8511  0.5019  0.7116
  143OSM    H1S15668   5.162   6.605   6.353  2.3873  0.5049  1.9957
  143OSM    H1T15669   5.026   6.688   6.433 -0.8174  2.0386  1.5985
  143OSM     NF15670   5.227   6.543   6.578  0.1783  0.0116  0.0070
  143OSM    HNF15671   5.171   6.495   6.644  2.0221 -4.1609 -1.1474
  143OSM    C2S15672   5.212   6.683   6.547  0.0995 -0.3895  0.0550
  143OSM    H2S15673   5.304   6.737   6.516 -1.1367  1.5737 -0.3327
  143OSM    C3S15674   5.153   6.761   6.665  0.4514 -0.4519 -0.0720
  143OSM    H3S15675   5.055   6.715   6.687 -1.2439  1.5466 -2.7951
  143OSM     O315676   5.113   6.897   6.634 -0.5608 -0.0386 -0.4292
  143OSM    HO315677   5.082   6.891   6.544  1.6365 -2.1664 -1.1328
  143OSM    C4S15678   5.244   6.748   6.784  0.5831 -0.1927 -0.5323
  143OSM    H4S15679   5.351   6.775   6.780  1.0741 -2.0328 -0.7255
  143OSM    C5S15680   5.193   6.693   6.894  0.1550 -1.3118  0.5064
  143OSM    H5S15681   5.087   6.664   6.889  0.0416 -0.7302 -1.1202
  143OSM    C6S15682   5.276   6.667   7.019  0.5030  0.1765 -0.1778
  143OSM    H6S15683   5.379   6.708   7.018  0.9233 -0.8534 -1.3184
  143OSM    H6T15684   5.285   6.562   7.054  0.5136  1.1561  3.1608
  143OSM    C7S15685   5.216   6.744   7.145 -0.6777  0.0074  1.1223
  143OSM    H7S15686   5.114   6.700   7.146 -0.3276 -0.8083  1.0449
  143OSM    H7T15687   5.203   6.855   7.138 -0.5355  0.0305  1.2189
  143OSM    C8S15688   5.292   6.724   7.276 -0.2248 -0.2870  0.2142
  143OSM    H8S15689   5.370   6.800   7.300  0.2064 -0.9008  0.7805
  143OSM    H8T15690   5.340   6.624   7.280  1.3437  0.3323 -1.3415
  143OSM    C9S15691   5.193   6.729   7.393 -0.3042  0.0374  0.2229
  143OSM    H9S15692   5.115   6.651   7.401  0.5450 -1.1254 -2.0641
  143OSM    H9T15693   5.141   6.827   7.387  0.6171  0.4637 -1.6043
  143OSM   C10S15694   5.275   6.732   7.531  0.2778 -0.6025  0.2566
  143OSM   H10S15695   5.363   6.797   7.515  1.0911 -1.7680 -0.1554
  143OSM   H10T15696   5.311   6.630   7.558 -1.3770 -0.6561  2.5797
  143OSM   C11S15697   5.188   6.786   7.648  0.2317  0.3317 -0.2974
  143OSM   H11S15698   5.095   6.726   7.652  0.8641 -0.5977  1.1903
  143OSM   H11T15699   5.154   6.890   7.629  1.2034  0.9593  1.1775
  143OSM   C12S15700   5.248   6.770   7.782 -0.0761 -0.3843 -0.1241
  143OSM   H12S15701   5.170   6.805   7.852  1.6575  3.3930  0.1956
  143OSM   H12T15702   5.331   6.842   7.800 -0.2145 -0.7576  2.3483
  143OSM   C13S15703   5.298   6.630   7.821  0.3343 -0.5136  0.5196
  143OSM   H13S15704   5.398   6.606   7.779  0.3174  0.2111  0.0515
  143OSM   H13T15705   5.230   6.556   7.774 -0.0371  0.0744  0.1214
  143OSM   C14S15706   5.309   6.604   7.973  0.7205  0.2769  0.4767
  143OSM   H14S15707   5.374   6.515   7.985  0.0855 -0.5393 -1.7566
  143OSM   H14T15708   5.209   6.573   8.010 -0.3290  3.8170  0.9479
  143OSM   C15S15709   5.355   6.727   8.055 -0.3279 -0.3453 -0.1504
  143OSM   H15S15710   5.279   6.807   8.056 -2.1344 -1.9378  1.9865
  143OSM   H15T15711   5.443   6.781   8.013 -0.7670  1.0305  0.6372
  143OSM   C16S15712   5.367   6.695   8.207 -0.4932  0.7595 -0.2012
  143OSM   H16S15713   5.405   6.591   8.216 -1.6966  0.2960 -0.3366
  143OSM   H16T15714   5.263   6.680   8.242 -0.0145  1.1532  1.4770
  143OSM   C17S15715   5.440   6.791   8.300 -0.2179 -0.4115 -0.2470
  143OSM   H17S15716   5.425   6.738   8.396 -1.9880  1.8820  0.8395
  143OSM   H17T15717   5.394   6.892   8.312  2.1217  0.4189  2.9403
  143OSM   C18S15718   5.579   6.829   8.261  0.5805  0.1602  0.0960
  143OSM   H18S15719   5.583   6.858   8.154 -0.5176  0.3818  0.1076
  143OSM   H18T15720   5.643   6.739   8.274 -3.1537 -2.6462  0.4537
  143OSM   H18U15721   5.626   6.914   8.316  1.3442 -0.7453  0.9043
  143OSM    C1F15722   5.329   6.464   6.531  0.4740 -0.1445 -0.8363
  143OSM     OF15723   5.396   6.484   6.433  0.1014  0.0525 -0.2866
  143OSM    C2F15724   5.356   6.352   6.625 -0.3466 -0.2764  0.2821
  143OSM    H2F15725   5.275   6.279   6.601 -2.2851  1.6361  0.7523
  143OSM    H2G15726   5.333   6.379   6.730  0.0875 -1.0452  0.5836
  143OSM    C3F15727   5.494   6.291   6.610 -0.2162 -0.0565 -0.2243
  143OSM    H3F15728   5.514   6.238   6.514 -0.4581 -2.1593  0.8328
  143OSM    H3G15729   5.486   6.209   6.684 -0.5408 -0.2047 -0.4252
  143OSM    C4F15730   5.607   6.378   6.666  0.7875 -0.2062 -0.2817
  143OSM    H4F15731   5.619   6.468   6.602  1.0288 -1.3855 -1.9454
  143OSM    H4G15732   5.705   6.326   6.660  0.8621 -0.2180  0.8545
  143OSM    C5F15733   5.583   6.433   6.814  0.0580  0.8411 -0.3569
  143OSM    H5F15734   5.495   6.500   6.822 -0.6864 -0.2535  1.0577
  143OSM    H5G15735   5.670   6.496   6.840  1.1750 -0.3725 -0.9973
  143OSM    C6F15736   5.572   6.319   6.920 -0.2126 -0.2670  0.2062
  143OSM    H6F15737   5.492   6.242   6.911 -0.1350 -0.6499  2.2380
  143OSM    H6G15738   5.549   6.368   7.018 -0.8224  2.1302 -1.0442
  143OSM    C7F15739   5.696   6.241   6.922 -0.7742 -0.3555  0.0853
  143OSM    H7F15740   5.782   6.307   6.945  0.8894 -2.3034 -0.1702
  143OSM    H7G15741   5.715   6.197   6.821 -3.1683  0.3503 -0.7493
  143OSM    C8F15742   5.698   6.121   7.017  0.0868  1.0057 -0.4657
  143OSM    H8F15743   5.790   6.060   7.003 -1.0302 -0.7803 -0.3447
  143OSM    H8G15744   5.626   6.047   6.976  1.9839 -0.8930 -0.6042
  143OSM    C9F15745   5.670   6.158   7.162 -0.9309 -0.3693 -0.0846
  143OSM    H9F15746   5.567   6.193   7.180 -0.9561 -1.2772  1.8380
  143OSM   C10F15747   5.741   6.139   7.271 -0.2983 -0.2237 -0.5365
  143OSM   H10F15748   5.698   6.174   7.366 -0.7254 -0.6072 -0.5869
  143OSM   C11F15749   5.875   6.081   7.280  0.2451  0.2729 -0.2499
  143OSM   H11F15750   5.919   6.035   7.189  0.4634  1.3636 -0.7004
  143OSM   H11G15751   5.880   6.008   7.364 -1.4208  0.2264 -0.1540
  143OSM   C12F15752   5.984   6.173   7.328  0.5447  0.5436  0.4206
  143OSM   H12F15753   5.991   6.254   7.252  0.1733 -0.9175 -1.2408
  143OSM   H12G15754   6.078   6.115   7.340  0.0165 -0.9972 -2.1603
  143OSM   C13F15755   5.970   6.247   7.464 -0.5595  0.3558  0.0853
  143OSM   H13F15756   5.873   6.300   7.459 -0.6345  0.1291 -1.9627
  143OSM   H13G15757   6.060   6.312   7.468  0.5023 -1.0132 -0.4262
  143OSM   C14F15758   5.981   6.153   7.586 -0.2266 -0.2420  0.1558
  143OSM   H14F15759   6.077   6.097   7.585 -1.6914 -2.9656 -2.1229
  143OSM   H14G15760   5.892   6.086   7.579 -2.2274  2.3433 -0.8062
  143OSM   C15F15761   5.963   6.223   7.722  0.2752  0.1627  0.0167
  143OSM   H15F15762   5.921   6.145   7.789  1.0627  0.5838  1.0247
  143OSM   H15G15763   5.901   6.316   7.718  1.7382  1.1346 -1.9972
  143OSM   C16F15764   6.097   6.268   7.785  0.4368  1.1367  0.4846
  143OSM   H16F15765   6.156   6.336   7.720 -2.6052  1.5721 -2.0351
  143OSM   H16G15766   6.160   6.177   7.787  2.3269  2.2148 -2.5248
  143OSM   C17F15767   6.072   6.324   7.925 -0.1725 -0.5164  0.6007
  143OSM   H17F15768   6.013   6.248   7.981  0.0545  0.2334  1.8921
  143OSM   H17G15769   6.004   6.412   7.923 -1.0726 -1.2173 -0.6831
  143OSM   C18F15770   6.190   6.351   8.012  0.2887  0.1115 -0.1178
  143OSM   H18F15771   6.255   6.424   7.958 -1.3937  2.4438  0.8340
  143OSM   H18G15772   6.240   6.256   8.038  1.1144  0.5663 -0.0008
  143OSM   H18H15773   6.151   6.389   8.109  0.0253 -3.4841  1.3482
  144OSM      N15774   5.805   5.186   5.810  0.2522  0.3795  0.2727
  144OSM    C1515775   5.720   5.305   5.785 -0.1030  0.0189 -0.3669
  144OSM   H15A15776   5.780   5.393   5.769 -0.2537  0.2114  0.1109
  144OSM   H15B15777   5.669   5.321   5.879  0.0791 -2.0744  0.1366
  144OSM   H15C15778   5.647   5.310   5.706 -2.4422  0.6823  1.7209
  144OSM    C1415779   5.707   5.071   5.812 -0.7335  0.1358  0.1702
  144OSM   H14A15780   5.743   4.974   5.844 -0.2727 -0.2512 -1.4086
  144OSM   H14B15781   5.665   5.055   5.714 -1.3429 -3.9204  0.9021
  144OSM   H14C15782   5.632   5.096   5.885  1.2171  1.3113  1.8644
  144OSM    C1315783   5.908   5.170   5.702 -0.2048 -0.6271 -0.1809
  144OSM   H13A15784   5.979   5.102   5.747  1.0932  1.0794  0.4918
  144OSM   H13B15785   5.971   5.255   5.681  0.4782 -1.7590 -3.1169
  144OSM   H13C15786   5.877   5.141   5.603 -0.1382  1.1650 -0.7680
  144OSM    C1215787   5.871   5.206   5.942 -0.7842 -0.4592  0.4818
  144OSM   H12A15788   5.955   5.274   5.933 -0.2845 -0.8975  1.6526
  144OSM   H12B15789   5.929   5.120   5.972 -1.1844 -0.8420  0.1667
  144OSM    C1115790   5.797   5.270   6.055 -0.0852  0.1168  0.7746
  144OSM   H11A15791   5.840   5.235   6.151  0.3747  1.5720  1.1166
  144OSM   H11B15792   5.695   5.226   6.056  0.9179 -2.5080 -0.7113
  144OSM      P15793   5.856   5.521   6.112 -0.0139 -0.0084 -0.1943
  144OSM    O1315794   5.979   5.556   6.040 -0.3882  0.0984 -0.4091
  144OSM    O1415795   5.771   5.635   6.148 -0.0168 -0.5572 -0.2377
  144OSM    O1115796   5.898   5.442   6.243 -0.1858 -0.5278  0.0543
  144OSM    O1215797   5.778   5.412   6.032 -0.1245 -0.0474  0.5716
  144OSM    C1S15798   5.798   5.424   6.346  0.2762 -0.0891  0.2911
  144OSM    H1S15799   5.703   5.376   6.313 -0.1259  0.3734  0.7729
  144OSM    H1T15800   5.774   5.523   6.389  1.3011  1.7075 -2.9227
  144OSM     NF15801   5.759   5.280   6.535 -0.4996 -0.2503 -0.0982
  144OSM    HNF15802   5.744   5.343   6.611 -3.1549 -0.6015 -0.2159
  144OSM    C2S15803   5.860   5.317   6.443 -0.2701  0.1065 -0.3773
  144OSM    H2S15804   5.887   5.234   6.373 -1.3614 -0.8536  0.3066
  144OSM    C3S15805   5.994   5.376   6.507  0.0170 -0.4833 -0.6426
  144OSM    H3S15806   5.969   5.471   6.560  2.4622  0.6994 -1.4685
  144OSM     O315807   6.084   5.427   6.415 -0.4122 -0.4388 -0.4432
  144OSM    HO315808   6.024   5.453   6.345 -2.3328  2.9346  2.1240
  144OSM    C4S15809   6.059   5.279   6.599 -0.3435  0.1316 -0.1305
  144OSM    H4S15810   6.080   5.175   6.572 -0.9647  0.3662 -1.6740
  144OSM    C5S15811   6.116   5.315   6.716 -0.6536  0.3455  0.4823
  144OSM    H5S15812   6.123   5.424   6.722 -0.2569  0.3031  0.8197
  144OSM    C6S15813   6.189   5.231   6.815 -0.2777  0.0982  0.0124
  144OSM    H6S15814   6.295   5.234   6.782 -0.3853  0.0612 -0.3515
  144OSM    H6T15815   6.151   5.126   6.807 -2.0933  0.7019  0.2195
  144OSM    C7S15816   6.185   5.273   6.963  0.4968 -0.3498  0.0951
  144OSM    H7S15817   6.077   5.258   6.983  0.5533 -2.2090 -0.7424
  144OSM    H7T15818   6.226   5.374   6.986  0.4857 -0.3012 -0.0993
  144OSM    C8S15819   6.246   5.165   7.049  0.1640  0.2802  0.3443
  144OSM    H8S15820   6.350   5.148   7.016 -0.1315  0.4787 -0.7344
  144OSM    H8T15821   6.184   5.073   7.045  0.3240  0.2148 -1.0479
  144OSM    C9S15822   6.253   5.214   7.196  0.2534  0.1632  0.0539
  144OSM    H9S15823   6.153   5.254   7.224 -0.8405 -1.3493 -1.4489
  144OSM    H9T15824   6.323   5.300   7.200  0.8918 -0.3468 -0.0049
  144OSM   C10S15825   6.304   5.101   7.287  0.2032 -0.3167  0.1527
  144OSM   H10S15826   6.402   5.072   7.244 -0.4022  0.2520 -1.7084
  144OSM   H10T15827   6.239   5.012   7.277 -1.4868  0.6493  1.8801
  144OSM   C11S15828   6.328   5.128   7.442 -0.4243  0.1962 -0.2227
  144OSM   H11S15829   6.409   5.204   7.452  0.8230 -0.9060 -1.4594
  144OSM   H11T15830   6.366   5.035   7.489 -1.2363  0.8556  1.8480
  144OSM   C12S15831   6.206   5.165   7.523 -0.3962 -0.2295  0.6236
  144OSM   H12S15832   6.129   5.092   7.493  0.5207 -1.7755  1.8831
  144OSM   H12T15833   6.171   5.269   7.505 -0.2273 -0.0068  1.5576
  144OSM   C13S15834   6.223   5.159   7.674 -0.9634 -0.1237 -0.0792
  144OSM   H13S15835   6.292   5.242   7.703  0.0930 -0.7645 -0.7180
  144OSM   H13T15836   6.268   5.062   7.703 -0.0711  0.0774 -0.7847
  144OSM   C14S15837   6.089   5.168   7.753  0.1610  0.2653 -0.1299
  144OSM   H14S15838   6.016   5.092   7.717  1.7900 -2.2490  1.5156
  144OSM   H14T15839   6.043   5.267   7.738  2.4853  1.4001 -0.1645
  144OSM   C15S15840   6.106   5.157   7.907 -0.8199  0.0210  0.6639
  144OSM   H15S15841   6.168   5.245   7.932  0.6739 -0.2690 -1.7401
  144OSM   H15T15842   6.173   5.069   7.919  1.2793  1.0221 -2.4168
  144OSM   C16S15843   5.984   5.140   7.989  0.0959 -0.6561  0.6272
  144OSM   H16S15844   6.023   5.142   8.093 -0.1581  1.8398  0.7373
  144OSM   H16T15845   5.934   5.042   7.974 -0.5211 -0.4038  0.9686
  144OSM   C17S15846   5.872   5.248   7.987 -0.2699 -0.6524 -0.2942
  144OSM   H17S15847   5.820   5.255   7.889  2.2623  2.6673 -1.6065
  144OSM   H17T15848   5.915   5.350   7.987  0.7828 -0.9737 -3.5583
  144OSM   C18S15849   5.781   5.231   8.107 -0.5885  1.1851 -0.3114
  144OSM   H18S15850   5.835   5.198   8.199  0.7957 -0.8138 -1.7553
  144OSM   H18T15851   5.712   5.145   8.099  1.9020 -1.2082  1.6105
  144OSM   H18U15852   5.718   5.319   8.128 -1.5876  0.5606 -0.6346
  144OSM    C1F15853   5.665   5.195   6.503  0.9877 -0.2841 -0.4445
  144OSM     OF15854   5.663   5.148   6.393  0.7070 -0.7015 -0.2651
  144OSM    C2F15855   5.562   5.167   6.607  0.1216  0.2870 -0.4055
  144OSM    H2F15856   5.516   5.263   6.637  0.0310  0.1854 -0.2201
  144OSM    H2G15857   5.616   5.134   6.698 -0.4021  0.2037 -0.1224
  144OSM    C3F15858   5.445   5.080   6.560  0.0239  0.2741 -0.3535
  144OSM    H3F15859   5.480   4.974   6.552 -0.3259  0.0673  0.7361
  144OSM    H3G15860   5.420   5.105   6.455  1.5806  0.6582 -0.6579
  144OSM    C4F15861   5.315   5.085   6.644 -0.7171 -1.0598  0.4878
  144OSM    H4F15862   5.242   5.010   6.605 -0.6802 -1.3926  1.0617
  144OSM    H4G15863   5.271   5.184   6.618 -1.0412 -1.9575 -2.8855
  144OSM    C5F15864   5.329   5.057   6.786 -0.3933  0.3573 -0.2454
  144OSM    H5F15865   5.413   5.115   6.829  0.3448 -0.0805 -1.0634
  144OSM    H5G15866   5.359   4.950   6.785 -2.3920 -0.2748  1.3872
  144OSM    C6F15867   5.201   5.076   6.872  0.7707  0.2517 -0.5969
  144OSM    H6F15868   5.113   5.051   6.810  0.6281 -2.0149  0.4095
  144OSM    H6G15869   5.192   5.185   6.892 -1.9923  0.3166 -1.8179
  144OSM    C7F15870   5.183   4.989   6.995 -0.7351 -1.0229  0.4972
  144OSM    H7F15871   5.182   4.881   6.966 -0.6862 -0.8173 -0.2872
  144OSM    H7G15872   5.082   5.012   7.034 -0.2879  0.1738  0.9758
  144OSM    C8F15873   5.283   5.030   7.101 -0.1483 -0.4385  0.1651
  144OSM    H8F15874   5.293   5.139   7.120 -2.0044 -0.4647  1.5274
  144OSM    H8G15875   5.382   5.010   7.054 -0.8789 -0.7767 -1.2863
  144OSM    C9F15876   5.279   4.947   7.226  0.0675  0.3902  0.2227
  144OSM    H9F15877   5.290   4.838   7.217 -2.5358  0.2234 -2.6488
  144OSM   C10F15878   5.247   4.990   7.354  0.8447 -0.2380  0.3324
  144OSM   H10F15879   5.247   4.916   7.435  1.1652  0.7061  1.2035
  144OSM   C11F15880   5.209   5.132   7.386 -0.0673 -0.4041 -0.0153
  144OSM   H11F15881   5.099   5.144   7.388 -0.1476 -0.6783 -1.3781
  144OSM   H11G15882   5.252   5.207   7.315 -1.4093 -1.7848 -2.4058
  144OSM   C12F15883   5.267   5.189   7.525 -0.2267  0.4363  0.3507
  144OSM   H12F15884   5.309   5.291   7.514 -0.3733  0.6569  1.7374
  144OSM   H12G15885   5.348   5.126   7.567 -1.8811 -0.7971  1.8714
  144OSM   C13F15886   5.173   5.178   7.641 -0.1557 -0.4311 -0.1092
  144OSM   H13F15887   5.140   5.074   7.662 -0.5944 -0.0612  1.0874
  144OSM   H13G15888   5.087   5.247   7.629  1.2859  1.6642  1.0340
  144OSM   C14F15889   5.240   5.236   7.766  0.0512  0.3241 -0.0464
  144OSM   H14F15890   5.276   5.337   7.734  1.2585  0.4446  1.5921
  144OSM   H14G15891   5.324   5.169   7.795 -0.1301 -0.0246 -0.3262
  144OSM   C15F15892   5.143   5.233   7.886 -0.3656  0.5734  0.4331
  144OSM   H15F15893   5.106   5.129   7.899  0.8039 -0.0874 -1.1382
  144OSM   H15G15894   5.059   5.301   7.861  1.0214  1.4735 -2.1960
  144OSM   C16F15895   5.212   5.280   8.021  0.3210 -0.0520  0.3713
  144OSM   H16F15896   5.126   5.276   8.091 -1.5256 -0.2030 -1.7628
  144OSM   H16G15897   5.227   5.390   8.016  0.3357 -0.0986 -1.0359
  144OSM   C17F15898   5.348   5.225   8.060  0.1031  0.5852  0.1306
  144OSM   H17F15899   5.410   5.255   7.973 -0.5079 -0.9257 -0.8718
  144OSM   H17G15900   5.346   5.114   8.066  0.3186  0.6439  2.2888
  144OSM   C18F15901   5.410   5.278   8.194  0.8999 -0.6091  0.4847
  144OSM   H18F15902   5.514   5.245   8.217  0.9598 -1.6919 -1.1720
  144OSM   H18G15903   5.337   5.256   8.275 -1.4103 -0.4137 -1.4352
  144OSM   H18H15904   5.423   5.388   8.190  0.0793 -0.4917  0.8406
  145SAPE     N15905   4.332   1.820  10.397 -0.2745  0.5252  0.0890
  145SAPE   HN115906   4.372   1.725  10.379  0.1450  0.3341  1.8453
  145SAPE   HN215907   4.418   1.866  10.432  1.4933 -0.8042 -2.1639
  145SAPE   HN315908   4.270   1.817  10.480  1.4908 -0.7613  1.4533
  145SAPE   C1215909   4.273   1.878  10.267 -0.3200  0.5924  0.2827
  145SAPE  H12A15910   4.356   1.886  10.194  1.8890  1.4799  2.6875
  145SAPE  H12B15911   4.237   1.982  10.284  0.8922  0.9573  0.7565
  145SAPE   C1115912   4.163   1.784  10.222 -0.4196 -0.2217  0.0120
  145SAPE  H11A15913   4.203   1.680  10.221 -0.0158 -0.0782 -1.7596
  145SAPE  H11B15914   4.140   1.816  10.118  1.1051  3.1653  0.5916
  145SAPE     P15915   3.939   1.895  10.303 -0.2255 -0.0364  0.0317
  145SAPE   O1315916   3.815   1.847  10.369  0.2576  0.5223 -0.1674
  145SAPE   O1415917   4.015   2.004  10.375  1.1027  0.1724 -0.3632
  145SAPE   O1215918   4.038   1.780  10.301  0.7096 -0.5618  0.2573
  145SAPE   O1115919   3.913   1.925  10.155  0.0452 -0.1971  0.2311
  145SAPE    C115920   3.885   1.838  10.053  0.7951  0.8633 -0.7463
  145SAPE    HA15921   3.974   1.827   9.988  0.6996 -3.3362 -0.4010
  145SAPE    HB15922   3.877   1.733  10.087  3.1228  0.3881 -1.4511
  145SAPE    C215923   3.752   1.879   9.978  0.6421  0.1427 -0.2100
  145SAPE    HS15924   3.741   1.804   9.897  0.7503 -0.2544  0.1392
  145SAPE   O2115925   3.758   2.012   9.924  0.7113  0.3056 -0.4258
  145SAPE   C2115926   3.847   2.026   9.826 -0.6732 -1.0005 -0.1648
  145SAPE   O2215927   3.912   1.935   9.775 -0.0564  0.2929  0.2545
  145SAPE   C2215928   3.868   2.171   9.803 -0.7067  0.4381 -0.0588
  145SAPE   H2R15929   3.891   2.217   9.901  0.6675 -0.9921  0.3372
  145SAPE   H2S15930   3.956   2.187   9.736 -2.2089  1.4671 -1.8949
  145SAPE    C315931   3.632   1.862  10.076  0.5735  0.0311 -0.4180
  145SAPE    HX15932   3.645   1.938  10.156 -2.4229  0.0249  0.1986
  145SAPE    HY15933   3.633   1.763  10.126  0.1429 -0.4688 -1.3680
  145SAPE   O3115934   3.509   1.889   9.999 -0.3428 -0.3967 -1.1630
  145SAPE   C3115935   3.425   1.974  10.055 -0.1496 -0.6121  0.6651
  145SAPE   O3215936   3.451   2.054  10.146  0.0094 -0.0255 -0.0608
  145SAPE   C3215937   3.301   1.997   9.962 -0.0498  0.3374 -0.8515
  145SAPE   H2X15938   3.253   2.092   9.996 -0.7994 -0.4849  0.4844
  145SAPE   H2Y15939   3.235   1.908   9.977 -0.9474  0.8646 -1.5595
  145SAPE   C2315940   3.750   2.244   9.737  0.2503  0.6424  0.4795
  145SAPE   H3R15941   3.772   2.347   9.701  0.3413  0.3873 -0.2040
  145SAPE   H3S15942   3.678   2.261   9.820  0.8443  0.2533  1.0815
  145SAPE   C2415943   3.692   2.167   9.620  0.4904  0.3405  0.3084
  145SAPE   H4R15944   3.602   2.222   9.586 -0.3926 -0.7881  0.7469
  145SAPE   H4S15945   3.653   2.067   9.648  0.2436  0.4448  0.3402
  145SAPE   C2515946   3.786   2.151   9.500 -0.5971 -0.1591 -0.0304
  145SAPE   H5R15947   3.869   2.079   9.513 -0.1109  0.0679 -1.6783
  145SAPE   C2615948   3.766   2.207   9.375 -0.2710 -0.1910 -1.0894
  145SAPE   H6R15949   3.851   2.190   9.308  1.0013 -0.3262  0.4938
  145SAPE   C2715950   3.652   2.296   9.324  0.7698 -0.2795 -0.0937
  145SAPE   H7R15951   3.587   2.330   9.408  0.1678 -2.2741  0.2928
  145SAPE   H7S15952   3.577   2.243   9.262  1.3852  0.0549 -1.1500
  145SAPE   C2815953   3.688   2.428   9.264 -0.2637  0.5122  0.6405
  145SAPE   H8R15954   3.701   2.515   9.330  1.7481  0.0769  0.8781
  145SAPE   C2915955   3.706   2.452   9.131 -0.2545 -0.1109 -0.5288
  145SAPE   H9R15956   3.739   2.551   9.097  1.9478 -0.2671  0.9137
  145SAPE  C21015957   3.690   2.346   9.029 -0.0768 -0.5585  0.1026
  145SAPE  H10R15958   3.594   2.372   8.979 -0.5006 -0.3795  0.9994
  145SAPE  H10S15959   3.679   2.245   9.074 -0.2290 -1.3572 -1.6237
  145SAPE  C21115960   3.816   2.343   8.945  0.2314  0.0652  0.0624
  145SAPE  H11R15961   3.905   2.308   8.998  0.9469  0.6554 -0.7254
  145SAPE  C21215962   3.835   2.366   8.815 -0.9185 -0.1736 -0.6464
  145SAPE  H12R15963   3.938   2.361   8.775 -1.3792  1.4362 -2.1521
  145SAPE  C21315964   3.719   2.408   8.724  0.2239 -0.3550 -0.1725
  145SAPE  H13R15965   3.658   2.484   8.778  0.4530 -0.2472 -0.0613
  145SAPE  H13S15966   3.651   2.323   8.704 -0.5054  0.4356 -1.1582
  145SAPE  C21415967   3.753   2.467   8.592 -0.0794 -0.3231  0.0309
  145SAPE  H14R15968   3.720   2.420   8.498  2.3117  0.7001 -1.4232
  145SAPE  C21515969   3.809   2.587   8.572  0.0613 -0.1082  0.3378
  145SAPE  H15R15970   3.831   2.615   8.468  0.7595 -1.6065  0.0634
  145SAPE  C21615971   3.859   2.679   8.676  0.5813 -0.2722  0.1264
  145SAPE  H16R15972   3.816   2.657   8.776 -0.7507  0.3411 -0.2783
  145SAPE  H16S15973   3.834   2.782   8.643 -2.3643 -1.1024 -0.5884
  145SAPE  C21715974   4.006   2.671   8.700  0.3433  0.4111 -0.4450
  145SAPE  H17R15975   4.077   2.666   8.614  1.8460  3.5524  0.4560
  145SAPE  H17S15976   4.029   2.579   8.758  0.8521  0.4687 -0.5505
  145SAPE  C21815977   4.038   2.792   8.778 -0.5727  0.1617 -0.3724
  145SAPE  H18R15978   3.976   2.804   8.869  0.4508 -0.0948  0.3747
  145SAPE  H18S15979   4.016   2.870   8.701  1.3491 -0.4417 -1.6041
  145SAPE  C21915980   4.184   2.812   8.819 -0.0831 -0.9757  0.2498
  145SAPE  H19R15981   4.204   2.909   8.869 -0.0416 -0.9305  0.1477
  145SAPE  H19S15982   4.253   2.809   8.732 -0.0095 -1.4029  0.3186
  145SAPE  C22015983   4.226   2.708   8.916 -0.3347  1.6878 -0.2777
  145SAPE  H20R15984   4.165   2.714   9.009  0.2009  1.0002  0.1257
  145SAPE  H20S15985   4.332   2.714   8.950 -0.9779  1.7745  1.8836
  145SAPE  H20T15986   4.211   2.609   8.868  2.3711  1.8979 -1.7707
  145SAPE   C3315987   3.340   1.995   9.813  0.3104  0.0910  0.7251
  145SAPE   H3X15988   3.432   2.057   9.808  0.3046  0.0758  0.4008
  145SAPE   H3Y15989   3.271   2.043   9.741  2.1385  1.6688 -0.0595
  145SAPE   C3415990   3.357   1.851   9.746  0.4238  0.1425  0.5274
  145SAPE   H4X15991   3.252   1.815   9.739 -0.1984  2.0849 -1.1483
  145SAPE   H4Y15992   3.423   1.784   9.805 -1.4469 -2.5337 -0.2179
  145SAPE   C3515993   3.412   1.852   9.600 -0.3279 -0.0331  0.0056
  145SAPE   H5X15994   3.488   1.771   9.589 -1.9274 -1.5098 -0.7890
  145SAPE   H5Y15995   3.467   1.944   9.572  0.6571 -0.3379  0.8799
  145SAPE   C3615996   3.297   1.828   9.510  0.3058 -0.8652 -0.2704
  145SAPE   H6X15997   3.224   1.912   9.510  0.6939 -0.4913  1.4429
  145SAPE   H6Y15998   3.238   1.738   9.539 -0.2246 -0.5467 -0.3522
  145SAPE   C3715999   3.330   1.808   9.360  0.8640 -0.3297  0.4223
  145SAPE   H7X16000   3.233   1.793   9.307 -0.5973  1.3524  2.4842
  145SAPE   H7Y16001   3.393   1.717   9.346  1.3744  0.0959 -0.1357
  145SAPE   C3816002   3.411   1.920   9.298 -0.2536  0.3412 -0.0373
  145SAPE   H8X16003   3.504   1.931   9.358 -0.2073 -1.1159  0.1913
  145SAPE   H8Y16004   3.351   2.013   9.298 -1.8577 -0.5709  2.9776
  145SAPE   C3916005   3.450   1.883   9.150  0.5460 -0.2972  0.5273
  145SAPE   H9X16006   3.358   1.842   9.102  0.7170 -0.8688  0.6766
  145SAPE   H9Y16007   3.531   1.807   9.147  0.5961 -0.2153 -0.7995
  145SAPE  C31016008   3.489   2.011   9.061 -0.2157  0.0261  0.2611
  145SAPE  H10X16009   3.567   2.070   9.113  0.9747 -3.2128  2.4333
  145SAPE  H10Y16010   3.397   2.070   9.041 -0.1532  0.2968  0.7756
  145SAPE  C31116011   3.552   1.963   8.926 -0.4624  0.0176 -0.4429
  145SAPE  H11X16012   3.491   1.881   8.884  0.7327 -1.2604  0.2562
  145SAPE  H11Y16013   3.654   1.922   8.942  0.1774 -0.1980 -4.2284
  145SAPE  C31216014   3.556   2.075   8.829  0.1687  0.0576  0.6215
  145SAPE  H12X16015   3.626   2.153   8.865  1.8413 -1.5232  0.9249
  145SAPE  H12Y16016   3.454   2.119   8.815  0.8287  1.1700 -1.1049
  145SAPE  C31316017   3.624   2.026   8.697 -0.3425  0.3071 -0.1009
  145SAPE  H13X16018   3.730   2.003   8.718 -1.1036 -4.4926 -0.2557
  145SAPE  H13Y16019   3.612   2.108   8.623 -0.4469 -0.0970 -0.5396
  145SAPE  C31416020   3.576   1.899   8.636  0.3609  0.4733 -0.0431
  145SAPE  H14X16021   3.472   1.904   8.600  0.4680 -1.3326 -0.7451
  145SAPE  H14Y16022   3.571   1.817   8.711 -2.2940  1.3552  0.8589
  145SAPE  C31516023   3.661   1.841   8.522  0.1859 -0.1976 -0.3935
  145SAPE  H15X16024   3.758   1.894   8.512 -0.6459  1.6825  0.9413
  145SAPE  H15Y16025   3.610   1.853   8.424 -0.2977  1.0204 -0.0081
  145SAPE  C31616026   3.694   1.691   8.535  0.0010  0.3921 -0.0299
  145SAPE  H16X16027   3.598   1.637   8.519  0.8641 -1.4403  0.8055
  145SAPE  H16Y16028   3.739   1.666   8.633 -1.2722 -1.8800  0.0547
  145SAPE  C31716029   3.792   1.638   8.429  0.7504  0.0019  0.1775
  145SAPE  H17X16030   3.879   1.708   8.429 -1.2538  2.6579  0.7585
  145SAPE  H17Y16031   3.740   1.656   8.333  1.0652  1.6445  0.2897
  145SAPE  C31816032   3.843   1.490   8.453 -0.5818  0.8216 -0.4017
  145SAPE  H18X16033   3.851   1.469   8.561  1.0068  2.3274 -0.1796
  145SAPE  H18Y16034   3.937   1.480   8.394  1.9861  4.1164  2.7141
  145SAPE  H18Z16035   3.768   1.415   8.420 -0.9770  1.4879 -1.0615
  146SAPE     N16036   2.229   1.228  10.748  0.1841  0.6113 -0.2932
  146SAPE   HN116037   2.242   1.251  10.848 -2.6933 -0.2432  0.3753
  146SAPE   HN216038   2.235   1.125  10.731  0.2222  0.5687 -0.0187
  146SAPE   HN316039   2.298   1.279  10.690  1.0429 -0.2467 -0.0409
  146SAPE   C1216040   2.092   1.272  10.712 -0.1519  0.3325  0.7350
  146SAPE  H12A16041   2.105   1.369  10.659  2.8972 -1.2497 -1.7162
  146SAPE  H12B16042   2.028   1.277  10.803 -2.0745  0.0577 -0.5390
  146SAPE   C1116043   2.028   1.177  10.596  0.3527  0.3056 -0.3651
  146SAPE  H11A16044   2.094   1.186  10.507  1.7482 -1.5401  0.4305
  146SAPE  H11B16045   1.925   1.205  10.563  0.4382  1.0587 -0.0272
  146SAPE     P16046   1.903   0.983  10.716  0.1014 -0.1884 -0.6916
  146SAPE   O1316047   1.907   0.837  10.728 -0.4080  0.5685  0.2161
  146SAPE   O1416048   1.877   1.072  10.825  0.0171  0.2743  0.6826
  146SAPE   O1216049   2.024   1.038  10.639 -0.1722  0.1546  0.1022
  146SAPE   O1116050   1.793   1.015  10.610  0.1973 -0.3447  0.0923
  146SAPE    C116051   1.741   0.935  10.501 -0.3355  0.1487 -1.2449
  146SAPE    HA16052   1.782   0.832  10.506  0.9769  0.6575 -1.2752
  146SAPE    HB16053   1.631   0.926  10.513 -0.2688 -0.4907 -1.0852
  146SAPE    C216054   1.781   1.001  10.362  0.0911 -0.0778  0.1662
  146SAPE    HS16055   1.717   0.948  10.289 -0.5151  0.2247  0.4752
  146SAPE   O2116056   1.923   1.002  10.339  0.8637 -0.7428 -0.3694
  146SAPE   C2116057   1.989   0.891  10.343  0.0019 -0.5917  0.6429
  146SAPE   O2216058   1.945   0.780  10.338  0.4713  0.1336  0.3854
  146SAPE   C2216059   2.144   0.914  10.340  0.3109 -0.2307 -0.0961
  146SAPE   H2R16060   2.184   0.948  10.438 -1.1330 -0.5488  0.6422
  146SAPE   H2S16061   2.203   0.820  10.327 -0.2127 -0.4106 -1.3076
  146SAPE    C316062   1.731   1.148  10.343  0.3187 -0.5520 -0.7208
  146SAPE    HX16063   1.810   1.216  10.382  0.1420 -0.8178  0.1197
  146SAPE    HY16064   1.636   1.155  10.401  1.6550 -0.6154  1.6373
  146SAPE   O3116065   1.707   1.178  10.205 -0.6166  0.3012  0.4240
  146SAPE   C3116066   1.784   1.270  10.148  0.2433 -0.7003  0.3129
  146SAPE   O3216067   1.855   1.343  10.206 -0.3486  0.7588 -0.2933
  146SAPE   C3216068   1.754   1.263   9.997  0.5548 -0.0463  0.1120
  146SAPE   H2X16069   1.645   1.247   9.978  0.3988  1.3873 -0.2498
  146SAPE   H2Y16070   1.808   1.180   9.946 -0.0036  0.4356 -1.3273
  146SAPE   C2316071   2.181   1.011  10.233 -0.1743 -0.9404 -0.5504
  146SAPE   H3R16072   2.271   1.071  10.258 -0.6711 -0.6510  0.5707
  146SAPE   H3S16073   2.099   1.083  10.208 -0.6881 -1.7995 -1.4426
  146SAPE   C2416074   2.210   0.952  10.088  0.2982  0.4221 -0.2678
  146SAPE   H4R16075   2.283   0.870  10.103  1.0328  1.6202  3.9809
  146SAPE   H4S16076   2.270   1.032  10.039 -0.2628  1.4108  0.6087
  146SAPE   C2516077   2.084   0.899  10.027  0.8725  0.0071  0.0610
  146SAPE   H5R16078   2.042   0.812  10.079  0.2746  0.4299  0.2952
  146SAPE   C2616079   2.019   0.963   9.923  0.2129 -0.4419 -0.4086
  146SAPE   H6R16080   1.923   0.925   9.887 -0.5538 -0.6543  1.7271
  146SAPE   C2716081   2.063   1.091   9.850 -0.3358 -0.7972 -0.9565
  146SAPE   H7R16082   2.113   1.163   9.919  2.6915 -0.6739 -3.1177
  146SAPE   H7S16083   1.971   1.148   9.825  0.9538  2.1431  0.4680
  146SAPE   C2816084   2.147   1.066   9.728  0.3661  0.2452 -0.0794
  146SAPE   H8R16085   2.238   1.011   9.756  0.4426  1.2321  1.8172
  146SAPE   C2916086   2.118   1.088   9.595  0.1674 -1.2488 -0.9612
  146SAPE   H9R16087   2.192   1.054   9.521  0.0519 -4.2163  0.1511
  146SAPE  C21016088   1.998   1.162   9.541 -0.1776 -0.3091 -0.2198
  146SAPE  H10R16089   2.030   1.192   9.439  0.4575  1.2893  0.4240
  146SAPE  H10S16090   1.982   1.258   9.593  0.3462  0.0207 -0.6695
  146SAPE  C21116091   1.874   1.078   9.545 -0.6893  0.1622  0.0904
  146SAPE  H11R16092   1.876   0.997   9.619 -1.1708  2.3599  2.6626
  146SAPE  C21216093   1.765   1.102   9.469 -0.2168 -1.1381  0.0998
  146SAPE  H12R16094   1.681   1.031   9.474 -1.5530  0.2615 -1.3688
  146SAPE  C21316095   1.743   1.218   9.371 -0.0071 -0.6777 -0.4866
  146SAPE  H13R16096   1.829   1.287   9.373 -0.0929 -0.5807 -0.1815
  146SAPE  H13S16097   1.652   1.277   9.395  0.4811  0.3477 -1.0885
  146SAPE  C21416098   1.747   1.166   9.228  0.8426  0.5476  0.5063
  146SAPE  H14R16099   1.847   1.145   9.188  1.1493 -1.8890  2.3393
  146SAPE  C21516100   1.639   1.168   9.142  0.1480 -0.5041 -0.0177
  146SAPE  H15R16101   1.655   1.123   9.043  1.7528 -0.2711  0.1077
  146SAPE  C21616102   1.499   1.199   9.188  0.4251 -0.3863 -0.4671
  146SAPE  H16R16103   1.460   1.301   9.165 -0.6340 -0.6367  0.1899
  146SAPE  H16S16104   1.477   1.191   9.296 -1.3736 -0.7121 -0.8365
  146SAPE  C21716105   1.391   1.106   9.127 -0.0777 -1.6691  0.0214
  146SAPE  H17R16106   1.372   1.122   9.019 -1.6465 -1.3586  0.3144
  146SAPE  H17S16107   1.297   1.125   9.185  0.1397 -0.6214  0.0386
  146SAPE  C21816108   1.418   0.956   9.139  0.6374  1.1592 -0.0581
  146SAPE  H18R16109   1.514   0.932   9.087 -1.5665  1.1214 -4.5822
  146SAPE  H18S16110   1.326   0.911   9.096  0.2779  1.2302  0.6320
  146SAPE  C21916111   1.431   0.895   9.282  0.6696 -0.0038 -0.0593
  146SAPE  H19R16112   1.525   0.933   9.327  0.4784 -0.2976  0.5918
  146SAPE  H19S16113   1.448   0.785   9.278  3.2851  0.3219  0.3963
  146SAPE  C22016114   1.314   0.924   9.374  0.6195  0.1227 -0.1794
  146SAPE  H20R16115   1.288   1.032   9.381 -1.8719 -0.5291  2.6495
  146SAPE  H20S16116   1.336   0.890   9.477  1.9682 -2.2197 -1.1689
  146SAPE  H20T16117   1.222   0.868   9.347 -0.2363  1.4471 -0.1013
  146SAPE   C3316118   1.792   1.395   9.928  0.4555  0.2391 -0.0608
  146SAPE   H3X16119   1.791   1.384   9.817  0.6274 -0.2743 -0.0148
  146SAPE   H3Y16120   1.896   1.417   9.959  0.5724  0.2529 -0.4520
  146SAPE   C3416121   1.698   1.513   9.955  0.7634 -1.2044  0.1662
  146SAPE   H4X16122   1.672   1.511  10.063 -1.0483 -1.7492 -0.2562
  146SAPE   H4Y16123   1.605   1.505   9.896  2.0924 -1.0428 -2.0726
  146SAPE   C3516124   1.768   1.642   9.919  0.7892  0.0912 -0.1539
  146SAPE   H5X16125   1.859   1.658   9.980  1.2050 -2.2973 -0.0771
  146SAPE   H5Y16126   1.699   1.723   9.952 -0.7568 -1.5124  0.7664
  146SAPE   C3616127   1.790   1.650   9.767 -0.1924 -0.3503  0.3498
  146SAPE   H6X16128   1.877   1.593   9.727  0.3515  1.6019 -1.4179
  146SAPE   H6Y16129   1.817   1.755   9.742 -0.3038 -0.0598  1.3754
  146SAPE   C3716130   1.668   1.636   9.680  0.2960 -0.1424 -0.6720
  146SAPE   H7X16131   1.596   1.715   9.709  0.3696 -0.0046 -0.8647
  146SAPE   H7Y16132   1.630   1.533   9.695  2.2069 -0.7154  0.7149
  146SAPE   C3816133   1.704   1.646   9.525  0.6535  0.1920 -0.6759
  146SAPE   H8X16134   1.786   1.573   9.513 -1.1008 -1.9439 -0.3844
  146SAPE   H8Y16135   1.738   1.751   9.517  1.2585  0.3935  2.9121
  146SAPE   C3916136   1.580   1.620   9.439  1.0268 -0.5451  0.5358
  146SAPE   H9X16137   1.505   1.675   9.500 -0.5570 -0.2221 -1.6061
  146SAPE   H9Y16138   1.543   1.516   9.443 -1.7130  0.3741  1.6669
  146SAPE  C31016139   1.596   1.668   9.292 -0.3947 -0.8634 -0.7414
  146SAPE  H10X16140   1.657   1.760   9.302  0.6458 -1.4933 -1.2319
  146SAPE  H10Y16141   1.500   1.710   9.254  0.0092  1.8474  0.9199
  146SAPE  C31116142   1.662   1.566   9.194 -0.4424 -0.0567 -0.3900
  146SAPE  H11X16143   1.607   1.471   9.209 -2.0442  1.1170  1.6690
  146SAPE  H11Y16144   1.765   1.534   9.220 -0.1629  0.1724 -1.1690
  146SAPE  C31216145   1.658   1.614   9.048  0.2433  0.3201  0.0442
  146SAPE  H12X16146   1.741   1.688   9.039  1.8443 -1.0273  2.7026
  146SAPE  H12Y16147   1.559   1.656   9.018  0.0442 -0.4109 -0.3402
  146SAPE  C31316148   1.678   1.486   8.963  0.2605 -0.4618  0.6393
  146SAPE  H13X16149   1.587   1.423   8.971 -0.3648  0.1349 -1.1705
  146SAPE  H13Y16150   1.768   1.429   8.996  1.0129 -0.3722 -1.1468
  146SAPE  C31416151   1.689   1.523   8.811  0.0372 -0.3225 -1.0580
  146SAPE  H14X16152   1.605   1.589   8.779  0.7406  1.2088  0.1400
  146SAPE  H14Y16153   1.687   1.428   8.753  0.1279 -1.3640  0.5726
  146SAPE  C31516154   1.819   1.599   8.779  0.0760  0.2952 -0.2386
  146SAPE  H15X16155   1.915   1.555   8.814 -0.3143  0.5235  1.2032
  146SAPE  H15Y16156   1.821   1.699   8.827  1.0394  1.7179 -3.0227
  146SAPE  C31616157   1.817   1.601   8.623 -0.5635  0.2068 -0.8461
  146SAPE  H16X16158   1.723   1.648   8.586 -0.0783  2.2274  0.3105
  146SAPE  H16Y16159   1.820   1.496   8.589  1.6827 -0.3522  0.8504
  146SAPE  C31716160   1.936   1.683   8.571  0.1560 -0.0710  0.4926
  146SAPE  H17X16161   1.947   1.786   8.611  0.9515  0.2893 -0.6118
  146SAPE  H17Y16162   1.914   1.699   8.463  1.2394 -0.9542  0.1226
  146SAPE  C31816163   2.072   1.615   8.600  0.4457 -0.1317 -0.3799
  146SAPE  H18X16164   2.065   1.504   8.597  0.0637 -0.0985 -1.1629
  146SAPE  H18Y16165   2.103   1.657   8.698  0.5371 -1.6659  0.2828
  146SAPE  H18Z16166   2.150   1.663   8.536  0.0038  0.6646 -0.3363
  147SAPE     N16167   1.957   3.616  10.854  0.0299  0.3860 -1.1801
  147SAPE   HN116168   1.986   3.542  10.786 -2.3811  0.9866 -3.0389
  147SAPE   HN216169   1.907   3.685  10.794 -0.2623  3.2516  2.0272
  147SAPE   HN316170   2.040   3.673  10.882  0.0288  0.2735 -0.9508
  147SAPE   C1216171   1.839   3.600  10.946 -0.7812  0.3823  0.2236
  147SAPE  H12A16172   1.820   3.700  10.989 -0.7287 -0.4016  2.1701
  147SAPE  H12B16173   1.873   3.525  11.020  0.2376 -1.0202 -1.5709
  147SAPE   C1116174   1.717   3.550  10.864 -0.5561 -0.4537  0.3328
  147SAPE  H11A16175   1.627   3.538  10.927 -1.9239 -0.9640 -1.6357
  147SAPE  H11B16176   1.750   3.452  10.823  0.5418  0.3892 -0.8748
  147SAPE     P16177   1.608   3.595  10.626  0.1151 -0.6212  0.0540
  147SAPE   O1316178   1.475   3.566  10.668  0.0689  0.4236  0.1701
  147SAPE   O1416179   1.627   3.686  10.510 -0.2255 -0.4976  0.4206
  147SAPE   O1216180   1.694   3.641  10.748 -0.1420 -0.0546 -0.2147
  147SAPE   O1116181   1.667   3.459  10.581 -0.4183 -0.1973 -0.1994
  147SAPE    C116182   1.809   3.438  10.547 -0.1720  0.0349 -0.2581
  147SAPE    HA16183   1.871   3.529  10.561  1.4372 -1.0703 -0.0098
  147SAPE    HB16184   1.843   3.357  10.615 -2.3437  0.3423  1.2927
  147SAPE    C216185   1.834   3.387  10.404  0.5141  0.2121  0.2123
  147SAPE    HS16186   1.944   3.388  10.385  0.1227 -0.9208 -2.4878
  147SAPE   O2116187   1.771   3.469  10.299 -0.1867  0.0721  0.4647
  147SAPE   C2116188   1.821   3.590  10.285 -0.1808  0.2898 -0.5012
  147SAPE   O2216189   1.920   3.633  10.352 -0.0952 -0.1024  0.0059
  147SAPE   C2216190   1.740   3.681  10.184 -0.1742 -0.2300 -0.8135
  147SAPE   H2R16191   1.766   3.643  10.083 -0.9752  2.6076 -2.1794
  147SAPE   H2S16192   1.633   3.675  10.215  0.0035  2.0340  0.4209
  147SAPE    C316193   1.786   3.243  10.383 -0.0189 -0.6405 -0.2605
  147SAPE    HX16194   1.676   3.241  10.402 -0.2942 -0.5828 -1.6737
  147SAPE    HY16195   1.840   3.183  10.458  0.6345 -0.4150 -0.5463
  147SAPE   O3116196   1.819   3.200  10.252  0.0831  0.4606  0.0845
  147SAPE   C3116197   1.720   3.200  10.161  0.5309  0.4646 -0.2192
  147SAPE   O3216198   1.606   3.248  10.181 -0.6127  1.1567  0.9089
  147SAPE   C3216199   1.776   3.138  10.030  0.4611  0.7152  0.3292
  147SAPE   H2X16200   1.887   3.138  10.031  0.4757 -0.5147  0.9533
  147SAPE   H2Y16201   1.737   3.209   9.954 -1.5902 -0.4794  0.1975
  147SAPE   C2316202   1.765   3.832  10.201  0.1969  0.4914  0.3391
  147SAPE   H3R16203   1.875   3.843  10.192  0.1469  0.1077 -0.9306
  147SAPE   H3S16204   1.728   3.864  10.301 -3.2566  0.7134 -0.8758
  147SAPE   C2416205   1.699   3.924  10.098 -0.4464  0.8564 -0.2179
  147SAPE   H4R16206   1.729   3.898   9.994 -2.0760  0.5535 -0.6516
  147SAPE   H4S16207   1.741   4.021  10.131  0.5232  0.1800  0.6016
  147SAPE   C2516208   1.557   3.920  10.117  0.8577  0.6397 -0.5132
  147SAPE   H5R16209   1.511   3.860  10.196 -0.7141  0.8558 -1.2184
  147SAPE   C2616210   1.470   3.977  10.030  0.7380 -0.2327  0.1289
  147SAPE   H6R16211   1.361   3.979  10.045  1.0147  0.4490  2.4507
  147SAPE   C2716212   1.505   4.041   9.899 -0.9845  0.4696 -0.0053
  147SAPE   H7R16213   1.614   4.057   9.879 -0.5469 -1.2911  0.8079
  147SAPE   H7S16214   1.458   4.140   9.880 -1.1301  0.2054 -1.0642
  147SAPE   C2816215   1.470   3.950   9.783 -0.4952 -0.8403  0.7775
  147SAPE   H8R16216   1.439   3.851   9.820 -2.6628 -0.3019  0.5366
  147SAPE   C2916217   1.465   3.974   9.648  0.1835  0.6630 -0.0204
  147SAPE   H9R16218   1.454   3.895   9.572 -0.3228 -1.1158  1.8372
  147SAPE  C21016219   1.508   4.110   9.596 -0.5044 -0.0968  0.4275
  147SAPE  H10R16220   1.542   4.183   9.672 -1.1487 -0.8562  1.4695
  147SAPE  H10S16221   1.422   4.157   9.543 -0.4350 -0.3399  0.0970
  147SAPE  C21116222   1.625   4.088   9.500 -0.8571  0.0556 -0.1983
  147SAPE  H11R16223   1.719   4.080   9.556 -0.3144 -1.4960 -1.2704
  147SAPE  C21216224   1.621   4.084   9.365 -0.2495  0.0184  0.1149
  147SAPE  H12R16225   1.709   4.069   9.302 -0.4532 -1.6442  0.1821
  147SAPE  C21316226   1.493   4.082   9.277  0.0345  0.1319 -0.0510
  147SAPE  H13R16227   1.407   4.055   9.342 -1.6171 -1.2198 -2.6565
  147SAPE  H13S16228   1.499   3.993   9.211 -0.5780  0.9813 -1.2894
  147SAPE  C21416229   1.458   4.204   9.198 -0.4046  0.7462 -0.1471
  147SAPE  H14R16230   1.520   4.291   9.228 -2.2180  2.2578 -0.6005
  147SAPE  C21516231   1.364   4.218   9.108 -0.0248  0.4298  0.7335
  147SAPE  H15R16232   1.338   4.321   9.082  1.3451  1.2227  2.2929
  147SAPE  C21616233   1.276   4.108   9.062 -0.1540 -0.1169 -0.0539
  147SAPE  H16R16234   1.182   4.105   9.121  0.2254 -0.4680  0.5530
  147SAPE  H16S16235   1.320   4.006   9.073 -1.8947 -0.7508  1.6626
  147SAPE  C21716236   1.230   4.120   8.912  0.0951 -0.2011 -0.0011
  147SAPE  H17R16237   1.156   4.201   8.894  0.3330  0.3305  1.3063
  147SAPE  H17S16238   1.173   4.026   8.902  1.6261 -1.0609 -1.2777
  147SAPE  C21816239   1.346   4.132   8.804 -0.4322 -0.2540  0.2646
  147SAPE  H18R16240   1.434   4.085   8.853  0.1205  0.5983  0.1130
  147SAPE  H18S16241   1.369   4.240   8.792  1.4778 -0.6514 -0.0260
  147SAPE  C21916242   1.317   4.066   8.673 -0.2227 -0.6748  0.0916
  147SAPE  H19R16243   1.231   4.113   8.622 -1.4265 -1.1379  1.6013
  147SAPE  H19S16244   1.289   3.958   8.674 -1.4347 -0.4042 -1.6210
  147SAPE  C22016245   1.444   4.085   8.591  0.6988 -0.2960  0.2192
  147SAPE  H20R16246   1.481   4.188   8.608  1.9993 -0.5888 -0.6719
  147SAPE  H20S16247   1.437   4.065   8.482  1.8669  0.8081 -0.0885
  147SAPE  H20T16248   1.521   4.021   8.638  0.6386 -1.9517 -1.7968
  147SAPE   C3316249   1.710   2.993   9.997  0.2702 -0.4434 -0.0313
  147SAPE   H3X16250   1.602   2.986  10.023  0.2159 -1.5141 -0.5038
  147SAPE   H3Y16251   1.757   2.916  10.062 -2.1963 -0.8837  1.3770
  147SAPE   C3416252   1.726   2.954   9.848  0.5964 -0.0194 -0.6741
  147SAPE   H4X16253   1.833   2.937   9.825  0.8603  0.2601  0.3056
  147SAPE   H4Y16254   1.685   3.037   9.787  0.0468  3.0592  3.4439
  147SAPE   C3516255   1.645   2.825   9.822  0.1414 -0.0842 -0.1837
  147SAPE   H5X16256   1.537   2.840   9.846  0.3784  2.7652 -0.5118
  147SAPE   H5Y16257   1.687   2.753   9.895  0.9950 -0.3671 -0.9433
  147SAPE   C3616258   1.661   2.786   9.681 -0.7385 -0.9291  0.1704
  147SAPE   H6X16259   1.636   2.678   9.681  1.2924 -1.4856 -2.4179
  147SAPE   H6Y16260   1.765   2.784   9.644 -1.6301 -1.4003 -2.5092
  147SAPE   C3716261   1.576   2.856   9.581  0.7797 -0.2357  0.3073
  147SAPE   H7X16262   1.588   2.966   9.572  0.4042 -0.1567  0.7380
  147SAPE   H7Y16263   1.472   2.836   9.615  0.4874 -1.1805 -1.0494
  147SAPE   C3816264   1.592   2.790   9.443  0.2148  0.1099 -0.4982
  147SAPE   H8X16265   1.554   2.686   9.446  2.4534 -0.7277  1.1359
  147SAPE   H8Y16266   1.693   2.773   9.402 -0.0290  1.4032 -1.7205
  147SAPE   C3916267   1.519   2.870   9.323 -0.3366 -0.5297  0.1785
  147SAPE   H9X16268   1.563   2.969   9.303  0.0311 -0.8221 -0.4925
  147SAPE   H9Y16269   1.414   2.886   9.358 -0.4106  1.3054 -0.8005
  147SAPE  C31016270   1.530   2.779   9.196  0.2689 -0.7274  0.3435
  147SAPE  H10X16271   1.500   2.676   9.225 -1.6501 -0.0337  0.9834
  147SAPE  H10Y16272   1.635   2.791   9.164  1.3217 -1.2441  3.2582
  147SAPE  C31116273   1.433   2.822   9.085 -0.1148  0.0495 -0.4115
  147SAPE  H11X16274   1.445   2.923   9.040  1.9423 -0.5414 -1.2990
  147SAPE  H11Y16275   1.335   2.825   9.137  0.4930  0.4802  0.7773
  147SAPE  C31216276   1.433   2.713   8.980  0.2740 -0.5749 -0.0475
  147SAPE  H12X16277   1.421   2.612   9.025  1.6161 -1.0522 -0.6950
  147SAPE  H12Y16278   1.530   2.717   8.926  1.1186  0.9381  1.4603
  147SAPE  C31316279   1.314   2.738   8.876 -0.6171  0.2268  0.2851
  147SAPE  H13X16280   1.308   2.843   8.841 -0.3095  0.3071  0.4765
  147SAPE  H13Y16281   1.217   2.726   8.929 -2.1516  0.9507 -2.1928
  147SAPE  C31416282   1.327   2.637   8.753 -0.8585 -0.8555 -0.3574
  147SAPE  H14X16283   1.405   2.674   8.683 -0.4949  0.3484  0.6448
  147SAPE  H14Y16284   1.229   2.649   8.702 -1.0522 -1.7475 -0.2152
  147SAPE  C31516285   1.342   2.493   8.789 -0.9411 -0.3156 -0.3968
  147SAPE  H15X16286   1.257   2.469   8.855 -0.3592 -0.4053  0.3287
  147SAPE  H15Y16287   1.434   2.475   8.849 -1.8166  0.9948  1.4243
  147SAPE  C31616288   1.328   2.389   8.671  0.2864  0.2932  0.4959
  147SAPE  H16X16289   1.240   2.421   8.611  0.1621 -1.0056 -0.0406
  147SAPE  H16Y16290   1.304   2.290   8.715 -2.3651  0.2539 -0.8459
  147SAPE  C31716291   1.451   2.381   8.584  0.0287  0.1311  0.2366
  147SAPE  H17X16292   1.533   2.340   8.647 -0.2682 -0.8364  0.0196
  147SAPE  H17Y16293   1.475   2.486   8.557  0.0211  0.1624  0.3505
  147SAPE  C31816294   1.444   2.304   8.452 -0.3366 -0.3130 -0.3211
  147SAPE  H18X16295   1.386   2.360   8.374  0.1186  0.2465 -0.2658
  147SAPE  H18Y16296   1.391   2.208   8.471  0.3857 -0.4338  1.2269
  147SAPE  H18Z16297   1.543   2.277   8.411  0.9526  1.1519  1.6346
  148SAPE     N16298   4.764   6.143  10.855 -0.1807  0.2582  0.3586
  148SAPE   HN116299   4.832   6.206  10.901 -0.3421  0.5963  0.1338
  148SAPE   HN216300   4.673   6.192  10.851 -1.9888 -2.8523  0.0509
  148SAPE   HN316301   4.757   6.064  10.922 -1.4752 -0.0089 -0.0672
  148SAPE   C1216302   4.807   6.103  10.718  0.9952 -0.2216 -0.1879
  148SAPE  H12A16303   4.734   6.033  10.672  2.0127 -0.5068 -1.4339
  148SAPE  H12B16304   4.889   6.029  10.726  0.6387 -0.4550  1.5750
  148SAPE   C1116305   4.836   6.216  10.627 -0.0989 -0.6564 -0.2145
  148SAPE  H11A16306   4.875   6.169  10.534  0.2569 -0.5301 -0.1328
  148SAPE  H11B16307   4.921   6.277  10.665 -0.0865 -0.3760 -0.6875
  148SAPE     P16308   4.615   6.283  10.498 -0.3563  0.3057  0.7004
  148SAPE   O1316309   4.598   6.146  10.456 -0.1926 -0.0850 -0.2821
  148SAPE   O1416310   4.495   6.358  10.538  0.0551 -0.3728 -0.3054
  148SAPE   O1216311   4.727   6.296  10.609 -0.7439  0.3130  0.1616
  148SAPE   O1116312   4.687   6.357  10.375  0.4472  0.2117  0.5263
  148SAPE    C116313   4.705   6.498  10.355 -0.9221 -0.4134 -0.4596
  148SAPE    HA16314   4.613   6.542  10.311 -1.9741 -1.2423  0.8086
  148SAPE    HB16315   4.724   6.546  10.453  1.4795 -0.8403 -0.6497
  148SAPE    C216316   4.830   6.519  10.261  0.2625  0.4797 -0.4544
  148SAPE    HS16317   4.876   6.620  10.257  3.1948 -0.6975  0.7027
  148SAPE   O2116318   4.792   6.479  10.126 -0.0036  0.2413  0.2839
  148SAPE   C2116319   4.722   6.565  10.059 -0.0417 -0.0618  0.7679
  148SAPE   O2216320   4.696   6.678  10.098  0.6531 -0.3210 -0.2470
  148SAPE   C2216321   4.673   6.495   9.928  0.1207  0.2195  0.2941
  148SAPE   H2R16322   4.764   6.446   9.888  0.4023  1.3300 -0.4566
  148SAPE   H2S16323   4.594   6.429   9.971  0.4663  0.3906  1.2152
  148SAPE    C316324   4.951   6.435  10.296  0.5186 -0.6613  0.0968
  148SAPE    HX16325   4.930   6.327  10.310  0.4487 -1.1625 -3.0864
  148SAPE    HY16326   4.982   6.467  10.397 -2.3149  1.5293  0.3716
  148SAPE   O3116327   5.062   6.448  10.202  0.5852 -0.1049 -0.0027
  148SAPE   C3116328   5.089   6.336  10.136  0.7676  0.8847 -0.4249
  148SAPE   O3216329   5.029   6.230  10.139 -0.6469  0.3239 -0.1931
  148SAPE   C3216330   5.210   6.369  10.053 -0.2131 -0.7761  0.0128
  148SAPE   H2X16331   5.305   6.348  10.107  0.6640  1.7929 -0.4271
  148SAPE   H2Y16332   5.221   6.478  10.035  5.1783 -0.9463  0.5376
  148SAPE   C2316333   4.618   6.590   9.819  0.3348 -0.2815  0.2805
  148SAPE   H3R16334   4.556   6.668   9.869  0.0301  1.0136 -1.9754
  148SAPE   H3S16335   4.562   6.520   9.753  0.8745 -0.3441 -0.1117
  148SAPE   C2416336   4.733   6.648   9.730 -0.2168 -0.4024 -0.1591
  148SAPE   H4R16337   4.776   6.569   9.665  0.9415  0.9866 -1.1279
  148SAPE   H4S16338   4.816   6.689   9.791  0.0063 -2.1699  0.7882
  148SAPE   C2516339   4.655   6.747   9.647 -0.5074 -0.6348 -0.9659
  148SAPE   H5R16340   4.627   6.825   9.720 -1.0038  0.4670 -2.2913
  148SAPE   C2616341   4.631   6.760   9.517 -0.2000  0.0805  0.1562
  148SAPE   H6R16342   4.565   6.831   9.464  0.0428  0.4780  0.3772
  148SAPE   C2716343   4.695   6.671   9.417  0.9809  0.4771  0.4591
  148SAPE   H7R16344   4.709   6.566   9.452  0.1239 -0.2792 -1.3465
  148SAPE   H7S16345   4.795   6.711   9.389  0.7707  0.0870 -0.9321
  148SAPE   C2816346   4.636   6.664   9.280  0.3290  0.1863  0.1650
  148SAPE   H8R16347   4.647   6.759   9.225  0.3896  0.1875  0.1790
  148SAPE   C2916348   4.575   6.557   9.222 -0.3192  0.0814  0.2105
  148SAPE   H9R16349   4.540   6.568   9.118 -1.9698  0.7338  0.7890
  148SAPE  C21016350   4.543   6.429   9.284 -0.2584 -0.5493  0.2337
  148SAPE  H10R16351   4.462   6.390   9.220 -1.4979  2.0837  0.0718
  148SAPE  H10S16352   4.486   6.440   9.379 -1.0269 -1.7760 -0.0701
  148SAPE  C21116353   4.660   6.335   9.303  0.1459 -0.1893  0.0474
  148SAPE  H11R16354   4.725   6.356   9.389 -2.6802 -0.7821  2.5271
  148SAPE  C21216355   4.684   6.237   9.212  0.4350 -0.5695  0.8431
  148SAPE  H12R16356   4.768   6.168   9.229  1.2890  0.3128  0.2823
  148SAPE  C21316357   4.593   6.215   9.087  0.2655  1.0044  0.1160
  148SAPE  H13R16358   4.570   6.314   9.043 -4.0790 -0.3941 -1.2065
  148SAPE  H13S16359   4.493   6.173   9.113 -0.4102  2.0034 -0.7830
  148SAPE  C21416360   4.631   6.145   8.962 -0.0846 -0.6389  0.4450
  148SAPE  H14R16361   4.648   6.213   8.877  0.2208  0.8861  1.6932
  148SAPE  C21516362   4.642   6.013   8.946 -0.2635  0.6468 -0.0788
  148SAPE  H15R16363   4.658   5.972   8.845 -2.8316  0.6189 -0.5384
  148SAPE  C21616364   4.611   5.916   9.050  0.2639 -1.1672 -0.8976
  148SAPE  H16R16365   4.509   5.876   9.028 -0.1508 -0.4767 -0.2860
  148SAPE  H16S16366   4.612   5.968   9.148 -0.8667 -2.1353 -0.3507
  148SAPE  C21716367   4.711   5.796   9.066 -0.0085 -0.1175 -0.1061
  148SAPE  H17R16368   4.674   5.726   9.144  1.6445  0.1860  0.9812
  148SAPE  H17S16369   4.810   5.832   9.100  0.1628  0.2318 -0.9504
  148SAPE  C21816370   4.717   5.710   8.939  0.0221  0.4942  0.3543
  148SAPE  H18R16371   4.764   5.614   8.969  0.1554  0.9660  1.7060
  148SAPE  H18S16372   4.789   5.749   8.863  3.2104 -2.8019  1.4207
  148SAPE  C21916373   4.582   5.672   8.879 -0.0483  0.2312  0.1257
  148SAPE  H19R16374   4.527   5.762   8.846  2.8671  2.7051  1.5032
  148SAPE  H19S16375   4.512   5.627   8.953 -1.5028  1.7474 -0.2667
  148SAPE  C22016376   4.589   5.573   8.768 -0.3622  0.0199  0.4759
  148SAPE  H20R16377   4.490   5.529   8.742 -0.4479  0.4618  0.0429
  148SAPE  H20S16378   4.661   5.491   8.786  0.9033  1.5824  3.0453
  148SAPE  H20T16379   4.630   5.622   8.677 -0.5889 -1.9550 -0.7629
  148SAPE   C3316380   5.195   6.312   9.909  0.6940 -0.1380 -0.2237
  148SAPE   H3X16381   5.173   6.203   9.917  2.7245 -0.4995  1.7990
  148SAPE   H3Y16382   5.293   6.321   9.856  0.1706  0.9335 -1.0313
  148SAPE   C3416383   5.098   6.394   9.821 -0.1424  0.3402  0.1257
  148SAPE   H4X16384   5.018   6.457   9.865 -0.3768  2.9199 -3.5604
  148SAPE   H4Y16385   5.056   6.314   9.755  1.1463  0.3817 -0.7684
  148SAPE   C3516386   5.174   6.489   9.729 -0.2124  0.0395 -0.1941
  148SAPE   H5X16387   5.274   6.452   9.698 -0.0861  1.2131 -1.2600
  148SAPE   H5Y16388   5.197   6.573   9.798  1.3234 -0.2206 -0.3633
  148SAPE   C3616389   5.107   6.536   9.601  0.7603 -0.1702  0.1057
  148SAPE   H6X16390   5.172   6.619   9.567  1.3281 -1.1633 -1.3768
  148SAPE   H6Y16391   5.001   6.569   9.609  0.0427 -2.4938  0.9014
  148SAPE   C3716392   5.111   6.439   9.484  0.0321 -0.3124 -0.4313
  148SAPE   H7X16393   5.047   6.351   9.507  0.2589 -0.5262 -0.6247
  148SAPE   H7Y16394   5.215   6.401   9.472 -0.2782 -1.7414  1.0100
  148SAPE   C3816395   5.064   6.505   9.347  0.3680  1.0125 -0.8323
  148SAPE   H8X16396   5.120   6.596   9.317  0.1020  1.9086  1.2312
  148SAPE   H8Y16397   4.956   6.525   9.358  0.1845 -0.7825  1.6633
  148SAPE   C3916398   5.078   6.418   9.224  0.4947 -0.6094 -0.0926
  148SAPE   H9X16399   5.043   6.325   9.274  2.1636 -2.3141 -1.9048
  148SAPE   H9Y16400   5.182   6.389   9.196 -0.1186 -1.5647 -1.5304
  148SAPE  C31016401   4.986   6.446   9.109 -0.1195  0.0168 -0.0937
  148SAPE  H10X16402   4.885   6.407   9.133 -0.8058  2.2222  0.8632
  148SAPE  H10Y16403   5.023   6.381   9.027  2.2501  0.3837  0.6105
  148SAPE  C31116404   4.965   6.593   9.069 -0.6457  0.3483  0.8738
  148SAPE  H11X16405   5.058   6.642   9.034 -0.0516 -0.1228  1.7523
  148SAPE  H11Y16406   4.915   6.653   9.149  1.2253  1.2762  1.4035
  148SAPE  C31216407   4.856   6.596   8.952 -0.0856  0.5643 -0.9863
  148SAPE  H12X16408   4.808   6.696   8.944 -0.3733  0.4634 -0.5576
  148SAPE  H12Y16409   4.776   6.531   8.993  1.3747 -1.9824 -1.9875
  148SAPE  C31316410   4.901   6.565   8.807  0.4621  0.4029  0.2111
  148SAPE  H13X16411   5.007   6.597   8.802  0.5908 -0.0741 -0.3484
  148SAPE  H13Y16412   4.858   6.627   8.726  0.9803  0.0128 -0.3766
  148SAPE  C31416413   4.871   6.414   8.768 -0.1433  0.0871  0.5604
  148SAPE  H14X16414   4.761   6.396   8.770 -0.7053  2.1684 -2.7802
  148SAPE  H14Y16415   4.913   6.346   8.844 -0.2491 -0.1631  0.3976
  148SAPE  C31516416   4.924   6.383   8.624 -0.4430 -0.1147  0.2507
  148SAPE  H15X16417   4.887   6.460   8.553 -2.0320 -0.1193  1.0060
  148SAPE  H15Y16418   4.878   6.287   8.592 -1.3390  0.6153 -0.7325
  148SAPE  C31616419   5.075   6.367   8.601  0.1729 -0.2072  0.3970
  148SAPE  H16X16420   5.098   6.283   8.670 -0.4466 -0.3148  0.4717
  148SAPE  H16Y16421   5.126   6.464   8.616  0.6011 -0.1515 -1.2104
  148SAPE  C31716422   5.133   6.323   8.465 -0.2357  0.8596  0.1791
  148SAPE  H17X16423   5.072   6.238   8.426  1.0026  0.7720 -1.7327
  148SAPE  H17Y16424   5.237   6.291   8.484 -0.4130 -1.3372 -1.9928
  148SAPE  C31816425   5.143   6.427   8.349  0.5992 -0.2823 -0.0278
  148SAPE  H18X16426   5.198   6.374   8.268 -0.3377 -1.3448 -0.0000
  148SAPE  H18Y16427   5.193   6.521   8.380  1.4093 -0.7399  0.0709
  148SAPE  H18Z16428   5.046   6.470   8.315  1.1992  0.5174 -0.7821
  149SAPE     N16429   1.030   1.334  11.161  0.3593  0.7148 -0.3809
  149SAPE   HN116430   0.938   1.327  11.115 -0.1380 -1.0118  0.7504
  149SAPE   HN216431   1.058   1.237  11.187 -1.9089  0.6289  2.3044
  149SAPE   HN316432   1.029   1.378  11.255  0.0937  1.3159 -0.6651
  149SAPE   C1216433   1.133   1.385  11.073  0.0380 -0.2480  0.0971
  149SAPE  H12A16434   1.228   1.329  11.083  1.0441  1.6651  2.0044
  149SAPE  H12B16435   1.151   1.486  11.117  3.1841  0.0844 -1.6581
  149SAPE   C1116436   1.076   1.402  10.926 -0.0123  0.4612  0.0058
  149SAPE  H11A16437   1.084   1.304  10.875  1.8483 -0.0665  1.2184
  149SAPE  H11B16438   1.152   1.462  10.871 -0.3859  2.0964  1.1869
  149SAPE     P16439   0.917   1.604  10.923  0.0224 -0.2955 -0.1218
  149SAPE   O1316440   0.803   1.648  11.009  0.0107 -0.3715  0.0030
  149SAPE   O1416441   1.048   1.665  10.953 -0.2896  0.0090 -0.3331
  149SAPE   O1216442   0.939   1.450  10.927 -0.1797 -0.3515  0.2098
  149SAPE   O1116443   0.896   1.635  10.764  0.3275  0.4603  0.3114
  149SAPE    C116444   0.780   1.592  10.687 -0.2606  0.3522  0.4209
  149SAPE    HA16445   0.782   1.483  10.669  2.3911 -0.1123  2.7391
  149SAPE    HB16446   0.688   1.611  10.745 -0.2519  0.2015  0.4833
  149SAPE    C216447   0.748   1.680  10.560 -0.6232 -0.0094  0.5161
  149SAPE    HS16448   0.653   1.643  10.514 -0.6104  1.2323 -0.5777
  149SAPE   O2116449   0.854   1.680  10.458  0.4016  0.2515 -0.1254
  149SAPE   C2116450   0.875   1.567  10.395 -0.4796  0.3744 -0.1241
  149SAPE   O2216451   0.810   1.465  10.413  0.0227  0.1637  0.0532
  149SAPE   C2216452   0.997   1.599  10.310  0.2310 -0.9039  0.3063
  149SAPE   H2R16453   0.983   1.694  10.254 -1.3251 -1.7067 -0.7266
  149SAPE   H2S16454   1.084   1.615  10.378 -1.1852  1.5486  1.7101
  149SAPE    C316455   0.711   1.825  10.602 -0.0163 -0.1558 -0.3381
  149SAPE    HX16456   0.792   1.869  10.665  0.8561 -3.3030  0.9168
  149SAPE    HY16457   0.628   1.815  10.675 -0.9291  3.1659 -0.7526
  149SAPE   O3116458   0.667   1.908  10.491  0.4501  0.2938 -0.9671
  149SAPE   C3116459   0.763   1.976  10.436 -0.2232 -0.1193 -0.1645
  149SAPE   O3216460   0.876   1.986  10.487  0.4515  0.1188  0.7540
  149SAPE   C3216461   0.712   2.039  10.305 -0.4204  0.9106 -0.3498
  149SAPE   H2X16462   0.779   2.123  10.274  1.2006 -0.1609  0.1091
  149SAPE   H2Y16463   0.615   2.089  10.324 -2.4053 -2.8547  0.1784
  149SAPE   C2316464   1.015   1.513  10.186 -0.0274  0.6362  0.2259
  149SAPE   H3R16465   1.097   1.559  10.127  0.6989  0.3941  1.0161
  149SAPE   H3S16466   0.923   1.521  10.125 -0.7123 -2.2391  0.7024
  149SAPE   C2416467   1.042   1.359  10.198 -0.7865 -0.0607 -0.6552
  149SAPE   H4R16468   1.089   1.334  10.101 -0.2413 -0.5566 -0.2691
  149SAPE   H4S16469   0.945   1.306  10.190 -0.0947 -1.8907  1.7857
  149SAPE   C2516470   1.141   1.317  10.312  0.0841 -0.8575 -0.0007
  149SAPE   H5R16471   1.099   1.324  10.414 -0.0576 -2.2405  0.0624
  149SAPE   C2616472   1.276   1.277  10.304 -0.3489 -0.5908  0.8844
  149SAPE   H6R16473   1.325   1.246  10.398  0.0015  0.5380  1.0998
  149SAPE   C2716474   1.360   1.264  10.178 -0.3018 -0.2351 -1.0873
  149SAPE   H7R16475   1.459   1.304  10.208 -0.0755 -0.6814 -1.2415
  149SAPE   H7S16476   1.329   1.337  10.099 -0.6745  0.9313  0.0963
  149SAPE   C2816477   1.361   1.114  10.146 -0.2858 -0.3171  0.5950
  149SAPE   H8R16478   1.390   1.049  10.229  2.4222 -1.0778 -0.8187
  149SAPE   C2916479   1.337   1.063  10.028  0.4198  0.3510  0.0896
  149SAPE   H9R16480   1.354   0.955  10.016 -1.2702  0.1436 -0.7723
  149SAPE  C21016481   1.288   1.133   9.903 -0.9354  0.4545  0.0028
  149SAPE  H10R16482   1.352   1.094   9.822 -1.7618 -0.5789 -0.1726
  149SAPE  H10S16483   1.324   1.238   9.911  2.8117 -0.6384 -0.8986
  149SAPE  C21116484   1.140   1.125   9.886  0.0226  0.8389  0.4895
  149SAPE  H11R16485   1.083   1.178   9.964 -0.2129  1.4146 -0.0636
  149SAPE  C21216486   1.075   1.052   9.792 -0.1651  0.4813 -0.3523
  149SAPE  H12R16487   0.965   1.049   9.796 -0.1464  0.4861  0.3940
  149SAPE  C21316488   1.141   0.961   9.689 -0.0721  0.1372  0.0258
  149SAPE  H13R16489   1.251   0.966   9.702 -0.3944  0.7687  3.2100
  149SAPE  H13S16490   1.133   1.012   9.591  0.5344 -1.5671 -0.9572
  149SAPE  C21416491   1.092   0.813   9.684  0.4580 -0.5669  0.6892
  149SAPE  H14R16492   1.002   0.805   9.621  1.7544 -2.0096 -1.0754
  149SAPE  C21516493   1.151   0.698   9.723  0.4068 -0.4497 -0.4186
  149SAPE  H15R16494   1.113   0.599   9.696  1.1149 -0.6841 -0.5999
  149SAPE  C21616495   1.279   0.691   9.794 -0.3066 -0.0073 -0.5458
  149SAPE  H16R16496   1.260   0.685   9.903 -1.4673 -2.1661 -0.8048
  149SAPE  H16S16497   1.338   0.783   9.778 -1.5382  0.7687 -0.7669
  149SAPE  C21716498   1.363   0.573   9.744  0.1659 -0.1378 -0.0443
  149SAPE  H17R16499   1.464   0.572   9.790  0.3487  0.0243 -0.4374
  149SAPE  H17S16500   1.368   0.578   9.633  0.1037  1.7633  0.0057
  149SAPE  C21816501   1.300   0.437   9.778  0.6590 -0.2901 -0.2859
  149SAPE  H18R16502   1.337   0.352   9.717  0.9149 -2.1198  2.2472
  149SAPE  H18S16503   1.191   0.436   9.760  0.4775  1.4415  0.5734
  149SAPE  C21916504   1.306   0.401   9.924 -0.5238 -0.2328  1.4661
  149SAPE  H19R16505   1.274   0.492   9.981  1.5215  0.6264  1.3119
  149SAPE  H19S16506   1.413   0.391   9.949  0.7676  1.1760 -2.6747
  149SAPE  C22016507   1.236   0.271   9.977  0.4674  0.2517 -1.0367
  149SAPE  H20R16508   1.131   0.289  10.009  0.9578  0.1603  0.6774
  149SAPE  H20S16509   1.287   0.228  10.065  0.0072  0.5420 -0.6201
  149SAPE  H20T16510   1.234   0.188   9.903 -1.3065  1.1757 -2.1122
  149SAPE   C3316511   0.692   1.946  10.188 -0.0917  0.2731  0.3417
  149SAPE   H3X16512   0.625   2.003  10.120  0.1170 -0.9557 -0.9543
  149SAPE   H3Y16513   0.638   1.852  10.212  1.5083 -0.8552 -0.2715
  149SAPE   C3416514   0.821   1.914  10.105  0.2540  0.2545  0.0543
  149SAPE   H4X16515   0.890   1.853  10.167  1.2620  1.5721  0.2603
  149SAPE   H4Y16516   0.877   2.006  10.078  0.0331  0.3518 -0.0730
  149SAPE   C3516517   0.769   1.843   9.973 -0.2136 -0.1018 -0.0022
  149SAPE   H5X16518   0.684   1.894   9.921  0.2860  0.7603  0.0027
  149SAPE   H5Y16519   0.725   1.747  10.007 -0.0351 -0.1233  0.1672
  149SAPE   C3616520   0.883   1.814   9.882 -0.2817 -0.3472 -0.9359
  149SAPE   H6X16521   0.825   1.750   9.812 -1.5871 -1.0343  0.6879
  149SAPE   H6Y16522   0.961   1.755   9.934 -1.1151 -0.3278  0.3751
  149SAPE   C3716523   0.946   1.926   9.813 -0.6525 -0.1747  0.0268
  149SAPE   H7X16524   1.033   1.877   9.764 -1.2901  0.4000 -1.7522
  149SAPE   H7Y16525   0.981   2.010   9.877  0.5505 -1.0080  0.5001
  149SAPE   C3816526   0.865   1.974   9.690 -0.7785  0.8685 -0.2773
  149SAPE   H8X16527   0.858   2.085   9.693  0.8754  1.0392 -1.6355
  149SAPE   H8Y16528   0.766   1.924   9.682 -0.0279 -0.4688 -1.7455
  149SAPE   C3916529   0.938   1.936   9.555 -0.4205  0.0497 -0.2446
  149SAPE   H9X16530   0.966   1.829   9.567  1.2304  0.5333  0.4819
  149SAPE   H9Y16531   1.026   1.999   9.533 -0.1594  0.2549  1.2746
  149SAPE  C31016532   0.857   1.948   9.421 -1.2724  0.1059  0.7778
  149SAPE  H10X16533   0.799   2.043   9.411 -0.2456  0.8562  1.7232
  149SAPE  H10Y16534   0.773   1.877   9.430 -1.0143 -0.1682  1.0390
  149SAPE  C31116535   0.940   1.901   9.305 -0.1065  0.0169 -0.0743
  149SAPE  H11X16536   0.982   1.801   9.329  2.0009  0.6551 -0.8390
  149SAPE  H11Y16537   1.022   1.972   9.281  0.4259 -0.6536 -0.2550
  149SAPE  C31216538   0.865   1.886   9.165 -0.1644  0.0358  0.0107
  149SAPE  H12X16539   0.783   1.813   9.185 -0.2141 -0.3867 -1.6340
  149SAPE  H12Y16540   0.935   1.843   9.091 -2.0297 -1.9365 -0.7379
  149SAPE  C31316541   0.798   2.011   9.116 -0.2200  0.0725 -0.0751
  149SAPE  H13X16542   0.870   2.095   9.118 -0.4715  0.2715  0.8008
  149SAPE  H13Y16543   0.721   2.030   9.193 -0.3596 -0.9742  0.0542
  149SAPE  C31416544   0.741   1.979   8.980 -0.0601 -0.8115 -0.0328
  149SAPE  H14X16545   0.670   1.894   8.988  2.2870 -3.1331 -2.0473
  149SAPE  H14Y16546   0.822   1.931   8.921  0.5777 -0.2175  0.3412
  149SAPE  C31516547   0.687   2.100   8.897  0.3223 -0.2581 -0.3312
  149SAPE  H15X16548   0.610   2.149   8.961 -0.9267 -3.7843  1.0735
  149SAPE  H15Y16549   0.629   2.062   8.810 -2.1090  0.5077  0.8770
  149SAPE  C31616550   0.804   2.192   8.855 -0.1801 -0.1079  0.1916
  149SAPE  H16X16551   0.879   2.130   8.802 -3.1492 -1.7831 -2.3471
  149SAPE  H16Y16552   0.854   2.230   8.947 -0.2579 -0.2898  0.3103
  149SAPE  C31716553   0.763   2.299   8.763 -0.1070 -0.1726  0.2542
  149SAPE  H17X16554   0.715   2.381   8.820 -1.0175 -0.1916 -0.4640
  149SAPE  H17Y16555   0.690   2.256   8.691  0.5915 -2.0295  0.6185
  149SAPE  C31816556   0.885   2.350   8.691 -0.3093 -0.3327  0.5208
  149SAPE  H18X16557   0.931   2.276   8.623  0.9925  0.3693  0.6109
  149SAPE  H18Y16558   0.963   2.373   8.766 -0.4617  0.4032  0.4622
  149SAPE  H18Z16559   0.864   2.445   8.637  0.1185 -0.7010 -0.3143
  150SAPE     N16560   5.043   2.497  10.750  0.6383  0.1697 -0.0980
  150SAPE   HN116561   4.977   2.544  10.816  3.2474  0.4036  2.5573
  150SAPE   HN216562   4.994   2.414  10.710 -3.3319  0.4746  3.3351
  150SAPE   HN316563   5.105   2.461  10.826 -0.5306  0.7873  1.2043
  150SAPE   C1216564   5.099   2.574  10.639  0.1911  0.5833 -0.1684
  150SAPE  H12A16565   5.170   2.518  10.575 -1.4788  0.8042 -2.3281
  150SAPE  H12B16566   5.145   2.664  10.685 -1.6839  1.1362  0.6908
  150SAPE   C1116567   4.976   2.610  10.546 -0.3708  0.4889  0.4403
  150SAPE  H11A16568   5.013   2.692  10.480  0.6298 -0.2464  0.0614
  150SAPE  H11B16569   4.891   2.647  10.607  0.7421  0.7686  1.8500
  150SAPE     P16570   4.828   2.400  10.501 -0.0237 -0.2531  0.0840
  150SAPE   O1316571   4.871   2.315  10.612 -0.0242  0.6594 -0.1367
  150SAPE   O1416572   4.697   2.468  10.512  0.3643  0.5004 -0.7272
  150SAPE   O1216573   4.943   2.501  10.461  0.1978  0.3465  0.6098
  150SAPE   O1116574   4.818   2.301  10.383  0.4998 -0.1599 -0.4183
  150SAPE    C116575   4.798   2.344  10.247 -0.4016 -0.3536 -0.3875
  150SAPE    HA16576   4.767   2.450  10.240  1.0079  0.1538  0.6693
  150SAPE    HB16577   4.893   2.334  10.190 -0.1574  1.6778 -0.4120
  150SAPE    C216578   4.697   2.257  10.166  0.9615 -0.2650  0.9278
  150SAPE    HS16579   4.597   2.281  10.209  0.4909  0.2082 -0.3822
  150SAPE   O2116580   4.741   2.122  10.190 -0.0428  0.0278  0.0115
  150SAPE   C2116581   4.644   2.030  10.162 -0.0513  0.1802 -0.0689
  150SAPE   O2216582   4.533   2.052  10.123 -0.4073  0.5234 -0.0775
  150SAPE   C2216583   4.691   1.890  10.180 -0.4786 -0.1827  1.0920
  150SAPE   H2R16584   4.784   1.881  10.240  1.2937 -0.2711 -1.5047
  150SAPE   H2S16585   4.608   1.829  10.222 -1.8954 -1.2023 -2.8142
  150SAPE    C316586   4.688   2.288  10.008 -0.3413 -0.3295 -0.1913
  150SAPE    HX16587   4.698   2.398   9.993  1.4818 -0.6266 -1.3922
  150SAPE    HY16588   4.585   2.266   9.975 -0.8437  1.8951 -0.2580
  150SAPE   O3116589   4.789   2.217   9.937 -0.1784 -0.1777  0.3055
  150SAPE   C3116590   4.894   2.290   9.900  0.4131  0.3688 -0.0968
  150SAPE   O3216591   4.910   2.411   9.924 -0.2450 -0.1964 -0.1012
  150SAPE   C3216592   5.000   2.193   9.843 -0.7455 -0.5167  0.2465
  150SAPE   H2X16593   4.955   2.133   9.761 -2.1809 -0.0413  0.6560
  150SAPE   H2Y16594   5.033   2.126   9.925  0.3708 -0.9546 -0.5395
  150SAPE   C2316595   4.722   1.807  10.051  0.7838 -0.3494  0.3041
  150SAPE   H3R16596   4.798   1.733  10.083 -0.5925 -0.5730  3.3190
  150SAPE   H3S16597   4.764   1.873   9.972  0.7140  0.7179  1.1316
  150SAPE   C2416598   4.601   1.736   9.993 -0.1899 -0.9371 -0.5287
  150SAPE   H4R16599   4.620   1.694   9.892 -1.9691 -1.2601 -0.7703
  150SAPE   H4S16600   4.521   1.812   9.981  0.0300 -0.1992  2.1280
  150SAPE   C2516601   4.549   1.622  10.074 -0.3715  0.7128 -0.0341
  150SAPE   H5R16602   4.599   1.611  10.171 -0.5263 -0.5362 -0.0884
  150SAPE   C2616603   4.455   1.536  10.046 -0.4589 -0.3035  0.4691
  150SAPE   H6R16604   4.440   1.454  10.117 -1.1172 -1.8249 -1.3366
  150SAPE   C2716605   4.375   1.541   9.922 -0.0654  0.9726  0.3410
  150SAPE   H7R16606   4.333   1.439   9.912 -0.6593  1.1593  0.8485
  150SAPE   H7S16607   4.426   1.553   9.824 -0.2129  1.4791  0.3231
  150SAPE   C2816608   4.257   1.629   9.921  0.8870  0.1398  0.7600
  150SAPE   H8R16609   4.184   1.615  10.003  2.4080 -0.9825  1.9779
  150SAPE   C2916610   4.236   1.728   9.830 -0.1830 -0.0413 -0.0583
  150SAPE   H9R16611   4.144   1.788   9.826 -0.2290  0.2070  2.8563
  150SAPE  C21016612   4.324   1.781   9.718 -0.2571  0.4724 -0.1287
  150SAPE  H10R16613   4.269   1.778   9.621  0.4395 -1.6926 -0.4989
  150SAPE  H10S16614   4.394   1.697   9.698 -1.8948 -0.9088 -0.2368
  150SAPE  C21116615   4.396   1.913   9.740  0.0172  0.5250 -0.5162
  150SAPE  H11R16616   4.339   1.980   9.806 -2.5542 -1.8817 -0.0657
  150SAPE  C21216617   4.519   1.933   9.691 -0.2352  0.7690  0.3254
  150SAPE  H12R16618   4.560   2.029   9.725  1.0767  0.0194  0.9100
  150SAPE  C21316619   4.615   1.846   9.606  0.1066  0.0217 -0.7972
  150SAPE  H13R16620   4.589   1.875   9.502  1.3113 -0.1273 -1.1500
  150SAPE  H13S16621   4.593   1.737   9.615  1.0351 -0.0944  0.2669
  150SAPE  C21416622   4.759   1.874   9.649  0.3179 -0.6128  0.0598
  150SAPE  H14R16623   4.783   1.860   9.755 -1.6965  0.1205  0.6699
  150SAPE  C21516624   4.854   1.897   9.566 -0.2113 -0.7852  0.4231
  150SAPE  H15R16625   4.956   1.909   9.606  0.2760 -2.6763 -0.1177
  150SAPE  C21616626   4.846   1.912   9.409 -0.3187 -0.0174 -0.6362
  150SAPE  H16R16627   4.905   1.999   9.375 -2.8199  1.8478 -0.5149
  150SAPE  H16S16628   4.743   1.940   9.377  0.6116  1.3564 -2.6339
  150SAPE  C21716629   4.877   1.782   9.333 -0.0748  0.1702 -0.0844
  150SAPE  H17R16630   4.804   1.704   9.362  1.4215 -1.1249  0.3261
  150SAPE  H17S16631   4.978   1.742   9.355  0.0087  0.1613 -0.4788
  150SAPE  C21816632   4.874   1.803   9.182 -0.3000 -0.3011  0.2595
  150SAPE  H18R16633   4.956   1.873   9.159  0.3734 -1.5990 -1.4969
  150SAPE  H18S16634   4.779   1.851   9.150 -1.4102 -2.1744  0.5965
  150SAPE  C21916635   4.868   1.677   9.097 -0.5700  0.1195 -0.0440
  150SAPE  H19R16636   4.771   1.625   9.114  0.1231 -1.1696  0.0781
  150SAPE  H19S16637   4.946   1.609   9.138 -0.4205  0.1391 -0.2984
  150SAPE  C22016638   4.881   1.697   8.952  0.1067 -0.0041 -0.2751
  150SAPE  H20R16639   4.809   1.779   8.928  1.3094  1.4086  0.7511
  150SAPE  H20S16640   4.850   1.604   8.900  1.3801  0.3163 -1.6631
  150SAPE  H20T16641   4.981   1.730   8.917  0.4601 -0.7159  0.0420
  150SAPE   C3316642   5.123   2.263   9.784 -0.5329 -0.5914 -0.1908
  150SAPE   H3X16643   5.176   2.327   9.858  1.5341 -3.2583  0.8091
  150SAPE   H3Y16644   5.097   2.333   9.702  2.9934  1.8093  0.5386
  150SAPE   C3416645   5.224   2.166   9.710 -0.0310 -0.8100  0.3747
  150SAPE   H4X16646   5.275   2.103   9.787 -1.1347 -0.1904  1.6583
  150SAPE   H4Y16647   5.304   2.233   9.671  0.7890 -1.1535  1.4182
  150SAPE   C3516648   5.176   2.079   9.593 -0.8712  0.2647 -0.4528
  150SAPE   H5X16649   5.107   2.124   9.519  2.2789  2.2095 -2.4195
  150SAPE   H5Y16650   5.132   1.989   9.643 -1.2353  1.7042  1.9951
  150SAPE   C3616651   5.292   2.039   9.506 -0.0679  0.9107 -0.0853
  150SAPE   H6X16652   5.355   1.963   9.557  3.8976  0.5694 -4.6641
  150SAPE   H6Y16653   5.362   2.121   9.478  0.9683  1.0346  2.6207
  150SAPE   C3716654   5.238   1.970   9.375  0.2549 -0.8377 -0.9327
  150SAPE   H7X16655   5.192   2.044   9.306  0.0764  2.5137  2.4152
  150SAPE   H7Y16656   5.153   1.901   9.397 -0.1623 -0.3949 -1.1295
  150SAPE   C3816657   5.341   1.887   9.307  0.6584 -0.6452 -1.1430
  150SAPE   H8X16658   5.379   1.797   9.360 -1.1063 -0.7400  0.0277
  150SAPE   H8Y16659   5.430   1.952   9.291  0.1731 -0.0965 -1.6616
  150SAPE   C3916660   5.285   1.844   9.161  0.5133  0.5421 -0.1102
  150SAPE   H9X16661   5.232   1.931   9.116 -0.2272  1.1450  1.8083
  150SAPE   H9Y16662   5.210   1.769   9.192 -0.5467  1.8138  0.5090
  150SAPE  C31016663   5.397   1.776   9.075  0.0044 -0.8950 -0.6354
  150SAPE  H10X16664   5.410   1.685   9.137 -0.2273  1.0462  2.4852
  150SAPE  H10Y16665   5.489   1.835   9.056 -0.0626  0.2265  2.0776
  150SAPE  C31116666   5.348   1.730   8.932  0.1833 -0.1733  0.2345
  150SAPE  H11X16667   5.314   1.820   8.877  1.0465 -0.4293 -0.7591
  150SAPE  H11Y16668   5.261   1.661   8.937  0.0660 -0.0901 -0.5535
  150SAPE  C31216669   5.451   1.659   8.841  0.5773  0.1863  0.4658
  150SAPE  H12X16670   5.492   1.574   8.901 -0.6105 -1.4006 -0.8744
  150SAPE  H12Y16671   5.528   1.736   8.821 -1.3419  2.3551  1.0151
  150SAPE  C31316672   5.391   1.597   8.708  0.2077  0.2735 -0.0123
  150SAPE  H13X16673   5.299   1.538   8.726  0.0530  0.3754 -0.4699
  150SAPE  H13Y16674   5.463   1.527   8.661 -1.5022 -0.8106 -1.0812
  150SAPE  C31416675   5.360   1.702   8.598 -0.7404  0.5110 -0.7383
  150SAPE  H14X16676   5.459   1.738   8.564  0.8453 -2.6645  0.0662
  150SAPE  H14Y16677   5.300   1.785   8.642 -0.8059  1.3831 -2.4085
  150SAPE  C31516678   5.286   1.631   8.487  0.0292  0.9331 -0.1205
  150SAPE  H15X16679   5.179   1.611   8.508  0.1145 -1.1106 -1.4038
  150SAPE  H15Y16680   5.338   1.533   8.486  4.5392  2.9050  3.1712
  150SAPE  C31616681   5.300   1.709   8.354 -0.1383  0.3003 -0.6281
  150SAPE  H16X16682   5.262   1.812   8.372  0.3867  0.5389 -0.8763
  150SAPE  H16Y16683   5.227   1.670   8.279  0.2606 -0.9607 -0.3760
  150SAPE  C31716684   5.443   1.690   8.292  0.2103 -0.4384  0.8885
  150SAPE  H17X16685   5.448   1.581   8.273 -0.1544 -0.1941 -0.6972
  150SAPE  H17Y16686   5.518   1.729   8.364 -0.6731  1.0548  1.0347
  150SAPE  C31816687   5.459   1.774   8.161  0.1918  0.3280  0.3321
  150SAPE  H18X16688   5.365   1.769   8.102  0.2540  3.7979 -0.2614
  150SAPE  H18Y16689   5.545   1.744   8.097  1.0226  4.3805 -0.7328
  150SAPE  H18Z16690   5.475   1.882   8.183 -0.0973  0.5926 -0.7412
  151SAPE     N16691   6.771   4.836  10.585  0.0277 -0.4205  0.1687
  151SAPE   HN116692   6.838   4.760  10.564  1.2469  0.7601 -0.4005
  151SAPE   HN216693   6.723   4.815  10.675  0.1669  1.3883  0.7218
  151SAPE   HN316694   6.704   4.840  10.505  0.3372 -0.1861 -0.0849
  151SAPE   C1216695   6.838   4.965  10.591  0.2779  0.0695 -0.0584
  151SAPE  H12A16696   6.767   5.050  10.602  0.1064 -0.3007  2.0829
  151SAPE  H12B16697   6.883   4.984  10.491 -0.3467  0.0796 -0.3448
  151SAPE   C1116698   6.956   4.957  10.693  0.4570  0.0465 -0.2909
  151SAPE  H11A16699   6.929   4.943  10.800  1.8880  1.4479  0.2979
  151SAPE  H11B16700   6.999   5.060  10.696 -0.0056  0.2246  0.6991
  151SAPE     P16701   7.162   4.890  10.567 -0.4874  0.2783  0.2981
  151SAPE   O1316702   7.117   5.001  10.474 -0.2369  0.2793 -0.2226
  151SAPE   O1416703   7.280   4.920  10.651  0.0006 -0.1440  0.0163
  151SAPE   O1216704   7.050   4.851  10.665 -0.1564  0.3259 -0.2338
  151SAPE   O1116705   7.171   4.753  10.493  0.0375  0.0523  0.4011
  151SAPE    C116706   7.082   4.728  10.377 -0.0545  0.1062 -0.1567
  151SAPE    HA16707   7.047   4.623  10.386  0.0667  0.1006  0.2613
  151SAPE    HB16708   6.992   4.793  10.381 -0.6671 -0.7888  1.0746
  151SAPE    C216709   7.144   4.750  10.235 -0.4775  0.1386 -0.0167
  151SAPE    HS16710   7.237   4.691  10.234 -0.3433  0.3086 -2.0089
  151SAPE   O2116711   7.156   4.892  10.204 -0.5725  0.1428  0.0611
  151SAPE   C2116712   7.288   4.925  10.210 -0.1674 -0.5398 -0.6324
  151SAPE   O2216713   7.377   4.867  10.264 -0.4305  0.9056 -0.3602
  151SAPE   C2216714   7.310   5.059  10.126 -0.3648  0.7633 -0.2889
  151SAPE   H2R16715   7.210   5.103  10.105 -1.1446 -0.6396  0.3141
  151SAPE   H2S16716   7.367   5.127  10.193 -1.4570  0.2571  1.1972
  151SAPE    C316717   7.053   4.685  10.124 -0.4078  0.1359 -0.2041
  151SAPE    HX16718   6.953   4.727  10.145 -0.3370 -0.5829  1.9162
  151SAPE    HY16719   7.046   4.581  10.163  1.2199  0.4736  1.1139
  151SAPE   O3116720   7.107   4.679   9.989  0.1403  0.0290 -0.1523
  151SAPE   C3116721   7.057   4.783   9.908  0.3520  0.2109  0.6499
  151SAPE   O3216722   6.970   4.859   9.938  0.2066 -0.0871 -0.4592
  151SAPE   C3216723   7.124   4.785   9.771 -1.4193  0.5715  0.3013
  151SAPE   H2X16724   7.146   4.682   9.735  0.9795  0.3531  2.1118
  151SAPE   H2Y16725   7.226   4.829   9.774 -0.5683 -0.7062 -4.0688
  151SAPE   C2316726   7.388   5.022  10.004 -0.0443 -0.7442 -0.3505
  151SAPE   H3R16727   7.309   4.983   9.938 -1.8982  1.3115  0.5284
  151SAPE   H3S16728   7.460   4.940  10.022  0.1611 -0.7070 -0.9821
  151SAPE   C2416729   7.444   5.148   9.936  0.3696  0.1009  1.1370
  151SAPE   H4R16730   7.539   5.173   9.989  3.0187 -3.8639 -1.1580
  151SAPE   H4S16731   7.382   5.238   9.953 -0.6810 -0.5864  0.9923
  151SAPE   C2516732   7.478   5.131   9.790 -0.4404  0.7627 -0.3168
  151SAPE   H5R16733   7.407   5.154   9.709 -0.6019  0.0606 -0.3822
  151SAPE   C2616734   7.598   5.078   9.751  0.0148 -0.8368  0.3523
  151SAPE   H6R16735   7.620   5.079   9.643  1.4903  0.1228  0.6404
  151SAPE   C2716736   7.713   5.033   9.833 -0.5160  0.2479  0.1894
  151SAPE   H7R16737   7.754   4.941   9.786 -0.8031  1.0820 -1.8186
  151SAPE   H7S16738   7.675   4.995   9.930 -0.1528 -0.9829 -0.1336
  151SAPE   C2816739   7.818   5.136   9.863  0.0280 -0.4077 -0.2183
  151SAPE   H8R16740   7.811   5.189   9.959  0.7668 -2.1509  0.8376
  151SAPE   C2916741   7.924   5.174   9.784  0.1037 -0.6025 -0.3099
  151SAPE   H9R16742   7.985   5.255   9.826  0.8843 -0.8528 -0.9454
  151SAPE  C21016743   7.954   5.132   9.643 -0.3254  0.6352  0.2645
  151SAPE  H10R16744   8.027   5.198   9.592  1.3470 -1.1492  0.2154
  151SAPE  H10S16745   7.862   5.153   9.584 -1.9088 -0.6501  2.1670
  151SAPE  C21116746   7.995   4.985   9.636 -0.4558 -0.5496  0.2665
  151SAPE  H11R16747   7.965   4.923   9.721  1.7189  0.8342  2.1479
  151SAPE  C21216748   8.067   4.932   9.536 -0.0750  0.0642 -0.1522
  151SAPE  H12R16749   8.086   4.824   9.543 -2.4534 -0.3349  1.7177
  151SAPE  C21316750   8.126   4.994   9.418  0.1358 -0.4694  0.3983
  151SAPE  H13R16751   8.049   5.070   9.392 -0.8587 -1.4099  0.4899
  151SAPE  H13S16752   8.131   4.918   9.337  1.3787 -0.1456  0.1586
  151SAPE  C21416753   8.261   5.073   9.438 -0.0064 -0.1363 -0.4007
  151SAPE  H14R16754   8.265   5.151   9.515  1.0625 -0.8644  0.3104
  151SAPE  C21516755   8.366   5.074   9.353 -0.0910 -0.2545  0.3464
  151SAPE  H15R16756   8.455   5.132   9.381 -0.4387 -0.2407  1.4574
  151SAPE  C21616757   8.379   4.999   9.226  0.8191 -0.2768 -0.4703
  151SAPE  H16R16758   8.313   4.910   9.230  1.1769 -0.5268  0.0454
  151SAPE  H16S16759   8.483   4.975   9.196  1.0587 -0.3998  0.4346
  151SAPE  C21716760   8.316   5.081   9.115  0.3604 -0.1550  0.3710
  151SAPE  H17R16761   8.366   5.180   9.109 -0.9786  0.6083  1.1928
  151SAPE  H17S16762   8.207   5.097   9.128  0.2321  0.1357 -0.8987
  151SAPE  C21816763   8.337   5.019   8.969 -0.5616  0.0254  0.1562
  151SAPE  H18R16764   8.282   4.923   8.961 -0.6367  0.1011 -0.2511
  151SAPE  H18S16765   8.445   5.007   8.944 -0.4421  0.7819  0.2808
  151SAPE  C21916766   8.274   5.120   8.865 -0.2801 -0.2887 -0.0682
  151SAPE  H19R16767   8.303   5.220   8.902 -1.6266 -1.0600  3.5727
  151SAPE  H19S16768   8.164   5.109   8.876 -0.4569  0.4898 -1.0030
  151SAPE  C22016769   8.318   5.100   8.724 -0.4827  0.2624  0.4268
  151SAPE  H20R16770   8.256   5.161   8.655  2.4206  0.7757 -1.9596
  151SAPE  H20S16771   8.286   4.997   8.701 -0.0840  0.2109  0.0807
  151SAPE  H20T16772   8.426   5.123   8.708  0.2277 -1.2626  2.4784
  151SAPE   C3316773   7.050   4.873   9.671 -0.6020  0.4437  0.0825
  151SAPE   H3X16774   7.045   4.982   9.695 -2.2024  0.2710  0.6147
  151SAPE   H3Y16775   6.943   4.843   9.664 -0.4220 -0.3142  0.4885
  151SAPE   C3416776   7.108   4.878   9.527 -0.2812  0.0116  0.6189
  151SAPE   H4X16777   7.018   4.909   9.471  0.1220  3.6281  1.7102
  151SAPE   H4Y16778   7.144   4.785   9.476 -0.6744  0.4348 -0.4450
  151SAPE   C3516779   7.230   4.964   9.496 -0.0404  0.1135 -0.3924
  151SAPE   H5X16780   7.311   4.943   9.570  0.2329 -1.0650 -1.0067
  151SAPE   H5Y16781   7.212   5.073   9.509  3.1359  0.7470 -0.3928
  151SAPE   C3616782   7.282   4.958   9.359  0.3148  0.3342 -0.8582
  151SAPE   H6X16783   7.192   4.973   9.296 -0.6679 -0.3678  0.3345
  151SAPE   H6Y16784   7.319   4.854   9.346  0.2601  0.4172 -1.7289
  151SAPE   C3716785   7.403   5.054   9.334  0.0868  0.2116 -0.6872
  151SAPE   H7X16786   7.479   5.034   9.412  0.6908 -2.1889 -1.7869
  151SAPE   H7Y16787   7.360   5.155   9.349 -0.0050 -0.0538  1.0725
  151SAPE   C3816788   7.459   5.036   9.191 -0.7513  0.6549  0.3331
  151SAPE   H8X16789   7.509   4.936   9.186 -0.8628  0.6563 -3.1240
  151SAPE   H8Y16790   7.526   5.122   9.169 -0.2342  0.0050 -0.7429
  151SAPE   C3916791   7.352   5.043   9.080 -0.0584 -0.1316  0.0666
  151SAPE   H9X16792   7.282   5.127   9.100 -0.2843  0.5573 -3.0436
  151SAPE   H9Y16793   7.301   4.945   9.081 -0.1462 -0.1317 -1.4911
  151SAPE  C31016794   7.414   5.062   8.939 -0.0894 -0.5224 -0.0349
  151SAPE  H10X16795   7.485   4.978   8.928  0.3098 -0.3830  1.2836
  151SAPE  H10Y16796   7.471   5.158   8.942 -0.9581 -0.0162  2.1817
  151SAPE  C31116797   7.313   5.086   8.828  0.2285  0.4353  0.0652
  151SAPE  H11X16798   7.272   5.187   8.848 -3.4734 -0.8396 -0.3941
  151SAPE  H11Y16799   7.231   5.016   8.855  1.2932 -0.4092  1.2853
  151SAPE  C31216800   7.363   5.076   8.681 -0.5016  0.1344 -0.0875
  151SAPE  H12X16801   7.288   5.105   8.605  1.3189 -1.8148 -2.8294
  151SAPE  H12Y16802   7.382   4.969   8.659 -1.8071  0.1191 -1.2639
  151SAPE  C31316803   7.483   5.165   8.654 -0.4546  0.0284  0.0409
  151SAPE  H13X16804   7.572   5.131   8.711  0.9013  2.9659 -0.0986
  151SAPE  H13Y16805   7.446   5.266   8.683 -0.2701  0.0233  0.2961
  151SAPE  C31416806   7.515   5.173   8.507  0.5365 -0.2093 -1.0562
  151SAPE  H14X16807   7.426   5.169   8.442 -1.9344 -0.1912  2.0622
  151SAPE  H14Y16808   7.586   5.090   8.489  0.3566 -1.6940  3.5958
  151SAPE  C31516809   7.599   5.302   8.484 -0.2859 -0.3133  0.5422
  151SAPE  H15X16810   7.685   5.303   8.555 -0.9936  4.4088  1.7146
  151SAPE  H15Y16811   7.546   5.397   8.506 -0.0648  0.2323 -1.1841
  151SAPE  C31616812   7.661   5.297   8.342 -0.8207 -0.5657  0.0062
  151SAPE  H16X16813   7.687   5.193   8.316 -1.8757 -0.7882 -0.1943
  151SAPE  H16Y16814   7.749   5.362   8.324 -1.0718 -0.5835 -1.3510
  151SAPE  C31716815   7.563   5.339   8.231  0.3719 -0.1112 -0.4637
  151SAPE  H17X16816   7.529   5.443   8.250 -1.1412 -0.8274  0.9938
  151SAPE  H17Y16817   7.475   5.273   8.245  1.1799 -1.1841 -0.3218
  151SAPE  C31816818   7.636   5.327   8.095  0.2421  0.1368 -0.4119
  151SAPE  H18X16819   7.732   5.383   8.087  0.4204  0.2111  1.7395
  151SAPE  H18Y16820   7.572   5.337   8.005 -0.2781 -1.7343 -0.2889
  151SAPE  H18Z16821   7.671   5.222   8.087  3.0896  0.7912  1.6301
  152SAPE     N16822   6.640   3.797  10.717 -0.1721  0.1846  0.3682
  152SAPE   HN116823   6.673   3.877  10.659  1.8391 -0.6085  0.3493
  152SAPE   HN216824   6.566   3.827  10.783  1.3892  2.6529  1.1278
  152SAPE   HN316825   6.728   3.773  10.766  0.7639  0.6036 -1.0343
  152SAPE   C1216826   6.605   3.689  10.623  0.2221 -0.1003 -0.1437
  152SAPE  H12A16827   6.511   3.719  10.572 -1.2665  0.7429  2.8640
  152SAPE  H12B16828   6.591   3.592  10.675  2.1486 -0.9045 -1.0126
  152SAPE   C1116829   6.717   3.643  10.521 -0.6961  0.6970 -0.2369
  152SAPE  H11A16830   6.705   3.537  10.489 -0.2241  0.6541 -0.2728
  152SAPE  H11B16831   6.811   3.661  10.576 -0.3244  2.3441 -1.3382
  152SAPE     P16832   6.757   3.882  10.401 -0.1670  0.4730  0.0654
  152SAPE   O1316833   6.695   3.959  10.508 -0.5160 -0.2187  0.0653
  152SAPE   O1416834   6.902   3.891  10.399 -0.0525 -0.0933  0.0780
  152SAPE   O1216835   6.721   3.726  10.407  0.0700  0.1169  0.8749
  152SAPE   O1116836   6.701   3.924  10.261 -0.3073  0.1856  0.0942
  152SAPE    C116837   6.578   3.993  10.257  0.2481  0.8633  0.4727
  152SAPE    HA16838   6.510   3.975  10.343 -0.6917  0.9149 -0.2478
  152SAPE    HB16839   6.601   4.102  10.260  2.3265  0.4809 -0.2271
  152SAPE    C216840   6.512   3.964  10.127 -0.4638 -0.1093 -0.6479
  152SAPE    HS16841   6.504   3.855  10.109  0.8587 -0.1337 -1.2053
  152SAPE   O2116842   6.590   4.015  10.016 -0.2115 -0.2265  0.1221
  152SAPE   C2116843   6.571   3.970   9.896  0.0567 -0.5543 -0.0353
  152SAPE   O2216844   6.502   3.877   9.865 -0.0331 -0.4588 -0.3298
  152SAPE   C2216845   6.664   4.053   9.801 -0.0043 -0.4170 -0.0577
  152SAPE   H2R16846   6.636   4.160   9.807 -1.4047 -0.7492 -0.3348
  152SAPE   H2S16847   6.773   4.051   9.826  0.7204 -0.0828 -2.8172
  152SAPE    C316848   6.378   4.031  10.122 -0.4784 -0.0350 -0.1082
  152SAPE    HX16849   6.357   4.046  10.014  0.8137 -1.7863 -0.6459
  152SAPE    HY16850   6.386   4.131  10.170  0.7834  1.1283 -2.5259
  152SAPE   O3116851   6.280   3.946  10.186  0.0201 -0.2494 -0.4144
  152SAPE   C3116852   6.160   3.994  10.182 -0.8625  0.3282  0.1009
  152SAPE   O3216853   6.123   4.086  10.115 -0.1580 -0.3380  0.6521
  152SAPE   C3216854   6.076   3.902  10.264 -0.7001 -1.1495 -0.6614
  152SAPE   H2X16855   5.984   3.954  10.298  0.6164  0.6358  0.3432
  152SAPE   H2Y16856   6.129   3.862  10.353 -0.3336  0.4469 -0.1316
  152SAPE   C2316857   6.667   3.997   9.656  0.6035 -0.1208 -0.7519
  152SAPE   H3R16858   6.563   3.990   9.617 -0.6075  2.4272  1.6730
  152SAPE   H3S16859   6.693   3.889   9.652 -0.6343 -0.4101 -1.8066
  152SAPE   C2416860   6.737   4.086   9.555 -0.1451  0.1536  0.4117
  152SAPE   H4R16861   6.681   4.182   9.545 -2.0876 -0.6865  2.5423
  152SAPE   H4S16862   6.724   4.035   9.457  0.2767 -0.2644  0.5733
  152SAPE   C2516863   6.886   4.086   9.591 -0.1310 -0.3557  0.7376
  152SAPE   H5R16864   6.928   4.019   9.667 -0.3443  0.5200  1.6575
  152SAPE   C2616865   6.964   4.144   9.498 -0.5298 -0.8629 -0.4360
  152SAPE   H6R16866   7.072   4.157   9.516 -0.6936  0.4985 -0.3217
  152SAPE   C2716867   6.913   4.221   9.377 -0.3756 -0.1642 -0.1108
  152SAPE   H7R16868   6.863   4.306   9.428  0.5060 -0.0445  0.5800
  152SAPE   H7S16869   6.841   4.168   9.311  1.8210 -2.5247 -0.7463
  152SAPE   C2816870   7.032   4.277   9.298 -0.7860  0.3117 -0.7151
  152SAPE   H8R16871   7.114   4.204   9.294 -1.0868 -0.0202 -0.8152
  152SAPE   C2916872   7.043   4.391   9.228 -0.3621 -0.5794 -0.8387
  152SAPE   H9R16873   7.139   4.423   9.184 -1.1776 -0.3467 -2.5260
  152SAPE  C21016874   6.927   4.492   9.222  0.0123  0.6128 -0.0484
  152SAPE  H10R16875   6.840   4.463   9.285  1.4173 -1.8957  0.8695
  152SAPE  H10S16876   6.894   4.497   9.117  0.5692  0.7535 -0.2180
  152SAPE  C21116877   6.971   4.630   9.272  0.4571 -0.2260 -0.3628
  152SAPE  H11R16878   6.977   4.637   9.382  1.1599  0.5810 -0.4482
  152SAPE  C21216879   6.992   4.731   9.189  0.3531 -0.5316  0.0160
  152SAPE  H12R16880   7.016   4.830   9.231 -2.0802  0.6002 -1.0629
  152SAPE  C21316881   6.994   4.734   9.034 -0.5849 -0.1089 -0.2709
  152SAPE  H13R16882   7.001   4.628   9.003  0.2617 -0.1248 -0.0613
  152SAPE  H13S16883   7.093   4.776   9.009 -1.1606 -0.5218 -3.6181
  152SAPE  C21416884   6.877   4.805   8.961  0.6910 -0.2555  0.6500
  152SAPE  H14R16885   6.800   4.833   9.034 -1.5804 -1.5249 -1.1479
  152SAPE  C21516886   6.857   4.831   8.829 -0.0545  0.0927  0.0902
  152SAPE  H15R16887   6.763   4.880   8.798  0.4996  1.5664  0.6469
  152SAPE  C21616888   6.957   4.795   8.719 -0.0464 -0.0362  0.2287
  152SAPE  H16R16889   6.966   4.685   8.717  0.2029 -0.0129 -0.1991
  152SAPE  H16S16890   7.061   4.826   8.742 -1.0568  2.5749  1.7050
  152SAPE  C21716891   6.934   4.846   8.577  0.7318 -0.2594 -0.4899
  152SAPE  H17R16892   6.831   4.811   8.556 -0.7663  2.5021  1.6019
  152SAPE  H17S16893   7.002   4.807   8.498 -0.4887 -0.1975 -1.5965
  152SAPE  C21816894   6.925   5.001   8.561 -0.4947  0.8919 -0.7052
  152SAPE  H18R16895   7.022   5.052   8.576 -0.6445  0.9402  0.2154
  152SAPE  H18S16896   6.860   5.031   8.646 -2.4394  1.0986 -2.1923
  152SAPE  C21916897   6.852   5.041   8.439 -0.6088  0.1429  0.5231
  152SAPE  H19R16898   6.743   5.038   8.459 -0.7774 -0.2068 -0.3832
  152SAPE  H19S16899   6.881   4.970   8.359  0.1207 -2.3421  2.8430
  152SAPE  C22016900   6.886   5.181   8.415 -0.3660 -0.8934 -0.4436
  152SAPE  H20R16901   6.842   5.239   8.498 -0.3775  3.4019 -3.1615
  152SAPE  H20S16902   6.835   5.217   8.323 -0.9390  0.1263  0.2519
  152SAPE  H20T16903   6.992   5.208   8.395  0.3011 -3.1311 -0.2208
  152SAPE   C3316904   6.044   3.787  10.162  0.0330  1.0989 -0.0968
  152SAPE   H3X16905   6.134   3.726  10.141 -0.0897  1.3238 -1.3598
  152SAPE   H3Y16906   6.015   3.835  10.066  2.0833 -0.4240 -1.5856
  152SAPE   C3416907   5.928   3.702  10.204 -0.6021 -0.7106 -0.0932
  152SAPE   H4X16908   5.839   3.769  10.208  0.4285  0.7055  0.1959
  152SAPE   H4Y16909   5.944   3.664  10.307 -0.3443  2.7163  1.2855
  152SAPE   C3516910   5.891   3.585  10.114 -0.5070 -0.4564  0.2296
  152SAPE   H5X16911   5.825   3.519  10.175  0.5470 -0.2381  1.6545
  152SAPE   H5Y16912   5.990   3.537  10.094 -0.0761  0.7149 -0.5393
  152SAPE   C3616913   5.829   3.621   9.979  0.2971 -0.0959  0.3836
  152SAPE   H6X16914   5.893   3.706   9.946 -0.9278  0.8118  0.2324
  152SAPE   H6Y16915   5.722   3.649   9.994 -0.6584 -2.5760 -1.2690
  152SAPE   C3716916   5.846   3.508   9.876  0.2291  0.0703 -0.0105
  152SAPE   H7X16917   5.796   3.417   9.916 -1.0401  0.5763 -0.3650
  152SAPE   H7Y16918   5.954   3.500   9.855  0.3270 -0.1367  0.5557
  152SAPE   C3816919   5.778   3.544   9.749 -0.3874  0.8421  0.3248
  152SAPE   H8X16920   5.827   3.640   9.722 -0.1856  0.9599  1.1131
  152SAPE   H8Y16921   5.672   3.574   9.763 -1.3415 -1.4341 -1.2573
  152SAPE   C3916922   5.790   3.433   9.639 -0.8536  0.1308  0.7208
  152SAPE   H9X16923   5.707   3.365   9.666 -2.9712  1.9664 -0.8222
  152SAPE   H9Y16924   5.894   3.393   9.640 -0.5697  0.6216 -2.2638
  152SAPE  C31016925   5.744   3.507   9.510 -0.2019  0.0224 -0.6444
  152SAPE  H10X16926   5.798   3.603   9.497  0.9072 -0.5371 -0.3256
  152SAPE  H10Y16927   5.637   3.528   9.531  0.4458  2.6682  0.4143
  152SAPE  C31116928   5.757   3.411   9.387  0.0043 -0.2585 -0.3899
  152SAPE  H11X16929   5.699   3.321   9.416  0.7781 -0.5384  0.3052
  152SAPE  H11Y16930   5.863   3.382   9.376  0.1001 -0.1452  0.1973
  152SAPE  C31216931   5.694   3.448   9.250  0.4726 -0.5300 -0.2323
  152SAPE  H12X16932   5.714   3.556   9.238 -0.9511 -0.1782  0.4594
  152SAPE  H12Y16933   5.584   3.438   9.256  0.2059  0.8139 -2.0137
  152SAPE  C31316934   5.756   3.388   9.130  0.3400 -0.0487  0.2281
  152SAPE  H13X16935   5.866   3.378   9.148  0.3113 -0.9493 -0.0469
  152SAPE  H13Y16936   5.731   3.452   9.044  0.8595 -1.5067 -1.0645
  152SAPE  C31416937   5.718   3.238   9.086  0.0326  0.6694 -0.2665
  152SAPE  H14X16938   5.733   3.184   9.182 -0.8769 -0.1905 -0.5942
  152SAPE  H14Y16939   5.790   3.193   9.013 -0.9084 -2.9622  0.8106
  152SAPE  C31516940   5.573   3.217   9.034 -0.3055 -0.5195 -0.8651
  152SAPE  H15X16941   5.562   3.290   8.951 -2.2214 -0.6781 -0.7935
  152SAPE  H15Y16942   5.498   3.267   9.098  0.8830 -0.1928  0.3064
  152SAPE  C31616943   5.532   3.069   9.003  0.0534 -0.0036 -0.0065
  152SAPE  H16X16944   5.546   3.002   9.091 -0.8234  0.5665  0.5811
  152SAPE  H16Y16945   5.598   3.045   8.917 -0.9107 -1.4854 -0.3720
  152SAPE  C31716946   5.378   3.056   8.969  0.1736  0.4374 -0.3273
  152SAPE  H17X16947   5.328   3.099   9.059  1.3566  1.2743 -0.0489
  152SAPE  H17Y16948   5.353   2.952   8.939  1.0498  0.5236 -1.4213
  152SAPE  C31816949   5.332   3.142   8.848 -0.6897 -0.0143 -0.4145
  152SAPE  H18X16950   5.388   3.121   8.754  1.1226 -1.6169  0.9329
  152SAPE  H18Y16951   5.345   3.249   8.874  2.8910 -0.7481  1.4643
  152SAPE  H18Z16952   5.222   3.129   8.835 -1.0914  0.7789  1.8294
  153SAPE     N16953   0.780   5.580  10.984  0.0810 -0.2210 -0.5103
  153SAPE   HN116954   0.773   5.477  10.992 -0.4681 -0.1464  0.1113
  153SAPE   HN216955   0.882   5.592  10.968  0.0672 -1.2399 -1.4989
  153SAPE   HN316956   0.758   5.629  11.073 -0.4493 -2.4171  0.6203
  153SAPE   C1216957   0.704   5.628  10.869 -0.0401 -0.3364  0.1226
  153SAPE  H12A16958   0.742   5.731  10.855  3.2799 -1.0050  2.7267
  153SAPE  H12B16959   0.595   5.628  10.889 -0.2775 -0.1363 -1.0621
  153SAPE   C1116960   0.727   5.537  10.739 -0.1318  0.6672 -0.7388
  153SAPE  H11A16961   0.834   5.508  10.727 -0.8263 -2.1363 -0.6609
  153SAPE  H11B16962   0.704   5.604  10.653 -2.5437  0.8558  0.0010
  153SAPE     P16963   0.498   5.431  10.679  0.1361  0.1152  0.0132
  153SAPE   O1316964   0.418   5.337  10.757  0.4058  0.4404  0.3813
  153SAPE   O1416965   0.459   5.572  10.685  0.3395 -0.5334  0.0579
  153SAPE   O1216966   0.646   5.425  10.729 -0.1640 -0.0100  0.3606
  153SAPE   O1116967   0.509   5.385  10.525 -0.2004 -0.0631  0.1506
  153SAPE    C116968   0.609   5.289  10.498  0.7495  0.4740  0.0423
  153SAPE    HA16969   0.638   5.223  10.583  2.9584  1.5156  0.1898
  153SAPE    HB16970   0.568   5.211  10.431 -0.4431 -0.5419  1.8598
  153SAPE    C216971   0.739   5.351  10.432 -0.1296 -0.8869  0.1103
  153SAPE    HS16972   0.762   5.442  10.492 -0.2039 -1.1783  0.5866
  153SAPE   O2116973   0.702   5.390  10.299 -0.1537  0.0149 -0.0085
  153SAPE   C2116974   0.784   5.475  10.230  0.3102  0.3826 -0.1266
  153SAPE   O2216975   0.881   5.532  10.278  0.0088 -0.1817 -0.4744
  153SAPE   C2216976   0.736   5.485  10.087  0.7119  0.8289 -0.3228
  153SAPE   H2R16977   0.645   5.424  10.068  0.6373  1.5612 -2.5919
  153SAPE   H2S16978   0.708   5.591  10.067 -1.4689  0.4499  0.4622
  153SAPE    C316979   0.863   5.248  10.416  0.2256  0.7355 -0.5478
  153SAPE    HX16980   0.887   5.223  10.522 -0.0400  2.1224 -0.1416
  153SAPE    HY16981   0.951   5.300  10.372 -1.2097  1.5521 -2.5743
  153SAPE   O3116982   0.827   5.126  10.347  0.7871 -0.4960  0.0593
  153SAPE   C3116983   0.912   5.026  10.357 -0.5604  0.1870  0.1499
  153SAPE   O3216984   1.008   5.025  10.429 -0.1083  0.3989  0.7445
  153SAPE   C3216985   0.887   4.920  10.247 -0.3439 -0.2756  0.6794
  153SAPE   H2X16986   0.863   4.966  10.149  0.1475 -1.4801 -0.0370
  153SAPE   H2Y16987   0.789   4.879  10.278  0.3781 -0.7932  2.4221
  153SAPE   C2316988   0.841   5.455   9.980 -0.6083 -0.0644  0.4986
  153SAPE   H3R16989   0.864   5.347   9.995  2.9398  0.6219  0.9883
  153SAPE   H3S16990   0.936   5.513   9.984  0.1984 -0.8955 -2.9763
  153SAPE   C2416991   0.773   5.466   9.834  0.2675  0.6681 -0.3822
  153SAPE   H4R16992   0.675   5.414   9.834 -0.0317  1.2208 -0.6157
  153SAPE   H4S16993   0.831   5.405   9.763  0.5417  0.3147  0.1424
  153SAPE   C2516994   0.742   5.598   9.777  0.3700  0.4795 -0.0458
  153SAPE   H5R16995   0.774   5.690   9.829  0.4811  1.3447 -1.6011
  153SAPE   C2616996   0.660   5.608   9.667  0.7315 -0.0191 -0.6288
  153SAPE   H6R16997   0.650   5.706   9.618  2.2298  0.1471 -0.6357
  153SAPE   C2716998   0.595   5.489   9.594  0.5765  0.3979  0.1606
  153SAPE   H7R16999   0.490   5.517   9.572  0.0831 -0.9150  0.7735
  153SAPE   H7S17000   0.571   5.405   9.662  0.4285  0.6116  0.3746
  153SAPE   C2817001   0.663   5.448   9.465  0.3507 -0.1113 -0.4003
  153SAPE   H8R17002   0.762   5.404   9.482  1.0329  1.8468  1.0131
  153SAPE   C2917003   0.613   5.475   9.345  0.1448  0.0529  0.4158
  153SAPE   H9R17004   0.645   5.423   9.254 -1.0770  0.6852 -0.3896
  153SAPE  C21017005   0.477   5.542   9.318  0.3163 -0.2996 -0.8195
  153SAPE  H10R17006   0.483   5.653   9.331  0.0139 -0.1273 -2.0569
  153SAPE  H10S17007   0.394   5.510   9.385  0.7733 -0.3545 -0.2648
  153SAPE  C21117008   0.439   5.531   9.173 -0.1663 -0.1018  0.3636
  153SAPE  H11R17009   0.357   5.459   9.158 -1.5378  1.6099 -0.7069
  153SAPE  C21217010   0.489   5.591   9.066 -0.6644  0.1586  0.1550
  153SAPE  H12R17011   0.441   5.566   8.970 -0.7011  1.5954 -0.2122
  153SAPE  C21317012   0.608   5.687   9.060 -0.6835 -0.9148  0.3095
  153SAPE  H13R17013   0.695   5.659   8.997 -0.8872 -0.8870  0.0171
  153SAPE  H13S17014   0.653   5.688   9.162  0.3117 -1.4162 -0.1031
  153SAPE  C21417015   0.559   5.831   9.036  0.5139 -0.0383 -0.2150
  153SAPE  H14R17016   0.536   5.897   9.121 -1.0152  0.0046 -0.6433
  153SAPE  C21517017   0.544   5.881   8.916  0.8424  0.0616  0.3935
  153SAPE  H15R17018   0.512   5.985   8.904  1.6290  0.3826  1.0086
  153SAPE  C21617019   0.587   5.812   8.794 -0.1027  0.8950 -0.1281
  153SAPE  H16R17020   0.686   5.766   8.816 -1.4985 -1.7461  0.9546
  153SAPE  H16S17021   0.611   5.889   8.717 -2.2935  0.7006 -1.0635
  153SAPE  C21717022   0.488   5.719   8.724  0.1921 -0.2198  0.1332
  153SAPE  H17R17023   0.396   5.782   8.722  0.2993  0.0060  1.5197
  153SAPE  H17S17024   0.478   5.623   8.780 -0.2809  0.0290  0.4844
  153SAPE  C21817025   0.543   5.697   8.582  0.2808 -0.4306  0.5490
  153SAPE  H18R17026   0.643   5.651   8.589 -0.1946 -1.8729 -1.2899
  153SAPE  H18S17027   0.559   5.798   8.538  2.3458 -0.8479  0.2466
  153SAPE  C21917028   0.445   5.610   8.497  0.0546  0.3657 -1.0824
  153SAPE  H19R17029   0.341   5.647   8.499 -0.0054  0.2011  0.6422
  153SAPE  H19S17030   0.433   5.515   8.554  1.2164 -0.1412 -1.6393
  153SAPE  C22017031   0.482   5.579   8.352  0.5546 -0.2455 -0.4323
  153SAPE  H20R17032   0.423   5.654   8.295 -0.9358 -0.8619  0.2554
  153SAPE  H20S17033   0.439   5.478   8.333 -0.9709  0.4627 -0.8505
  153SAPE  H20T17034   0.592   5.588   8.336  0.1499  0.8168 -2.9769
  153SAPE   C3317035   0.993   4.808  10.238  0.3987 -0.4859 -0.1935
  153SAPE   H3X17036   0.956   4.705  10.221  2.5037 -1.4569  0.7336
  153SAPE   H3Y17037   1.035   4.793  10.340 -3.3503 -1.6166  1.3685
  153SAPE   C3417038   1.103   4.850  10.144 -0.5390 -0.0065 -0.0381
  153SAPE   H4X17039   1.065   4.847  10.039  2.4595 -0.0072 -1.2267
  153SAPE   H4Y17040   1.174   4.765  10.152 -0.1919  0.1435 -1.2232
  153SAPE   C3517041   1.182   4.971  10.173  0.3240 -0.0452 -0.4792
  153SAPE   H5X17042   1.230   4.959  10.273  0.3959  3.4184  0.0249
  153SAPE   H5Y17043   1.113   5.058  10.171  2.2210  1.5459 -0.1815
  153SAPE   C3617044   1.291   5.001  10.079 -0.3507 -0.3627  0.3251
  153SAPE   H6X17045   1.253   4.999   9.975  0.1046  1.8184  0.0628
  153SAPE   H6Y17046   1.363   4.917  10.087 -0.6868 -0.8988 -1.6170
  153SAPE   C3717047   1.339   5.145  10.100  0.1300  0.3285  0.3016
  153SAPE   H7X17048   1.372   5.163  10.205  1.0828  1.6205 -0.1823
  153SAPE   H7Y17049   1.258   5.219  10.086  0.5943  0.9113  0.6141
  153SAPE   C3817050   1.458   5.172  10.007 -0.6766  0.0063  0.2364
  153SAPE   H8X17051   1.412   5.152   9.908 -0.5915  1.9131 -0.2207
  153SAPE   H8Y17052   1.522   5.083  10.025 -0.4937 -0.5020 -2.5554
  153SAPE   C3917053   1.515   5.313  10.013 -0.5161  0.5436  0.1879
  153SAPE   H9X17054   1.567   5.316  10.111 -2.7530 -1.1430  1.5145
  153SAPE   H9Y17055   1.432   5.386  10.027 -0.9188 -0.0733  1.1015
  153SAPE  C31017056   1.600   5.357   9.892 -0.0157  0.2926 -0.1549
  153SAPE  H10X17057   1.695   5.298   9.894 -0.7055 -0.8357  0.6522
  153SAPE  H10Y17058   1.629   5.462   9.911  0.2720  0.0929  0.5478
  153SAPE  C31117059   1.538   5.346   9.750  0.6937  0.5019  0.0146
  153SAPE  H11X17060   1.428   5.332   9.757  0.5714  0.5822 -1.4825
  153SAPE  H11Y17061   1.558   5.250   9.699 -0.9203  0.2362 -0.1801
  153SAPE  C31217062   1.581   5.458   9.655 -0.5180  0.3959  1.0244
  153SAPE  H12X17063   1.692   5.462   9.662 -0.2839 -1.7519 -0.6239
  153SAPE  H12Y17064   1.539   5.560   9.672 -2.6184 -0.3001  0.3048
  153SAPE  C31317065   1.545   5.417   9.513  0.4538  0.0651  0.3716
  153SAPE  H13X17066   1.435   5.413   9.500  0.3970 -1.4398  1.1686
  153SAPE  H13Y17067   1.592   5.318   9.496  1.1534  0.6549 -1.2825
  153SAPE  C31417068   1.608   5.522   9.425  0.0512  0.2269  0.5820
  153SAPE  H14X17069   1.718   5.527   9.442  0.2862 -1.0342 -0.3746
  153SAPE  H14Y17070   1.566   5.619   9.459 -1.0616 -0.5421  1.4751
  153SAPE  C31517071   1.568   5.508   9.275 -0.1887  0.0475  0.3080
  153SAPE  H15X17072   1.460   5.483   9.275 -0.3159  0.5126 -0.9544
  153SAPE  H15Y17073   1.623   5.421   9.235  1.5066  1.0662  0.3137
  153SAPE  C31617074   1.592   5.636   9.197 -0.3683  0.2401  0.4828
  153SAPE  H16X17075   1.695   5.666   9.223 -0.3067  0.2209  0.2604
  153SAPE  H16Y17076   1.515   5.714   9.216 -1.4967 -0.3867 -1.2617
  153SAPE  C31717077   1.581   5.619   9.038 -0.6198 -0.6218  0.5965
  153SAPE  H17X17078   1.475   5.586   9.024 -0.6727  0.0930 -0.8379
  153SAPE  H17Y17079   1.659   5.548   9.003 -0.7143 -0.5368  0.2162
  153SAPE  C31817080   1.606   5.747   8.962  0.6389 -0.3897  0.1930
  153SAPE  H18X17081   1.572   5.832   9.026 -0.2558 -2.3790  2.5195
  153SAPE  H18Y17082   1.541   5.749   8.872 -1.2572  0.8480  1.5005
  153SAPE  H18Z17083   1.709   5.760   8.924  1.7992 -4.6792  1.3588
  154SAPE     N17084   1.082   4.587  10.579 -0.0891  0.5893  0.3893
  154SAPE   HN117085   1.034   4.675  10.610 -0.0778  0.1435  1.7639
  154SAPE   HN217086   1.177   4.611  10.547 -0.5229 -0.0065 -1.4314
  154SAPE   HN317087   1.017   4.546  10.509 -1.2181  2.0550  0.5294
  154SAPE   C1217088   1.086   4.483  10.695 -0.4730 -0.0930  0.4090
  154SAPE  H12A17089   0.990   4.481  10.751 -0.4288 -0.9273  0.4711
  154SAPE  H12B17090   1.160   4.511  10.772  0.0022  0.4237 -0.2262
  154SAPE   C1117091   1.130   4.343  10.640  0.0025  0.3447 -0.1381
  154SAPE  H11A17092   1.056   4.303  10.568 -0.7718  1.0310  0.2614
  154SAPE  H11B17093   1.130   4.276  10.728  1.4353  1.4223  0.7445
  154SAPE     P17094   1.305   4.307  10.435  0.2395  0.2154 -0.5246
  154SAPE   O1317095   1.449   4.337  10.415 -0.0386 -0.5667  0.1082
  154SAPE   O1417096   1.256   4.175  10.388 -0.5726  0.2925 -0.9298
  154SAPE   O1217097   1.264   4.329  10.588  0.2253  0.3597  0.1197
  154SAPE   O1117098   1.204   4.415  10.378  0.0105 -0.2404  0.0390
  154SAPE    C117099   1.240   4.482  10.253  0.5999  0.2720 -0.0629
  154SAPE    HA17100   1.165   4.561  10.231  0.3015 -0.6494 -2.6770
  154SAPE    HB17101   1.341   4.530  10.259  0.5310  0.2308  2.4241
  154SAPE    C217102   1.243   4.389  10.130  0.2101 -0.1807  0.4510
  154SAPE    HS17103   1.334   4.328  10.149 -0.8716 -1.5104  1.5896
  154SAPE   O2117104   1.242   4.467  10.009 -0.5896 -0.1786  0.4424
  154SAPE   C2117105   1.361   4.530   9.976  0.7454  1.4480 -0.1933
  154SAPE   O2217106   1.461   4.516  10.037  0.2050  0.0322 -0.1126
  154SAPE   C2217107   1.336   4.639   9.867 -0.4121  0.0174 -0.0710
  154SAPE   H2R17108   1.252   4.607   9.801  0.1046  0.5852 -1.0177
  154SAPE   H2S17109   1.321   4.730   9.929  0.1251 -0.6184  1.0282
  154SAPE    C317110   1.118   4.291  10.132  0.4950  0.1384  0.1640
  154SAPE    HX17111   1.037   4.363  10.110  1.2803  1.4095  1.2553
  154SAPE    HY17112   1.095   4.253  10.234  2.4345  0.2945  0.6942
  154SAPE   O3117113   1.123   4.182  10.038 -0.2211  0.8004  0.1931
  154SAPE   C3117114   1.013   4.125  10.006 -0.5690 -0.0817 -0.0938
  154SAPE   O3217115   0.901   4.134  10.052 -0.2432 -0.6040 -0.2198
  154SAPE   C3217116   1.050   4.040   9.887 -0.2341  0.2642 -0.7881
  154SAPE   H2X17117   1.003   3.940   9.903  3.4965 -1.7402 -1.3759
  154SAPE   H2Y17118   1.158   4.018   9.882 -0.6588 -2.7710  0.8399
  154SAPE   C2317119   1.456   4.661   9.773 -0.9577  0.0659 -0.5154
  154SAPE   H3R17120   1.535   4.702   9.840 -1.3232  0.7160 -0.4651
  154SAPE   H3S17121   1.428   4.746   9.706  0.9884  0.9580 -0.2777
  154SAPE   C2417122   1.506   4.532   9.710  0.1502  0.1905 -0.1401
  154SAPE   H4R17123   1.533   4.475   9.801 -2.5156  0.5547  0.9683
  154SAPE   H4S17124   1.598   4.556   9.652  0.5109 -0.1783  0.2700
  154SAPE   C2517125   1.421   4.448   9.626  0.5858 -0.1655  0.5011
  154SAPE   H5R17126   1.371   4.359   9.666  3.2251 -3.5257 -2.9355
  154SAPE   C2617127   1.408   4.466   9.491  1.0704  0.5437 -0.0759
  154SAPE   H6R17128   1.348   4.398   9.429 -0.1185  0.4239  1.1670
  154SAPE   C2717129   1.467   4.576   9.410 -0.1648  0.0057  0.3367
  154SAPE   H7R17130   1.453   4.671   9.466  0.8516  1.2792 -1.4698
  154SAPE   H7S17131   1.408   4.584   9.316 -0.5193  0.0690  0.5614
  154SAPE   C2817132   1.614   4.549   9.365  0.1933  0.5348  0.8645
  154SAPE   H8R17133   1.681   4.544   9.452  1.2497 -0.2227  0.0457
  154SAPE   C2917134   1.657   4.534   9.241  0.1800 -0.1389 -0.2633
  154SAPE   H9R17135   1.760   4.504   9.219  0.8034  0.6418  1.3555
  154SAPE  C21017136   1.586   4.541   9.107 -0.6748  0.4491 -0.1366
  154SAPE  H10R17137   1.476   4.549   9.124 -0.6640 -1.4573  1.2057
  154SAPE  H10S17138   1.598   4.439   9.065 -2.5191 -1.4329  3.4289
  154SAPE  C21117139   1.642   4.657   9.022 -0.6750  0.4131 -0.3354
  154SAPE  H11R17140   1.724   4.718   9.064  0.0488 -1.7411  1.6063
  154SAPE  C21217141   1.605   4.683   8.894  0.5810  0.9583  0.1871
  154SAPE  H12R17142   1.648   4.764   8.834  1.5171  0.5835  0.3366
  154SAPE  C21317143   1.507   4.601   8.816  0.3545 -0.6321  0.7945
  154SAPE  H13R17144   1.473   4.522   8.886 -3.2086  1.8753  2.2621
  154SAPE  H13S17145   1.566   4.547   8.740  1.0206  0.8156  0.2455
  154SAPE  C21417146   1.387   4.676   8.759 -0.9293 -0.3849  0.2987
  154SAPE  H14R17147   1.312   4.705   8.834 -1.4466 -2.4003  0.6365
  154SAPE  C21517148   1.360   4.705   8.629  0.4015 -0.1243 -0.0087
  154SAPE  H15R17149   1.274   4.770   8.604 -0.0787 -0.2085  1.3544
  154SAPE  C21617150   1.437   4.661   8.508  0.1413  0.7613  0.3385
  154SAPE  H16R17151   1.522   4.595   8.535 -0.3583 -0.0467 -0.0249
  154SAPE  H16S17152   1.474   4.741   8.441 -1.0837 -1.1659 -2.8865
  154SAPE  C21717153   1.358   4.554   8.419 -0.0152 -0.2106 -0.2313
  154SAPE  H17R17154   1.265   4.605   8.385 -0.9872 -0.8025  1.4201
  154SAPE  H17S17155   1.344   4.462   8.481  2.4691 -0.9729 -0.6893
  154SAPE  C21817156   1.439   4.512   8.294  0.9908 -0.2542  0.0765
  154SAPE  H18R17157   1.549   4.503   8.306  1.1862  0.0464 -1.2934
  154SAPE  H18S17158   1.422   4.594   8.221 -2.4677 -1.0375 -0.1696
  154SAPE  C21917159   1.391   4.380   8.242 -0.0823 -0.2010  0.6343
  154SAPE  H19R17160   1.280   4.380   8.247 -0.0971  0.0112  0.3593
  154SAPE  H19S17161   1.408   4.304   8.321 -2.5473 -0.4575  0.9925
  154SAPE  C22017162   1.440   4.332   8.101 -0.2369  0.6314  0.0800
  154SAPE  H20R17163   1.548   4.307   8.112 -0.3365  0.0432 -0.2603
  154SAPE  H20S17164   1.427   4.402   8.017 -1.8215  0.7950  0.4229
  154SAPE  H20T17165   1.368   4.252   8.073 -1.1972  0.4321  2.7944
  154SAPE   C3317166   0.999   4.100   9.752 -0.1157  0.1108 -0.6885
  154SAPE   H3X17167   0.891   4.125   9.758 -0.6984 -2.0732 -0.9295
  154SAPE   H3Y17168   1.009   4.017   9.678  0.4012  0.5144 -1.0809
  154SAPE   C3417169   1.089   4.211   9.710 -0.3921  0.1423  0.1255
  154SAPE   H4X17170   1.194   4.178   9.697 -0.5199  0.1055 -0.8546
  154SAPE   H4Y17171   1.095   4.290   9.789 -0.5298 -0.8551  1.1569
  154SAPE   C3517172   1.048   4.273   9.579 -0.4358 -0.4915  0.0002
  154SAPE   H5X17173   1.098   4.370   9.562 -1.0576 -0.4818 -2.0645
  154SAPE   H5Y17174   0.938   4.290   9.584 -0.1120  1.5581  1.6464
  154SAPE   C3617175   1.070   4.176   9.461 -0.6525 -0.3463 -0.2194
  154SAPE   H6X17176   1.032   4.072   9.477 -1.2181 -0.4607 -2.0536
  154SAPE   H6Y17177   1.179   4.171   9.442 -0.2251  2.1294  1.2675
  154SAPE   C3717178   0.994   4.219   9.335  0.1060 -0.1859  0.0350
  154SAPE   H7X17179   0.885   4.225   9.353  0.2410  1.1396  0.5230
  154SAPE   H7Y17180   1.019   4.146   9.255  1.0490  1.3337 -1.1007
  154SAPE   C3817181   1.042   4.357   9.282  0.6981  0.5317  0.0755
  154SAPE   H8X17182   1.152   4.361   9.269  0.9066  2.1528  1.8223
  154SAPE   H8Y17183   1.028   4.427   9.367  2.0281  0.0761  0.6994
  154SAPE   C3917184   0.964   4.406   9.150  0.5146 -0.6303 -1.1834
  154SAPE   H9X17185   0.867   4.444   9.191  0.4988  0.0292 -1.8128
  154SAPE   H9Y17186   0.957   4.313   9.090  1.4877 -3.8640  3.1793
  154SAPE  C31017187   1.007   4.531   9.082  0.2180  0.1224  0.1073
  154SAPE  H10X17188   0.928   4.556   9.008 -1.1744  1.1065  1.8347
  154SAPE  H10Y17189   1.105   4.516   9.032 -0.4665 -0.9783 -0.9523
  154SAPE  C31117190   1.018   4.659   9.172  0.3585  0.6579 -0.3173
  154SAPE  H11X17191   1.085   4.636   9.258 -0.7729  1.3197  0.7839
  154SAPE  H11Y17192   0.915   4.677   9.209  0.3821 -3.1014  2.0778
  154SAPE  C31217193   1.079   4.771   9.094 -0.1028  0.3176 -0.6053
  154SAPE  H12X17194   1.183   4.734   9.081 -0.1848 -2.0642  3.5910
  154SAPE  H12Y17195   1.081   4.858   9.162  1.8957 -0.7270  0.7910
  154SAPE  C31317196   0.996   4.803   8.972  0.3526  0.4267 -0.4886
  154SAPE  H13X17197   0.889   4.804   9.000  0.4946 -1.6499  0.3207
  154SAPE  H13Y17198   1.013   4.716   8.904  0.4259 -0.0324  0.1042
  154SAPE  C31417199   1.040   4.933   8.899  0.2412 -0.2218 -0.5861
  154SAPE  H14X17200   1.150   4.951   8.891  0.3184 -0.5269 -0.2374
  154SAPE  H14Y17201   1.006   5.019   8.961  1.3467 -0.4819  0.4305
  154SAPE  C31517202   0.987   4.930   8.753  0.5925  0.0287 -0.5411
  154SAPE  H15X17203   0.879   4.910   8.739  0.4472 -0.2975  0.8615
  154SAPE  H15Y17204   1.037   4.840   8.713 -0.6829 -1.5039  1.1506
  154SAPE  C31617205   1.027   5.049   8.669 -0.9853  0.2222 -0.0042
  154SAPE  H16X17206   1.071   5.133   8.726  1.5529  0.1049 -1.6380
  154SAPE  H16Y17207   0.940   5.098   8.620 -1.1388  0.4915  0.5320
  154SAPE  C31717208   1.136   5.014   8.568 -0.4613 -0.4490 -0.2542
  154SAPE  H17X17209   1.108   4.925   8.508  1.6038 -1.2637 -0.0784
  154SAPE  H17Y17210   1.230   4.982   8.618  0.2420  1.5546 -0.1785
  154SAPE  C31817211   1.161   5.135   8.486  0.5634  0.2554  0.2381
  154SAPE  H18X17212   1.238   5.108   8.411  0.7374  1.2885  0.0297
  154SAPE  H18Y17213   1.198   5.223   8.543  2.1914 -0.4472  0.2876
  154SAPE  H18Z17214   1.078   5.174   8.423  1.0565 -0.7791 -1.0959
  155SAPE     N17215   3.372   1.381  10.569  0.4169 -0.3121 -0.3814
  155SAPE   HN117216   3.287   1.322  10.556  0.4460 -0.1025 -1.6865
  155SAPE   HN217217   3.418   1.381  10.476 -0.5052  0.3369 -0.8652
  155SAPE   HN317218   3.422   1.330  10.644 -0.0365  0.3125  0.3744
  155SAPE   C1217219   3.323   1.516  10.613 -0.0024  0.1657 -0.1422
  155SAPE  H12A17220   3.268   1.565  10.530  0.3229 -1.5682 -1.4441
  155SAPE  H12B17221   3.415   1.573  10.637  1.5209 -1.9815 -0.6561
  155SAPE   C1117222   3.247   1.496  10.744 -0.0857 -0.3990 -0.7402
  155SAPE  H11A17223   3.224   1.599  10.779  1.4301 -0.0292 -0.7620
  155SAPE  H11B17224   3.311   1.453  10.824  0.4663  1.6248 -0.0481
  155SAPE     P17225   3.087   1.284  10.788 -0.0254  0.4047  0.0658
  155SAPE   O1317226   3.109   1.268  10.932  0.5364 -0.8285  0.5519
  155SAPE   O1417227   2.947   1.262  10.741  0.2787 -0.4947 -0.0005
  155SAPE   O1217228   3.123   1.430  10.736 -0.2702  1.2199 -0.0990
  155SAPE   O1117229   3.181   1.198  10.701 -0.2292  0.4787 -0.4511
  155SAPE    C117230   3.198   1.063  10.720  0.2004 -0.0331 -0.3393
  155SAPE    HA17231   3.274   1.053  10.802 -1.3017 -0.3346  1.0655
  155SAPE    HB17232   3.108   1.007  10.755 -0.8615  0.9181 -1.4949
  155SAPE    C217233   3.236   0.995  10.584 -0.0186  0.3612  0.6200
  155SAPE    HS17234   3.327   1.048  10.552  0.3943 -0.8953 -0.3655
  155SAPE   O2117235   3.134   1.002  10.482  0.4137  0.1146  0.0847
  155SAPE   C2117236   3.130   1.111  10.406 -1.0486 -0.1927  0.2742
  155SAPE   O2217237   3.188   1.218  10.426  0.6536  0.2142  0.1467
  155SAPE   C2217238   3.042   1.067  10.286 -0.1315 -0.7075  0.1638
  155SAPE   H2R17239   3.095   0.992  10.224 -1.2228 -1.7492  0.4475
  155SAPE   H2S17240   2.951   1.016  10.325 -0.7303  0.4188  0.2830
  155SAPE    C317241   3.268   0.843  10.600 -0.3428 -0.0337  0.1653
  155SAPE    HX17242   3.173   0.787  10.593  0.6059 -1.5509 -1.3637
  155SAPE    HY17243   3.332   0.819  10.687  3.6821  1.9182 -1.9400
  155SAPE   O3117244   3.344   0.800  10.485  0.8537 -0.2264  0.3636
  155SAPE   C3117245   3.389   0.676  10.488  1.2519 -0.2478  0.0543
  155SAPE   O3217246   3.363   0.600  10.580 -0.3961  0.3962 -0.0440
  155SAPE   C3217247   3.469   0.645  10.363 -0.1889 -0.5415 -0.3063
  155SAPE   H2X17248   3.561   0.595  10.399 -0.1405 -0.0349  0.2858
  155SAPE   H2Y17249   3.489   0.745  10.318 -1.4797  0.4896  1.3027
  155SAPE   C2317250   3.000   1.193  10.202 -0.0346  0.2731 -0.2246
  155SAPE   H3R17251   3.087   1.255  10.171 -0.4897 -0.0408 -2.2412
  155SAPE   H3S17252   2.944   1.264  10.266 -0.1400 -0.2663  0.2932
  155SAPE   C2417253   2.920   1.149  10.075  0.5959 -0.1111 -0.1639
  155SAPE   H4R17254   2.835   1.081  10.094 -0.5836  0.5261 -2.7185
  155SAPE   H4S17255   2.993   1.091  10.014  2.6316  1.0634  1.0333
  155SAPE   C2517256   2.872   1.265   9.982 -0.3938 -0.1536 -0.3449
  155SAPE   H5R17257   2.955   1.321   9.936  1.3936 -1.1852  1.4572
  155SAPE   C2617258   2.742   1.301   9.956  0.6410 -0.2007 -0.0013
  155SAPE   H6R17259   2.733   1.390   9.892 -4.2218  0.1694  0.7948
  155SAPE   C2717260   2.622   1.239  10.019 -0.9390 -0.8629 -0.9507
  155SAPE   H7R17261   2.640   1.134  10.049 -1.7388 -0.8335 -0.3378
  155SAPE   H7S17262   2.545   1.243   9.939 -1.9686  1.1637  0.0666
  155SAPE   C2817263   2.583   1.322  10.137 -0.0959 -0.1602 -0.3186
  155SAPE   H8R17264   2.661   1.359  10.206  1.7864 -0.2943 -2.2647
  155SAPE   C2917265   2.459   1.368  10.172 -0.8124 -0.4750 -0.5378
  155SAPE   H9R17266   2.459   1.415  10.271  2.6660  0.2324 -0.7584
  155SAPE  C21017267   2.333   1.359  10.101  0.4876 -0.2799 -0.0007
  155SAPE  H10R17268   2.281   1.261  10.103 -0.1366 -0.0340 -1.7750
  155SAPE  H10S17269   2.355   1.364   9.992 -0.5060 -1.2537 -0.2588
  155SAPE  C21117270   2.237   1.478  10.138  0.5416 -0.1237  0.4438
  155SAPE  H11R17271   2.185   1.473  10.234  0.9571 -1.4558  0.6267
  155SAPE  C21217272   2.198   1.586  10.065 -0.0906  0.4025 -0.4828
  155SAPE  H12R17273   2.133   1.657  10.118  0.6078  0.1666  0.7291
  155SAPE  C21317274   2.240   1.622   9.922 -0.4047 -0.0133  0.4471
  155SAPE  H13R17275   2.350   1.636   9.919 -0.2164 -1.3891  0.3251
  155SAPE  H13S17276   2.198   1.722   9.899 -1.7920 -0.6726  0.0170
  155SAPE  C21417277   2.191   1.535   9.804 -0.6539  0.2091 -0.4253
  155SAPE  H14R17278   2.082   1.528   9.795 -0.7712 -0.2256  1.1627
  155SAPE  C21517279   2.265   1.461   9.721 -0.3335  0.0255  0.1178
  155SAPE  H15R17280   2.211   1.394   9.653 -0.1326  1.6431 -1.7401
  155SAPE  C21617281   2.408   1.444   9.716 -0.8599  0.5414 -0.0268
  155SAPE  H16R17282   2.439   1.353   9.773  1.2045  1.5664  0.5898
  155SAPE  H16S17283   2.474   1.511   9.775  0.5281 -1.7372  1.1894
  155SAPE  C21717284   2.466   1.410   9.579 -0.4918 -0.2687  0.1081
  155SAPE  H17R17285   2.577   1.413   9.587 -0.4188 -0.1772 -0.8525
  155SAPE  H17S17286   2.439   1.484   9.501 -0.0021 -0.9226 -0.6956
  155SAPE  C21817287   2.417   1.276   9.522  0.2100  0.5685  0.3237
  155SAPE  H18R17288   2.309   1.290   9.503  0.0080  0.4097  1.2642
  155SAPE  H18S17289   2.428   1.201   9.604  0.0088  1.0210  0.7756
  155SAPE  C21917290   2.497   1.218   9.406 -0.2775  0.0473  0.6582
  155SAPE  H19R17291   2.445   1.131   9.361 -0.9993  0.7808  0.0480
  155SAPE  H19S17292   2.603   1.198   9.435 -0.2292 -0.8865 -0.1049
  155SAPE  C22017293   2.497   1.315   9.282  0.0608  0.0845  0.4390
  155SAPE  H20R17294   2.562   1.399   9.315 -2.7402  2.0697  1.2155
  155SAPE  H20S17295   2.394   1.349   9.259  0.7431  2.1331  0.2459
  155SAPE  H20T17296   2.548   1.271   9.193  2.2035 -0.0582  1.6537
  155SAPE   C3317297   3.399   0.548  10.267 -0.3476 -0.1071  0.2679
  155SAPE   H3X17298   3.297   0.589  10.251 -0.4653  0.3536  2.0237
  155SAPE   H3Y17299   3.372   0.453  10.318 -0.1070 -0.1697  0.2773
  155SAPE   C3417300   3.470   0.503  10.135  0.8264 -0.4245  0.3410
  155SAPE   H4X17301   3.449   0.572  10.050 -4.4123 -2.9986 -0.8416
  155SAPE   H4Y17302   3.420   0.407  10.111  0.2746 -0.3919  1.3317
  155SAPE   C3517303   3.611   0.464  10.144 -0.4499  0.0947 -0.0753
  155SAPE   H5X17304   3.633   0.399  10.231  0.1245  0.6206  0.1818
  155SAPE   H5Y17305   3.678   0.550  10.162  0.6859 -0.8420  0.3159
  155SAPE   C3617306   3.663   0.385  10.019  0.0294 -0.5225 -0.3261
  155SAPE   H6X17307   3.598   0.301   9.987 -1.8623  0.9627 -0.5750
  155SAPE   H6Y17308   3.766   0.351  10.041  0.7835  0.7714 -1.6762
  155SAPE   C3717309   3.659   0.471   9.892 -0.2618 -0.8307 -0.1938
  155SAPE   H7X17310   3.713   0.567   9.906 -0.4689 -0.9559  1.7494
  155SAPE   H7Y17311   3.551   0.488   9.873  0.0312  0.7819 -0.5105
  155SAPE   C3817312   3.713   0.399   9.772  0.0250 -0.5792 -0.2895
  155SAPE   H8X17313   3.643   0.315   9.751 -0.6987  0.3191 -1.6119
  155SAPE   H8Y17314   3.814   0.362   9.799 -0.0038 -1.9942 -1.9409
  155SAPE   C3917315   3.717   0.487   9.642 -0.1905 -0.0253  0.7747
  155SAPE   H9X17316   3.799   0.562   9.648 -0.5660  0.3587  1.0922
  155SAPE   H9Y17317   3.619   0.536   9.629  1.0595  1.9846 -2.2523
  155SAPE  C31017318   3.748   0.396   9.523  0.1374  0.3706  0.0967
  155SAPE  H10X17319   3.681   0.309   9.509  2.8940 -1.6326 -1.9364
  155SAPE  H10Y17320   3.851   0.358   9.542 -0.1879 -0.7942 -0.3639
  155SAPE  C31117321   3.753   0.462   9.383 -0.5732 -0.1249  0.2675
  155SAPE  H11X17322   3.825   0.546   9.387 -1.4550  0.6352  0.3837
  155SAPE  H11Y17323   3.650   0.496   9.360 -0.3630 -0.5514 -1.4524
  155SAPE  C31217324   3.783   0.362   9.264 -0.2036  0.0818 -1.0717
  155SAPE  H12X17325   3.738   0.263   9.287  3.1442 -1.5863 -1.0541
  155SAPE  H12Y17326   3.891   0.337   9.270 -1.1418 -4.4722  0.4760
  155SAPE  C31317327   3.747   0.414   9.124 -0.4920 -0.4206 -0.4323
  155SAPE  H13X17328   3.784   0.519   9.117 -0.8542 -0.2273  0.4066
  155SAPE  H13Y17329   3.637   0.425   9.117 -0.4106  0.0937 -1.0620
  155SAPE  C31417330   3.799   0.327   9.009 -0.5771 -0.5589 -0.0941
  155SAPE  H14X17331   3.750   0.229   9.030 -1.6805  0.1895  0.9329
  155SAPE  H14Y17332   3.909   0.312   9.010 -0.6927 -1.4639  1.2450
  155SAPE  C31517333   3.741   0.364   8.871  0.7276  0.4925  0.0476
  155SAPE  H15X17334   3.633   0.376   8.892  1.2716  1.2752  2.9186
  155SAPE  H15Y17335   3.753   0.273   8.809 -0.3308  0.9171 -0.7975
  155SAPE  C31617336   3.794   0.493   8.807  0.1472  0.2791  0.2461
  155SAPE  H16X17337   3.903   0.477   8.791  0.3790 -0.5289  2.2859
  155SAPE  H16Y17338   3.789   0.583   8.872  2.7320  0.7212 -0.0611
  155SAPE  C31717339   3.727   0.527   8.674 -0.5684 -0.3653 -0.1028
  155SAPE  H17X17340   3.617   0.538   8.687 -0.8561 -2.7300 -0.0194
  155SAPE  H17Y17341   3.734   0.442   8.602 -1.1129  1.2736 -2.2126
  155SAPE  C31817342   3.796   0.647   8.616  0.8375  0.6073 -0.6485
  155SAPE  H18X17343   3.788   0.739   8.677  1.1569  1.0972 -1.3324
  155SAPE  H18Y17344   3.765   0.663   8.511  0.7406 -1.0148 -0.9000
  155SAPE  H18Z17345   3.902   0.617   8.597  1.8460  2.2665  1.8956
  156SAPE     N17346   4.740   5.947  10.304 -0.0702 -0.3170 -0.3286
  156SAPE   HN117347   4.673   5.926  10.227  1.1531 -0.4890 -1.3702
  156SAPE   HN217348   4.727   5.868  10.371 -0.1787  0.0089  0.0373
  156SAPE   HN317349   4.710   6.035  10.351 -0.0844 -0.3272 -0.3189
  156SAPE   C1217350   4.880   5.941  10.247  0.3573  0.0624 -0.1246
  156SAPE  H12A17351   4.957   5.951  10.326 -0.4671  0.3971  0.6471
  156SAPE  H12B17352   4.882   6.029  10.179  1.8948  2.1857  2.4899
  156SAPE   C1117353   4.898   5.808  10.171  0.0788  0.4099  0.0307
  156SAPE  H11A17354   5.002   5.808  10.131  0.5163 -1.1402  1.0773
  156SAPE  H11B17355   4.822   5.803  10.090 -0.4873 -1.0926  0.6125
  156SAPE     P17356   4.977   5.603  10.325 -0.1600  0.1133  0.2196
  156SAPE   O1317357   5.046   5.674  10.433 -0.1469 -0.3505  0.7428
  156SAPE   O1417358   4.919   5.469  10.361  0.5876 -0.2048  0.0777
  156SAPE   O1217359   4.868   5.694  10.257  0.1525  0.1531 -0.6046
  156SAPE   O1117360   5.075   5.582  10.202 -0.1980 -1.1341  0.1980
  156SAPE    C117361   5.211   5.518  10.228  0.3493 -0.3894  0.4795
  156SAPE    HA17362   5.283   5.603  10.228  0.6198 -0.5768 -1.7100
  156SAPE    HB17363   5.222   5.472  10.329  2.7636 -0.8986  0.0495
  156SAPE    C217364   5.245   5.412  10.116  0.0265 -0.7068  0.2575
  156SAPE    HS17365   5.349   5.379  10.141  0.5896  1.7712  1.4655
  156SAPE   O2117366   5.235   5.470   9.989  0.0970 -0.4843  0.0159
  156SAPE   C2117367   5.340   5.449   9.912 -0.1977 -0.8343  0.5616
  156SAPE   O2217368   5.444   5.397   9.938 -0.0946 -0.4822  0.4460
  156SAPE   C2217369   5.308   5.520   9.769  0.7097  0.6458  0.3194
  156SAPE   H2R17370   5.295   5.628   9.790  2.4959  0.7564  1.0273
  156SAPE   H2S17371   5.394   5.526   9.700 -0.0605 -0.6322 -0.8025
  156SAPE    C317372   5.142   5.295  10.137  0.8011 -0.0433  0.0074
  156SAPE    HX17373   5.043   5.321  10.093 -0.8243 -3.5016  1.2890
  156SAPE    HY17374   5.108   5.282  10.242 -0.3807 -1.4057 -0.5140
  156SAPE   O3117375   5.173   5.170  10.080 -0.1681  0.2663 -0.7391
  156SAPE   C3117376   5.248   5.083  10.156  0.2579  0.0888 -0.3468
  156SAPE   O3217377   5.295   5.115  10.265  0.8299  0.2173  0.0454
  156SAPE   C3217378   5.260   4.961  10.074 -0.1632  0.6369 -0.9645
  156SAPE   H2X17379   5.161   4.914  10.055  1.1740 -2.2081 -1.5319
  156SAPE   H2Y17380   5.308   4.890  10.145  0.3222  2.6929  0.8427
  156SAPE   C2317381   5.186   5.460   9.687 -0.0002  0.8350 -0.5777
  156SAPE   H3R17382   5.161   5.520   9.597  0.0152 -0.6652 -1.6154
  156SAPE   H3S17383   5.093   5.455   9.748  0.6101  2.2391  0.5288
  156SAPE   C2417384   5.216   5.315   9.641  0.3325 -0.1889 -1.2225
  156SAPE   H4R17385   5.125   5.274   9.591 -1.3107 -0.0175  1.3679
  156SAPE   H4S17386   5.231   5.248   9.729 -2.1859  1.7438  0.8791
  156SAPE   C2517387   5.336   5.310   9.544  0.3855 -0.6340 -0.0601
  156SAPE   H5R17388   5.442   5.295   9.569  0.0599 -1.9777  0.5872
  156SAPE   C2617389   5.315   5.339   9.417 -0.8453 -0.1432 -0.4788
  156SAPE   H6R17390   5.404   5.338   9.354  0.5790  0.1106  1.4271
  156SAPE   C2717391   5.194   5.377   9.335  0.3979  0.8833  0.1791
  156SAPE   H7R17392   5.104   5.377   9.400 -2.1720  2.0570 -3.1126
  156SAPE   H7S17393   5.182   5.299   9.256 -0.1982  1.2241 -0.0733
  156SAPE   C2817394   5.210   5.516   9.277  0.0053  0.1248  0.3436
  156SAPE   H8R17395   5.273   5.582   9.338  0.2650 -0.9811  1.3239
  156SAPE   C2917396   5.141   5.565   9.175 -0.1299  0.2816 -0.4516
  156SAPE   H9R17397   5.176   5.660   9.133  0.6869 -0.2957 -1.0979
  156SAPE  C21017398   5.028   5.506   9.094  0.2056 -0.0026  0.4430
  156SAPE  H10R17399   4.935   5.557   9.126 -0.1236  0.1891 -0.7571
  156SAPE  H10S17400   5.017   5.398   9.118 -3.0884 -0.2184 -1.4134
  156SAPE  C21117401   5.039   5.523   8.944 -0.2364  0.2003 -0.3518
  156SAPE  H11R17402   4.986   5.614   8.910 -0.7409  0.4897  1.1535
  156SAPE  C21217403   5.093   5.437   8.858  0.0052  0.1783 -0.7459
  156SAPE  H12R17404   5.102   5.457   8.750  0.6054 -2.5924 -1.2888
  156SAPE  C21317405   5.171   5.313   8.892  0.1761  0.1290 -0.2972
  156SAPE  H13R17406   5.205   5.320   8.997 -2.2764  1.4505  0.5053
  156SAPE  H13S17407   5.267   5.319   8.837  0.4215 -0.7746  0.0173
  156SAPE  C21417408   5.104   5.181   8.855  0.4446 -0.2410  0.0122
  156SAPE  H14R17409   5.008   5.160   8.905  0.3237 -2.1996 -0.9385
  156SAPE  C21517410   5.155   5.081   8.776 -0.0957  0.0973 -0.2313
  156SAPE  H15R17411   5.091   4.993   8.765 -0.7925  0.3934  1.1972
  156SAPE  C21617412   5.296   5.086   8.718 -0.4665 -0.0886 -0.3837
  156SAPE  H16R17413   5.362   5.006   8.758  0.4918 -0.4442 -2.5183
  156SAPE  H16S17414   5.354   5.177   8.744 -0.6335 -0.4587  1.3524
  156SAPE  C21717415   5.314   5.061   8.560  0.0932  0.3748  0.0157
  156SAPE  H17R17416   5.418   5.088   8.532  0.6832 -3.3281 -2.0187
  156SAPE  H17S17417   5.245   5.131   8.509 -0.2720  0.7108  0.9374
  156SAPE  C21817418   5.296   4.910   8.522 -0.3949 -0.1365 -0.1960
  156SAPE  H18R17419   5.198   4.872   8.558  0.2092 -0.3724  1.2587
  156SAPE  H18S17420   5.374   4.861   8.584  0.4027 -0.2685 -1.2817
  156SAPE  C21917421   5.294   4.882   8.371 -1.0619  0.1357  0.0920
  156SAPE  H19R17422   5.208   4.930   8.319 -0.4142 -0.0093 -1.1313
  156SAPE  H19S17423   5.290   4.772   8.364  0.1770  0.1363 -0.9671
  156SAPE  C22017424   5.418   4.932   8.296  0.1767  0.4087 -0.2040
  156SAPE  H20R17425   5.420   5.042   8.307 -0.1497  0.3427  0.6438
  156SAPE  H20S17426   5.419   4.905   8.188  1.2919  0.7099 -0.2790
  156SAPE  H20T17427   5.511   4.897   8.346  0.3703  0.9218 -0.2076
  156SAPE   C3317428   5.355   4.969   9.952  0.5126  0.0461  1.1001
  156SAPE   H3X17429   5.425   4.884   9.962  1.0232  0.1231 -1.3436
  156SAPE   H3Y17430   5.415   5.062   9.944 -1.2919  1.3878  2.3030
  156SAPE   C3417431   5.270   4.948   9.824  0.1037  0.0180 -0.5293
  156SAPE   H4X17432   5.187   5.021   9.823 -0.1482 -0.2562 -0.0634
  156SAPE   H4Y17433   5.226   4.846   9.825  1.1807 -0.4639 -0.5954
  156SAPE   C3517434   5.359   4.964   9.698 -0.1444  0.2472 -0.1470
  156SAPE   H5X17435   5.464   4.941   9.725 -0.2135  0.0694 -0.0275
  156SAPE   H5Y17436   5.352   5.068   9.659  0.5757  1.4836  2.7749
  156SAPE   C3617437   5.313   4.875   9.588  0.0663  0.2077  0.1484
  156SAPE   H6X17438   5.204   4.891   9.573  0.3664  2.2575 -0.1665
  156SAPE   H6Y17439   5.306   4.776   9.638 -1.7004  0.4530  0.4465
  156SAPE   C3717440   5.377   4.861   9.451 -0.1135  0.3006  0.2969
  156SAPE   H7X17441   5.482   4.825   9.455  0.2412  1.4005  1.2328
  156SAPE   H7Y17442   5.388   4.961   9.404 -1.3464  0.6751  0.7705
  156SAPE   C3817443   5.296   4.777   9.350  0.1957 -0.0420 -0.1933
  156SAPE   H8X17444   5.200   4.832   9.339  0.8440  0.8801 -1.5319
  156SAPE   H8Y17445   5.280   4.671   9.381 -2.5217  0.5695  0.6996
  156SAPE   C3917446   5.359   4.778   9.205  0.3542  0.7592  0.9930
  156SAPE   H9X17447   5.451   4.715   9.208  0.8884  1.5307  1.3179
  156SAPE   H9Y17448   5.393   4.881   9.182 -1.0201  0.5846 -2.3556
  156SAPE  C31017449   5.279   4.735   9.082 -0.0395 -0.6461  0.2137
  156SAPE  H10X17450   5.197   4.807   9.064 -0.3000 -0.8049  0.7406
  156SAPE  H10Y17451   5.254   4.629   9.108  0.2931 -0.7324  0.1874
  156SAPE  C31117452   5.367   4.731   8.959 -0.1111  0.5191  0.4809
  156SAPE  H11X17453   5.462   4.674   8.966  0.5254  1.6988  1.9163
  156SAPE  H11Y17454   5.402   4.833   8.933 -1.2998  0.7662 -0.1987
  156SAPE  C31217455   5.298   4.684   8.833  0.1732 -0.9054 -0.4832
  156SAPE  H12X17456   5.361   4.708   8.745 -2.5392  1.5886 -1.9255
  156SAPE  H12Y17457   5.205   4.742   8.814  0.7648  0.8191  1.5157
  156SAPE  C31317458   5.273   4.534   8.839 -0.3678 -0.1595 -0.2192
  156SAPE  H13X17459   5.219   4.512   8.934  0.6841 -1.3313  0.1343
  156SAPE  H13Y17460   5.366   4.473   8.836 -0.0209  0.3989 -1.6745
  156SAPE  C31417461   5.199   4.473   8.724  0.1543  0.1329  0.1539
  156SAPE  H14X17462   5.099   4.522   8.715 -1.2835 -2.6674 -0.1681
  156SAPE  H14Y17463   5.175   4.372   8.764 -0.4007  0.4503  0.6488
  156SAPE  C31517464   5.286   4.467   8.600  0.0094  0.3446  0.2226
  156SAPE  H15X17465   5.363   4.388   8.615 -0.2999  0.2064  1.1099
  156SAPE  H15Y17466   5.335   4.564   8.580  0.9748  0.2017  1.7355
  156SAPE  C31617467   5.198   4.417   8.482 -0.3701 -0.1161  0.3056
  156SAPE  H16X17468   5.106   4.479   8.482  1.1533  2.3080  1.5406
  156SAPE  H16Y17469   5.167   4.313   8.506  0.8285 -0.7129 -0.6256
  156SAPE  C31717470   5.261   4.428   8.346 -0.2860 -0.1360 -0.2039
  156SAPE  H17X17471   5.268   4.529   8.301  1.0941  0.9926  2.2751
  156SAPE  H17Y17472   5.201   4.365   8.278  0.0394 -1.2187  0.4750
  156SAPE  C31817473   5.399   4.363   8.340  1.2405 -0.3014  0.0802
  156SAPE  H18X17474   5.458   4.402   8.425 -0.8461  0.3193  1.3081
  156SAPE  H18Y17475   5.448   4.377   8.241  0.7652 -0.6462 -0.2109
  156SAPE  H18Z17476   5.408   4.253   8.352  0.4199 -0.3644  0.1999
  157SAPE     N17477   6.181   5.617  10.954  0.5330  0.5808 -0.5849
  157SAPE   HN117478   6.178   5.627  11.058  1.3139  2.5510 -0.7034
  157SAPE   HN217479   6.086   5.639  10.917 -0.1772  0.9400  1.3166
  157SAPE   HN317480   6.197   5.515  10.959  2.4071  0.7844 -1.6932
  157SAPE   C1217481   6.303   5.682  10.890 -0.3719  0.4700 -0.2315
  157SAPE  H12A17482   6.268   5.787  10.877 -3.5665 -0.6173 -1.4318
  157SAPE  H12B17483   6.314   5.645  10.786  1.4737 -0.3182  0.2050
  157SAPE   C1117484   6.425   5.656  10.976 -0.1713  0.1424 -0.2495
  157SAPE  H11A17485   6.388   5.686  11.076  0.1032  0.2764 -0.1870
  157SAPE  H11B17486   6.504   5.725  10.940  1.0122 -0.9223  0.1943
  157SAPE     P17487   6.553   5.463  10.853 -0.2780  0.0271 -0.4389
  157SAPE   O1317488   6.693   5.442  10.893 -0.0082  0.6447 -0.2218
  157SAPE   O1417489   6.479   5.338  10.809 -0.9163 -0.5714  0.2294
  157SAPE   O1217490   6.479   5.523  10.983  0.2880 -0.6361 -0.2169
  157SAPE   O1117491   6.542   5.566  10.743  0.2942 -0.1094 -0.4562
  157SAPE    C117492   6.651   5.631  10.682 -0.7088  0.0800 -0.4929
  157SAPE    HA17493   6.700   5.701  10.753 -0.9055 -0.2684 -0.0115
  157SAPE    HB17494   6.730   5.558  10.655  0.0434  0.8479 -0.4074
  157SAPE    C217495   6.603   5.707  10.560 -0.3163  0.0643 -0.6756
  157SAPE    HS17496   6.520   5.769  10.600 -2.5146 -2.3687 -1.1477
  157SAPE   O2117497   6.565   5.624  10.452 -0.3369  0.8674 -0.4593
  157SAPE   C2117498   6.436   5.591  10.451  0.4285 -0.3969  0.9164
  157SAPE   O2217499   6.344   5.641  10.515 -0.5596  0.4054  0.3843
  157SAPE   C2217500   6.420   5.495  10.334 -0.5411 -0.1937 -0.6442
  157SAPE   H2R17501   6.518   5.472  10.289 -2.3200 -1.0323 -4.5437
  157SAPE   H2S17502   6.381   5.400  10.378  1.8231 -0.4076  1.1991
  157SAPE    C317503   6.710   5.819  10.517 -0.4472 -0.0667  0.1120
  157SAPE    HX17504   6.809   5.770  10.510 -0.4441  0.0577 -0.8599
  157SAPE    HY17505   6.721   5.899  10.594  1.7903  0.7100 -0.9306
  157SAPE   O3117506   6.688   5.886  10.391  0.3401  0.0708  0.4084
  157SAPE   C3117507   6.751   5.829  10.282 -0.0521  0.1370  0.0246
  157SAPE   O3217508   6.810   5.723  10.287 -0.4831 -0.1536 -0.4884
  157SAPE   C3217509   6.727   5.913  10.159  0.3998 -0.4212 -0.0050
  157SAPE   H2X17510   6.827   5.959  10.141  0.6839 -0.2621  1.7847
  157SAPE   H2Y17511   6.649   5.986  10.191 -1.4506 -1.4678 -1.9159
  157SAPE   C2317512   6.327   5.540  10.220 -0.2184  0.1943 -0.3846
  157SAPE   H3R17513   6.366   5.635  10.177  1.5031 -0.4952 -0.4293
  157SAPE   H3S17514   6.227   5.556  10.264 -0.4075 -0.9389 -0.3736
  157SAPE   C2417515   6.313   5.442  10.107  1.2180 -0.4531  0.8062
  157SAPE   H4R17516   6.415   5.438  10.065  1.1593  0.8973  0.4913
  157SAPE   H4S17517   6.246   5.490  10.032  0.3314 -2.6014  0.1209
  157SAPE   C2517518   6.246   5.309  10.141 -0.6052 -0.4972  0.4261
  157SAPE   H5R17519   6.150   5.315  10.196 -0.6096  0.7390  0.3109
  157SAPE   C2617520   6.303   5.190  10.136 -0.6374  0.1802  0.1650
  157SAPE   H6R17521   6.228   5.111  10.153 -1.1565  0.2533 -1.6028
  157SAPE   C2717522   6.442   5.143  10.094  0.2429  0.3868 -0.2464
  157SAPE   H7R17523   6.494   5.087  10.175  1.4132 -1.9373 -2.4441
  157SAPE   H7S17524   6.511   5.225  10.066  0.0011  0.7985  0.3529
  157SAPE   C2817525   6.434   5.038   9.983 -0.0803 -0.4077  0.3052
  157SAPE   H8R17526   6.432   4.935  10.020 -1.8668 -0.9437 -1.1471
  157SAPE   C2917527   6.437   5.062   9.849  0.1890  0.7614 -0.3032
  157SAPE   H9R17528   6.420   4.974   9.785  0.7967 -1.0368  1.8577
  157SAPE  C21017529   6.440   5.207   9.794  0.1496  0.2846 -0.2526
  157SAPE  H10R17530   6.520   5.218   9.718 -0.3773 -1.6493 -1.1513
  157SAPE  H10S17531   6.475   5.278   9.873  3.2223 -0.5617 -0.7169
  157SAPE  C21117532   6.302   5.249   9.769 -0.1098  0.4627 -0.4135
  157SAPE  H11R17533   6.234   5.247   9.855  2.1463  1.1588  1.5101
  157SAPE  C21217534   6.249   5.267   9.648 -0.0817 -0.1618 -0.6308
  157SAPE  H12R17535   6.145   5.301   9.648  0.2470  0.9250  0.7647
  157SAPE  C21317536   6.320   5.270   9.514 -0.3517 -0.2331  0.8037
  157SAPE  H13R17537   6.282   5.180   9.460 -0.3263  0.2598 -0.0570
  157SAPE  H13S17538   6.429   5.249   9.525 -0.5965 -1.7314  0.5306
  157SAPE  C21417539   6.281   5.388   9.426  0.0696 -0.6006  0.3549
  157SAPE  H14R17540   6.317   5.483   9.468 -0.5427 -0.5087  0.6803
  157SAPE  C21517541   6.216   5.391   9.308  0.5164 -0.2987  0.1726
  157SAPE  H15R17542   6.181   5.483   9.258  2.0015  0.0981 -0.1687
  157SAPE  C21617543   6.169   5.277   9.231  0.0870 -0.0831  0.0343
  157SAPE  H16R17544   6.064   5.288   9.197 -0.3915 -1.4960  0.9267
  157SAPE  H16S17545   6.158   5.188   9.297  0.1230  0.2007  0.4243
  157SAPE  C21717546   6.280   5.240   9.127  0.4875  0.1636 -0.1414
  157SAPE  H17R17547   6.266   5.135   9.093 -1.0967 -0.3711  1.9474
  157SAPE  H17S17548   6.378   5.252   9.179  0.9253 -1.7326 -0.4201
  157SAPE  C21817549   6.280   5.321   9.001 -0.0068 -0.3894  0.6363
  157SAPE  H18R17550   6.365   5.308   8.931 -0.9515  1.6347 -0.9869
  157SAPE  H18S17551   6.295   5.426   9.032 -0.1597 -0.3590  0.6088
  157SAPE  C21917552   6.155   5.308   8.912 -0.5764 -0.3545  0.2938
  157SAPE  H19R17553   6.080   5.370   8.966  3.5152  4.5488  1.1434
  157SAPE  H19S17554   6.120   5.203   8.902 -3.2676  0.5869 -0.9586
  157SAPE  C22017555   6.173   5.378   8.776  0.2940  0.3450  0.2243
  157SAPE  H20R17556   6.271   5.348   8.733  0.8378  2.6251 -0.2199
  157SAPE  H20S17557   6.169   5.487   8.797 -2.9146  0.8559 -2.1678
  157SAPE  H20T17558   6.092   5.343   8.708  0.5352 -0.4398  0.3232
  157SAPE   C3317559   6.680   5.842  10.029 -0.5614  0.0852  0.4536
  157SAPE   H3X17560   6.586   5.785  10.043 -0.5028 -0.5158 -1.3677
  157SAPE   H3Y17561   6.753   5.764   9.999 -0.0855  0.1992  1.2747
  157SAPE   C3417562   6.656   5.939   9.912  0.7432  0.0521 -0.0635
  157SAPE   H4X17563   6.737   6.015   9.909  0.9505 -0.1903 -0.9293
  157SAPE   H4Y17564   6.556   5.984   9.934 -0.9139 -2.3236 -2.2238
  157SAPE   C3517565   6.639   5.866   9.776  0.3706  0.6299  0.8143
  157SAPE   H5X17566   6.547   5.804   9.774  1.1095 -0.5021  0.7105
  157SAPE   H5Y17567   6.710   5.782   9.761 -2.4481 -2.4378  3.0357
  157SAPE   C3617568   6.617   5.959   9.654  0.0957 -0.4291  0.1038
  157SAPE   H6X17569   6.705   6.025   9.645  0.1602 -0.4661  0.4338
  157SAPE   H6Y17570   6.528   6.023   9.675  2.4024  2.2297  2.6172
  157SAPE   C3717571   6.605   5.883   9.518 -0.1869  0.4171 -0.1455
  157SAPE   H7X17572   6.706   5.841   9.495 -0.7595 -0.1442 -1.7623
  157SAPE   H7Y17573   6.580   5.960   9.442 -1.6311 -0.7261 -0.8829
  157SAPE   C3817574   6.502   5.777   9.509  0.6614  0.0892 -0.5398
  157SAPE   H8X17575   6.404   5.827   9.523  1.5885  1.6204  0.7880
  157SAPE   H8Y17576   6.524   5.701   9.588 -2.0024 -0.8675 -0.6313
  157SAPE   C3917577   6.496   5.699   9.383 -1.0057 -0.2705 -0.5671
  157SAPE   H9X17578   6.405   5.636   9.378 -1.5586  0.5810 -2.8412
  157SAPE   H9Y17579   6.586   5.634   9.379  0.9466  2.1585  1.0253
  157SAPE  C31017580   6.500   5.776   9.254  0.7259  0.8237 -0.2860
  157SAPE  H10X17581   6.599   5.825   9.246  1.1042  0.1465  0.1790
  157SAPE  H10Y17582   6.430   5.862   9.251  0.2700  0.4573 -3.2038
  157SAPE  C31117583   6.465   5.698   9.131  0.6153 -0.6615  0.3558
  157SAPE  H11X17584   6.369   5.644   9.147  1.5817 -1.7830  2.9720
  157SAPE  H11Y17585   6.552   5.630   9.120  1.2565  0.1943  0.0311
  157SAPE  C31217586   6.463   5.781   9.005 -0.2562  0.6031  0.1473
  157SAPE  H12X17587   6.568   5.813   8.991  1.1693 -3.5701 -0.2362
  157SAPE  H12Y17588   6.384   5.859   9.017 -0.5024  0.7540 -2.0849
  157SAPE  C31317589   6.422   5.696   8.880  0.1519 -0.0478  0.9582
  157SAPE  H13X17590   6.314   5.675   8.892 -0.1416  2.1858  2.9261
  157SAPE  H13Y17591   6.474   5.598   8.889 -0.3040 -0.4061 -0.1520
  157SAPE  C31417592   6.463   5.764   8.745 -0.2100  0.0826 -0.4450
  157SAPE  H14X17593   6.570   5.743   8.729 -0.8760 -1.9617 -2.8067
  157SAPE  H14Y17594   6.440   5.873   8.738 -0.1520  0.1028 -0.3276
  157SAPE  C31517595   6.384   5.681   8.637 -0.1229 -0.1921 -0.0774
  157SAPE  H15X17596   6.280   5.708   8.664  0.5748  2.0075  0.6167
  157SAPE  H15Y17597   6.410   5.573   8.646 -0.7843 -0.3810 -0.4109
  157SAPE  C31617598   6.406   5.744   8.500  0.2852  0.2437 -0.1291
  157SAPE  H16X17599   6.512   5.736   8.469  0.5366 -0.3920  0.8216
  157SAPE  H16Y17600   6.379   5.851   8.495 -1.1897  0.0989  2.6432
  157SAPE  C31717601   6.329   5.667   8.395  0.2064 -0.0070  0.4221
  157SAPE  H17X17602   6.218   5.673   8.402  0.2528  1.2402  0.2968
  157SAPE  H17Y17603   6.345   5.559   8.417 -0.6047  0.2071  2.2785
  157SAPE  C31817604   6.360   5.700   8.250 -0.6911 -0.0477 -0.2331
  157SAPE  H18X17605   6.355   5.810   8.232  0.3264  0.4100  1.9683
  157SAPE  H18Y17606   6.277   5.650   8.196  0.3486 -2.2910  0.1402
  157SAPE  H18Z17607   6.451   5.653   8.206 -1.5905 -0.7490 -1.4165
  158SAPE     N17608   0.282   4.031  10.526 -0.3331  0.9043  0.1181
  158SAPE   HN117609   0.220   3.989  10.454  0.9705 -0.7500 -0.1198
  158SAPE   HN217610   0.372   4.059  10.481  1.5233 -2.7784  1.1579
  158SAPE   HN317611   0.306   3.959  10.597  0.1457 -0.3027 -1.2201
  158SAPE   C1217612   0.212   4.142  10.595 -0.1922  0.1627 -0.2428
  158SAPE  H12A17613   0.279   4.178  10.676 -0.9718 -2.3631  1.6429
  158SAPE  H12B17614   0.114   4.113  10.638 -0.9170  0.7978 -1.4268
  158SAPE   C1117615   0.194   4.253  10.492  0.1620 -0.3267  1.4629
  158SAPE  H11A17616   0.117   4.217  10.420  1.3321  1.7405 -0.9752
  158SAPE  H11B17617   0.282   4.262  10.425 -0.6314 -0.3424  0.3895
  158SAPE     P17618   0.023   4.458  10.521  0.3129  0.0529 -0.3576
  158SAPE   O1317619  -0.091   4.364  10.533 -0.0373  0.0215 -0.1412
  158SAPE   O1417620   0.015   4.569  10.621  0.5197  0.9573  0.2422
  158SAPE   O1217621   0.162   4.382  10.545 -0.1901 -0.0752 -0.3744
  158SAPE   O1117622   0.035   4.519  10.378 -0.3225 -0.6465 -0.4958
  158SAPE    C117623  -0.060   4.523  10.279 -0.2319 -0.0186  0.7725
  158SAPE    HA17624  -0.166   4.545  10.306 -0.2939  0.5810  0.0941
  158SAPE    HB17625  -0.035   4.607  10.211  2.5636 -1.6130 -0.2815
  158SAPE    C217626  -0.049   4.393  10.201  0.2233  0.4490  0.4203
  158SAPE    HS17627  -0.021   4.308  10.267 -0.1711 -0.3239 -0.3873
  158SAPE   O2117628   0.052   4.412  10.096  0.2257  0.5584  0.0249
  158SAPE   C2117629   0.093   4.298  10.046 -0.3073 -0.4853 -0.4439
  158SAPE   O2217630   0.056   4.183  10.065  0.4449 -0.4253 -0.0023
  158SAPE   C2217631   0.220   4.321   9.955 -0.0580  0.1283  0.0786
  158SAPE   H2R17632   0.179   4.385   9.874  1.9158  1.7961  0.3105
  158SAPE   H2S17633   0.290   4.370  10.026  0.2293 -2.2854  1.5684
  158SAPE    C317634  -0.187   4.343  10.141  0.8913 -0.5188 -0.6029
  158SAPE    HX17635  -0.257   4.323  10.225  0.1574 -0.4590 -1.1877
  158SAPE    HY17636  -0.181   4.253  10.076 -2.3435  1.6995 -4.3845
  158SAPE   O3117637  -0.242   4.454  10.070 -0.2058  0.0358  0.6312
  158SAPE   C3117638  -0.191   4.471   9.953  0.2780  0.5340 -0.4497
  158SAPE   O3217639  -0.143   4.379   9.889 -0.2780 -0.2800 -0.2646
  158SAPE   C3217640  -0.217   4.620   9.920 -0.3339 -0.2215  0.7502
  158SAPE   H2X17641  -0.166   4.685   9.994 -1.1123 -0.3848  1.4493
  158SAPE   H2Y17642  -0.326   4.638   9.920 -0.1137  2.3822 -3.0171
  158SAPE   C2317643   0.284   4.190   9.894 -0.2663 -0.4935 -0.3970
  158SAPE   H3R17644   0.206   4.143   9.831 -2.2123  1.3644  0.4515
  158SAPE   H3S17645   0.292   4.130   9.987  0.4536 -3.0842 -2.0448
  158SAPE   C2417646   0.431   4.203   9.845 -0.1679 -0.9511 -0.0622
  158SAPE   H4R17647   0.458   4.098   9.822  0.3532 -0.9454  0.4958
  158SAPE   H4S17648   0.492   4.251   9.925  1.6667 -1.2001 -1.2546
  158SAPE   C2517649   0.442   4.288   9.723  0.4689  0.6130  0.2420
  158SAPE   H5R17650   0.412   4.394   9.733 -2.2697 -0.0793  0.2617
  158SAPE   C2617651   0.500   4.256   9.606  0.4287 -0.1108 -0.4982
  158SAPE   H6R17652   0.493   4.321   9.518  1.8271  0.2402 -0.3726
  158SAPE   C2717653   0.568   4.128   9.582 -0.0567  0.7532  0.3601
  158SAPE   H7R17654   0.631   4.091   9.666 -3.4101  0.5563  2.9891
  158SAPE   H7S17655   0.655   4.137   9.514 -0.0479 -2.6755 -0.2509
  158SAPE   C2817656   0.480   4.012   9.536 -0.9337  0.0250  0.2772
  158SAPE   H8R17657   0.416   3.970   9.616 -0.4972 -1.8671 -0.3352
  158SAPE   C2917658   0.477   3.965   9.408  0.4905 -0.2344  0.8026
  158SAPE   H9R17659   0.423   3.873   9.385 -1.3787  1.2232 -1.0452
  158SAPE  C21017660   0.565   4.005   9.290  0.2629 -0.5444  0.3437
  158SAPE  H10R17661   0.656   3.941   9.290  0.4775 -0.2468  0.6524
  158SAPE  H10S17662   0.616   4.102   9.309 -0.1432 -0.6372  2.0045
  158SAPE  C21117663   0.494   4.009   9.155 -0.2492 -0.3407  0.4579
  158SAPE  H11R17664   0.406   3.946   9.136  0.6842 -1.2347 -1.2492
  158SAPE  C21217665   0.535   4.088   9.051  0.0484 -0.7606 -0.3331
  158SAPE  H12R17666   0.474   4.085   8.959  4.5323  0.3332 -3.7303
  158SAPE  C21317667   0.659   4.181   9.041  0.4624  0.3134 -0.0385
  158SAPE  H13R17668   0.691   4.221   9.140 -1.3372  1.6419  0.0578
  158SAPE  H13S17669   0.635   4.275   8.987 -2.0520  1.2558  2.4613
  158SAPE  C21417670   0.782   4.091   9.002  0.2839  0.0748 -0.4001
  158SAPE  H14R17671   0.853   4.069   9.083  0.1606 -0.4035 -0.4185
  158SAPE  C21517672   0.812   4.075   8.873  0.4796  0.5295 -0.0025
  158SAPE  H15R17673   0.898   4.009   8.852 -0.2955 -1.0693  1.5564
  158SAPE  C21617674   0.726   4.119   8.749 -0.3417  0.8233 -0.4148
  158SAPE  H16R17675   0.635   4.175   8.781 -0.2551  0.4539  0.4957
  158SAPE  H16S17676   0.682   4.029   8.701  0.6304 -0.2935  0.7179
  158SAPE  C21717677   0.802   4.204   8.643  0.2374 -0.2047 -0.1174
  158SAPE  H17R17678   0.731   4.214   8.558  0.4158 -0.0432 -0.2444
  158SAPE  H17S17679   0.885   4.143   8.602 -0.9814 -3.0110  1.2318
  158SAPE  C21817680   0.853   4.336   8.699  0.6714 -0.1640 -0.3791
  158SAPE  H18R17681   0.899   4.321   8.799  0.8688 -0.2371 -0.4800
  158SAPE  H18S17682   0.777   4.417   8.708  1.0917  0.1554  0.4255
  158SAPE  C21917683   0.948   4.390   8.591  0.1553 -0.1552 -0.8658
  158SAPE  H19R17684   0.876   4.403   8.507 -1.1387  1.5417  0.4145
  158SAPE  H19S17685   1.022   4.318   8.551 -1.9387 -1.6761 -2.2075
  158SAPE  C22017686   0.996   4.522   8.630 -0.1751 -0.1892  0.5632
  158SAPE  H20R17687   0.928   4.610   8.635  2.6735  2.1193  2.0735
  158SAPE  H20S17688   1.067   4.564   8.556 -1.4439  0.9242 -0.0680
  158SAPE  H20T17689   1.051   4.519   8.727  2.4847 -1.8287 -0.8640
  158SAPE   C3317690  -0.159   4.646   9.772 -0.4534 -0.2522  0.1054
  158SAPE   H3X17691  -0.176   4.558   9.706  0.9864  0.9165 -1.9286
  158SAPE   H3Y17692  -0.048   4.655   9.771 -0.3700 -1.1780 -0.1336
  158SAPE   C3417693  -0.209   4.778   9.704  0.2069  0.2748 -0.4276
  158SAPE   H4X17694  -0.163   4.855   9.771  2.7502 -1.3539 -0.1679
  158SAPE   H4Y17695  -0.320   4.784   9.714  0.4007  0.8260  2.4636
  158SAPE   C3517696  -0.171   4.800   9.559 -0.5688 -0.1875 -0.2814
  158SAPE   H5X17697  -0.124   4.704   9.529  0.4986 -0.0551  0.9101
  158SAPE   H5Y17698  -0.095   4.880   9.549  1.0666 -1.6951 -0.2936
  158SAPE   C3617699  -0.303   4.828   9.474 -0.4852 -0.9236 -0.5273
  158SAPE   H6X17700  -0.344   4.928   9.501  0.9234 -0.5705  0.4401
  158SAPE   H6Y17701  -0.389   4.761   9.495  0.5627 -1.4598  2.8044
  158SAPE   C3717702  -0.259   4.825   9.327 -0.0918  0.5294 -0.1972
  158SAPE   H7X17703  -0.196   4.734   9.314 -1.1702 -0.9995  3.7781
  158SAPE   H7Y17704  -0.175   4.897   9.316  1.4132 -1.0027  0.7062
  158SAPE   C3817705  -0.362   4.832   9.216 -0.0265 -0.1157 -0.1620
  158SAPE   H8X17706  -0.431   4.913   9.250  1.3529  0.9949  0.0690
  158SAPE   H8Y17707  -0.425   4.741   9.203 -0.2450  0.0789 -0.4882
  158SAPE   C3917708  -0.304   4.857   9.074 -0.0875  0.0337 -0.0493
  158SAPE   H9X17709  -0.246   4.766   9.050  1.1085  0.5939  0.5841
  158SAPE   H9Y17710  -0.232   4.942   9.076  0.4018 -0.3191 -1.5231
  158SAPE  C31017711  -0.416   4.892   8.977  0.1802  0.5037 -0.1948
  158SAPE  H10X17712  -0.500   4.956   9.012  0.5667  0.7936  0.2111
  158SAPE  H10Y17713  -0.459   4.797   8.938  0.6157  1.5416 -3.5107
  158SAPE  C31117714  -0.362   4.982   8.865 -0.3010  0.2170  0.0484
  158SAPE  H11X17715  -0.256   4.956   8.847 -0.2763 -0.3983  1.0575
  158SAPE  H11Y17716  -0.378   5.088   8.894 -0.9057  0.1698 -0.0832
  158SAPE  C31217717  -0.419   4.964   8.728 -0.2530 -0.3101 -0.1488
  158SAPE  H12X17718  -0.530   4.975   8.726 -0.3167 -0.9007  0.0230
  158SAPE  H12Y17719  -0.396   4.859   8.702 -1.1978 -0.6864  0.4683
  158SAPE  C31317720  -0.359   5.056   8.615 -0.2322  0.2386 -0.9091
  158SAPE  H13X17721  -0.248   5.060   8.615 -0.1469  3.0406  2.6111
  158SAPE  H13Y17722  -0.392   5.158   8.645 -0.7287 -0.0877 -0.3278
  158SAPE  C31417723  -0.411   5.029   8.474  0.1916 -0.1072  0.5789
  158SAPE  H14X17724  -0.518   5.008   8.497  0.4683  1.2536  3.5586
  158SAPE  H14Y17725  -0.364   4.937   8.433  0.2600  0.3835 -0.4925
  158SAPE  C31517726  -0.391   5.142   8.370 -0.4717 -0.6031 -1.1949
  158SAPE  H15X17727  -0.381   5.096   8.269 -0.1617 -0.1680 -1.3636
  158SAPE  H15Y17728  -0.294   5.195   8.383  0.9812 -2.3252 -3.9273
  158SAPE  C31617729  -0.505   5.252   8.368  0.2500 -0.2805 -0.4038
  158SAPE  H16X17730  -0.471   5.327   8.442  0.5681 -0.4387 -0.3875
  158SAPE  H16Y17731  -0.598   5.200   8.401  0.4424 -0.0046  0.6052
  158SAPE  C31717732  -0.527   5.302   8.220 -0.4869  0.2003 -0.2115
  158SAPE  H17X17733  -0.611   5.373   8.210 -1.3089 -0.8256 -0.8135
  158SAPE  H17Y17734  -0.558   5.212   8.162 -1.0061 -0.4108  0.9710
  158SAPE  C31817735  -0.401   5.358   8.153 -0.6733 -0.2180  0.7847
  158SAPE  H18X17736  -0.331   5.409   8.223  0.4519  1.2123 -1.2804
  158SAPE  H18Y17737  -0.413   5.421   8.063  1.1606 -1.7870 -0.6538
  158SAPE  H18Z17738  -0.348   5.268   8.114 -1.3085 -0.9522  1.5577
  159SAPE     N17739   5.172   0.330   6.320 -0.2319  0.2294  0.3015
  159SAPE   HN117740   5.166   0.430   6.293 -0.2989  0.2086  0.2424
  159SAPE   HN217741   5.163   0.275   6.233 -0.3468 -0.6873  0.8859
  159SAPE   HN317742   5.087   0.294   6.367 -0.5845 -0.5138 -0.8908
  159SAPE   C1217743   5.291   0.302   6.406  0.0623  0.2181 -0.8472
  159SAPE  H12A17744   5.290   0.198   6.445 -2.9023  0.8982  1.2587
  159SAPE  H12B17745   5.275   0.369   6.493 -2.5343  4.5597 -4.2527
  159SAPE   C1117746   5.423   0.320   6.326  0.1752  0.1084  0.5793
  159SAPE  H11A17747   5.429   0.242   6.247 -1.7083 -0.7725  1.2568
  159SAPE  H11B17748   5.503   0.300   6.400  0.4154  0.2867  0.3708
  159SAPE     P17749   5.433   0.590   6.341  0.0833  0.0163 -0.1116
  159SAPE   O1317750   5.468   0.696   6.242  0.1647  0.5585  0.1533
  159SAPE   O1417751   5.301   0.605   6.414 -0.0574  0.3073  0.2091
  159SAPE   O1217752   5.436   0.450   6.262  0.5061 -0.6500  0.1096
  159SAPE   O1117753   5.547   0.578   6.440 -0.4050 -0.5032 -0.9147
  159SAPE    C117754   5.682   0.535   6.406  0.3518 -0.4116  0.1354
  159SAPE    HA17755   5.691   0.434   6.361 -2.0524 -0.6150 -0.0535
  159SAPE    HB17756   5.733   0.613   6.345  1.8438 -1.5362 -0.1042
  159SAPE    C217757   5.759   0.521   6.542 -0.6477 -0.3705  0.4403
  159SAPE    HS17758   5.868   0.499   6.531 -0.0264  2.1891  0.8288
  159SAPE   O2117759   5.702   0.416   6.628 -0.3808 -0.1526  0.1902
  159SAPE   C2117760   5.751   0.298   6.600 -0.0242  0.2314 -0.0928
  159SAPE   O2217761   5.838   0.272   6.519  0.5516 -0.3768  0.2389
  159SAPE   C2217762   5.663   0.195   6.665  0.0357 -0.4155  0.4113
  159SAPE   H2R17763   5.599   0.226   6.750  0.3727 -3.0333  1.7321
  159SAPE   H2S17764   5.596   0.164   6.581  1.0894  2.8065 -1.8150
  159SAPE    C317765   5.760   0.648   6.627  0.2864 -0.4397 -0.0521
  159SAPE    HX17766   5.662   0.678   6.671  0.8425  2.1561 -0.4300
  159SAPE    HY17767   5.782   0.735   6.561  0.7140 -0.5089 -0.0027
  159SAPE   O3117768   5.868   0.646   6.721  0.1311 -0.4509 -0.3964
  159SAPE   C3117769   5.843   0.661   6.846 -0.0438  0.6281 -0.9967
  159SAPE   O3217770   5.731   0.649   6.901  0.1804  0.3353 -0.3377
  159SAPE   C3217771   5.980   0.663   6.922 -0.0849  0.3207  0.2590
  159SAPE   H2X17772   6.056   0.715   6.860 -0.5929  0.7584 -0.0069
  159SAPE   H2Y17773   6.008   0.555   6.923 -1.8027 -0.1614 -0.2839
  159SAPE   C2317774   5.748   0.079   6.724  0.0255  0.1406  0.7199
  159SAPE   H3R17775   5.829   0.054   6.652  1.9134 -0.1821  2.8402
  159SAPE   H3S17776   5.693  -0.017   6.724 -0.1128  0.1705 -1.4461
  159SAPE   C2417777   5.813   0.103   6.861  0.2453  0.7276  0.3966
  159SAPE   H4R17778   5.719   0.125   6.917 -0.8349  1.0662 -1.4582
  159SAPE   H4S17779   5.869   0.198   6.856  0.0671  0.7941 -0.5458
  159SAPE   C2517780   5.892  -0.018   6.917  0.6864 -0.4063  0.3370
  159SAPE   H5R17781   5.999  -0.030   6.899  0.6188 -0.7884  0.1875
  159SAPE   C2617782   5.833  -0.114   6.993 -0.2298 -0.0763 -0.0159
  159SAPE   H6R17783   5.888  -0.199   7.036 -0.8897 -0.1635  0.6721
  159SAPE   C2717784   5.687  -0.105   7.042  0.7721 -0.3338  0.0685
  159SAPE   H7R17785   5.644  -0.208   7.043 -1.1718  0.1520 -4.6742
  159SAPE   H7S17786   5.619  -0.065   6.964  1.0597 -1.2803 -0.6930
  159SAPE   C2817787   5.668  -0.032   7.173 -0.3263  0.1133  0.5173
  159SAPE   H8R17788   5.672   0.077   7.167  0.3036  0.0927  0.5001
  159SAPE   C2917789   5.645  -0.093   7.293  0.7023 -0.4634  0.4513
  159SAPE   H9R17790   5.651  -0.032   7.384 -0.9484  2.2717 -1.1559
  159SAPE  C21017791   5.633  -0.238   7.329 -0.4087 -0.3292  0.5118
  159SAPE  H10R17792   5.734  -0.283   7.335  0.2485  1.1974  1.6691
  159SAPE  H10S17793   5.581  -0.285   7.242 -1.8215  1.8254  0.1206
  159SAPE  C21117794   5.556  -0.280   7.449  0.2898  0.0856 -0.2359
  159SAPE  H11R17795   5.466  -0.342   7.437  1.4001 -1.3586 -1.5092
  159SAPE  C21217796   5.602  -0.257   7.572 -0.4640  0.6966  0.0948
  159SAPE  H12R17797   5.542  -0.287   7.659  0.5969 -0.0777  0.5765
  159SAPE  C21317798   5.734  -0.198   7.612  0.4685  0.0491  0.5400
  159SAPE  H13R17799   5.762  -0.114   7.544 -0.5345 -1.1336 -1.4337
  159SAPE  H13S17800   5.828  -0.254   7.592  1.8803  1.9712  1.4491
  159SAPE  C21417801   5.744  -0.156   7.756 -0.3284 -0.3748 -0.2363
  159SAPE  H14R17802   5.835  -0.189   7.808  1.1553  1.3209 -1.6296
  159SAPE  C21517803   5.689  -0.038   7.792  0.0157 -0.2352  0.0723
  159SAPE  H15R17804   5.725   0.011   7.884 -0.1843 -0.8481  0.4825
  159SAPE  C21617805   5.609   0.053   7.702 -0.4046  0.9670 -0.2885
  159SAPE  H16R17806   5.523   0.099   7.755 -0.3880  0.5485  0.1059
  159SAPE  H16S17807   5.561  -0.003   7.618 -3.0492 -1.8635  2.8409
  159SAPE  C21717808   5.684   0.156   7.620 -0.1186 -0.7066  0.1207
  159SAPE  H17R17809   5.761   0.101   7.562  3.4669 -0.2839  4.0151
  159SAPE  H17S17810   5.739   0.226   7.687  2.0684 -3.0044  0.8508
  159SAPE  C21817811   5.597   0.231   7.528  1.1253 -0.2906  0.1211
  159SAPE  H18R17812   5.525   0.299   7.579  0.3383 -1.0037 -0.0154
  159SAPE  H18S17813   5.535   0.168   7.462  0.3654 -0.7129  1.2082
  159SAPE  C21917814   5.678   0.317   7.422  0.0640  0.0166  0.1199
  159SAPE  H19R17815   5.611   0.361   7.345  3.3453 -0.0693 -3.0579
  159SAPE  H19S17816   5.752   0.242   7.386  0.2721  0.6904 -0.8728
  159SAPE  C22017817   5.767   0.429   7.472 -1.2808 -0.6035  0.1490
  159SAPE  H20R17818   5.842   0.379   7.537 -1.7319 -2.9487 -1.0615
  159SAPE  H20S17819   5.700   0.499   7.527 -1.5150 -0.5286 -0.2297
  159SAPE  H20T17820   5.826   0.470   7.387  2.9526 -2.3984  1.9462
  159SAPE   C3317821   5.981   0.730   7.061  0.9514  0.5131 -0.5900
  159SAPE   H3X17822   5.898   0.674   7.109  0.0676  0.7033 -1.8335
  159SAPE   H3Y17823   5.944   0.835   7.051 -0.1472  0.0694 -1.3374
  159SAPE   C3417824   6.106   0.718   7.150  0.1659 -0.1337 -0.6950
  159SAPE   H4X17825   6.174   0.806   7.155  0.3406 -0.3410  1.9513
  159SAPE   H4Y17826   6.180   0.642   7.115 -0.6514 -0.4140 -1.8565
  159SAPE   C3517827   6.074   0.678   7.296  0.5148  0.0947  0.2131
  159SAPE   H5X17828   5.983   0.614   7.292 -0.0407  0.8233  0.7496
  159SAPE   H5Y17829   6.034   0.770   7.345 -0.5540  1.2231 -2.5575
  159SAPE   C3617830   6.182   0.621   7.380 -0.8418  0.4155  0.6060
  159SAPE   H6X17831   6.263   0.696   7.378 -0.9703  0.7640  3.5024
  159SAPE   H6Y17832   6.220   0.522   7.350  0.0915  0.7088  0.8033
  159SAPE   C3717833   6.155   0.593   7.532 -0.2881  0.2726  0.6354
  159SAPE   H7X17834   6.092   0.502   7.529 -0.6710  0.5688 -0.6429
  159SAPE   H7Y17835   6.101   0.679   7.578 -0.4355  1.3718 -1.4797
  159SAPE   C3817836   6.291   0.570   7.604  0.5616  0.1016  0.6244
  159SAPE   H8X17837   6.347   0.665   7.615  1.8384 -0.4265 -0.9781
  159SAPE   H8Y17838   6.359   0.502   7.549  1.2443  0.1492  1.3918
  159SAPE   C3917839   6.271   0.515   7.750 -0.3903 -0.4592  0.3326
  159SAPE   H9X17840   6.223   0.594   7.812  0.2135  0.0042  0.2195
  159SAPE   H9Y17841   6.370   0.514   7.800 -0.8645 -1.8974  1.2899
  159SAPE  C31017842   6.193   0.380   7.770  1.0801  0.2807  0.4534
  159SAPE  H10X17843   6.235   0.298   7.708 -0.6569 -1.0655  0.9922
  159SAPE  H10Y17844   6.089   0.410   7.745  0.3552 -1.3916  1.3144
  159SAPE  C31117845   6.181   0.340   7.917  1.0996 -0.1939 -0.5183
  159SAPE  H11X17846   6.165   0.421   7.990 -1.9459 -0.6618 -0.5356
  159SAPE  H11Y17847   6.280   0.294   7.935  0.6905 -1.6241 -1.6884
  159SAPE  C31217848   6.079   0.232   7.932  0.1308  0.0898  0.3583
  159SAPE  H12X17849   6.099   0.149   7.860 -0.0468  0.0214  0.3891
  159SAPE  H12Y17850   5.980   0.282   7.922 -0.0236  0.2702  2.4858
  159SAPE  C31317851   6.063   0.171   8.071 -0.4094  0.0908  0.4152
  159SAPE  H13X17852   6.016   0.253   8.130 -0.4430 -0.3170  0.9730
  159SAPE  H13Y17853   6.164   0.156   8.114  0.0581  0.5641 -0.4963
  159SAPE  C31417854   5.980   0.047   8.078  0.0265  0.1824  0.2002
  159SAPE  H14X17855   6.037  -0.027   8.018  0.5187  0.3567  0.4483
  159SAPE  H14Y17856   5.879   0.045   8.033 -1.0334 -1.5232  2.4507
  159SAPE  C31517857   5.971  -0.018   8.214  0.6122  0.0746 -0.4136
  159SAPE  H15X17858   5.901   0.038   8.280 -0.1699 -0.5305 -0.7202
  159SAPE  H15Y17859   6.073  -0.024   8.257  0.4836 -1.2605 -0.2544
  159SAPE  C31617860   5.907  -0.163   8.215 -0.4956  0.3224  0.5148
  159SAPE  H16X17861   5.965  -0.229   8.147  0.3861  1.2795  0.3116
  159SAPE  H16Y17862   5.805  -0.173   8.173 -1.0228 -0.5570  1.9374
  159SAPE  C31717863   5.922  -0.229   8.354  1.0739 -0.3975  0.9620
  159SAPE  H17X17864   5.835  -0.202   8.417  3.1077  2.1129  2.9446
  159SAPE  H17Y17865   6.004  -0.170   8.401  0.6856  2.0567 -1.1800
  159SAPE  C31817866   5.936  -0.379   8.356 -0.2247  0.2887  0.3027
  159SAPE  H18X17867   6.034  -0.403   8.310  0.3756  0.1075  1.6533
  159SAPE  H18Y17868   5.848  -0.432   8.312 -0.8237  0.1986  1.5751
  159SAPE  H18Z17869   5.948  -0.429   8.454 -1.0280  0.6825  0.6175
  160SAPE     N17870   5.687   2.941   5.960  0.2155  0.7421 -0.3267
  160SAPE   HN117871   5.592   2.974   5.932 -0.5804  0.9192  2.3484
  160SAPE   HN217872   5.743   2.931   5.873  1.0203  0.2815  0.2362
  160SAPE   HN317873   5.674   2.849   6.006  0.3559 -0.0104 -1.7339
  160SAPE   C1217874   5.744   3.034   6.061 -0.1605  0.2274  1.0171
  160SAPE  H12A17875   5.740   3.137   6.020  2.0611  0.4470  1.2534
  160SAPE  H12B17876   5.853   3.017   6.074  0.1010  0.6960 -0.3397
  160SAPE   C1117877   5.678   3.016   6.198  0.6359  0.2064 -0.4726
  160SAPE  H11A17878   5.733   3.065   6.280  0.9170  0.5877 -0.8824
  160SAPE  H11B17879   5.689   2.908   6.222  3.0266  0.7015  0.9102
  160SAPE     P17880   5.490   3.197   6.242  0.4763  0.1895 -0.0825
  160SAPE   O1317881   5.520   3.294   6.136 -0.4843  0.8364 -0.1642
  160SAPE   O1417882   5.348   3.185   6.283 -0.6568 -0.0338 -0.2568
  160SAPE   O1217883   5.541   3.063   6.198  0.6117  1.1538  0.4110
  160SAPE   O1117884   5.571   3.223   6.379  0.2376 -0.0683 -0.2285
  160SAPE    C117885   5.550   3.150   6.501 -0.1636  0.7555 -0.1271
  160SAPE    HA17886   5.450   3.175   6.541 -0.8061 -1.3482 -0.2655
  160SAPE    HB17887   5.554   3.041   6.479 -0.0394  1.2872 -3.1594
  160SAPE    C217888   5.642   3.208   6.610  0.4125 -0.0354 -0.1200
  160SAPE    HS17889   5.747   3.190   6.577  1.1208 -0.1659  2.0398
  160SAPE   O2117890   5.613   3.159   6.743 -0.1970 -0.0462  0.2175
  160SAPE   C2117891   5.662   3.040   6.758 -0.0370  0.3527  0.8640
  160SAPE   O2217892   5.735   2.979   6.680  0.5816 -0.2121 -0.4293
  160SAPE   C2217893   5.615   2.979   6.894  0.5664  0.6606  0.7754
  160SAPE   H2R17894   5.506   2.972   6.873  0.8472  2.3894 -1.6737
  160SAPE   H2S17895   5.667   2.881   6.895  0.6649  0.5085 -3.3219
  160SAPE    C317896   5.623   3.369   6.612 -0.3814 -0.6668 -0.1848
  160SAPE    HX17897   5.519   3.391   6.643 -0.1789 -0.9431  0.7158
  160SAPE    HY17898   5.646   3.403   6.509  0.5468  1.1628  0.5829
  160SAPE   O3117899   5.704   3.422   6.726  0.0735 -0.2000  0.7164
  160SAPE   C3117900   5.775   3.531   6.705 -0.3994  0.0362  0.3549
  160SAPE   O3217901   5.770   3.604   6.606 -0.8085  0.3212 -0.2834
  160SAPE   C3217902   5.865   3.553   6.824  0.3343 -0.4595  0.7730
  160SAPE   H2X17903   5.851   3.660   6.846  0.2309  0.1309 -1.8566
  160SAPE   H2Y17904   5.970   3.541   6.791  0.0330 -1.7927  0.2307
  160SAPE   C2317905   5.657   3.059   7.019  0.2342  0.0171 -0.0438
  160SAPE   H3R17906   5.588   3.145   7.025 -0.7484 -0.7935  0.5972
  160SAPE   H3S17907   5.759   3.103   7.008  0.0039  0.2962 -1.2880
  160SAPE   C2417908   5.664   2.975   7.153  0.1300 -0.5692 -0.0730
  160SAPE   H4R17909   5.736   2.892   7.139 -0.3279 -1.0507  0.3932
  160SAPE   H4S17910   5.562   2.935   7.172  0.2778 -0.8820  0.0811
  160SAPE   C2517911   5.685   3.060   7.269  0.1224 -0.4754 -0.0428
  160SAPE   H5R17912   5.643   3.162   7.259  1.1200 -0.2332 -2.4659
  160SAPE   C2617913   5.739   3.025   7.380 -0.4540 -0.0216  0.1473
  160SAPE   H6R17914   5.724   3.087   7.469  2.5229  0.5584  0.3231
  160SAPE   C2717915   5.808   2.892   7.413  0.2458 -0.0479  0.1755
  160SAPE   H7R17916   5.852   2.847   7.322  1.2899  2.4266 -0.6317
  160SAPE   H7S17917   5.730   2.821   7.447 -0.9486  0.5803 -1.1396
  160SAPE   C2817918   5.920   2.902   7.515 -0.2989  0.4546  0.4021
  160SAPE   H8R17919   6.024   2.905   7.481 -0.3960  1.5214  0.1476
  160SAPE   C2917920   5.904   2.902   7.649  0.0252  0.3095  0.3853
  160SAPE   H9R17921   5.991   2.903   7.716 -1.4471  0.1628  2.4072
  160SAPE  C21017922   5.770   2.912   7.720 -0.0336  0.2891 -0.1332
  160SAPE  H10R17923   5.693   2.855   7.664 -0.0045  0.0726  0.0504
  160SAPE  H10S17924   5.745   3.020   7.734  2.0426  0.5341  2.3411
  160SAPE  C21117925   5.768   2.843   7.857  0.0754 -0.5240  0.4457
  160SAPE  H11R17926   5.803   2.739   7.860  1.4095 -0.0904  0.2795
  160SAPE  C21217927   5.735   2.899   7.976 -0.6376  0.2277  0.5535
  160SAPE  H12R17928   5.762   2.846   8.068  0.4429  0.5757  0.4547
  160SAPE  C21317929   5.693   3.036   7.996 -0.9547 -0.1991 -0.1551
  160SAPE  H13R17930   5.618   3.030   8.078  0.3325 -1.1681  1.0213
  160SAPE  H13S17931   5.634   3.070   7.909 -0.8477 -0.2525 -0.2485
  160SAPE  C21417932   5.815   3.127   8.024 -0.4361  0.3373  0.2727
  160SAPE  H14R17933   5.889   3.133   7.943 -0.6038 -5.0643 -0.6745
  160SAPE  C21517934   5.849   3.170   8.151  0.1744  0.8664  0.9247
  160SAPE  H15R17935   5.945   3.223   8.165  0.2699  0.8200  0.4443
  160SAPE  C21617936   5.774   3.139   8.278 -0.4537  0.2466 -0.2551
  160SAPE  H16R17937   5.845   3.109   8.357 -0.9441  1.5034  0.7015
  160SAPE  H16S17938   5.697   3.060   8.265 -1.7974  1.8620 -3.0427
  160SAPE  C21717939   5.709   3.268   8.329  0.3447 -0.2333  0.1778
  160SAPE  H17R17940   5.621   3.289   8.264 -0.6853  0.5907  1.7797
  160SAPE  H17S17941   5.787   3.346   8.317 -0.2394  0.0144 -3.0481
  160SAPE  C21817942   5.670   3.259   8.476  0.1937 -0.4727  0.3268
  160SAPE  H18R17943   5.767   3.279   8.526  1.6689  0.3606 -2.6983
  160SAPE  H18S17944   5.634   3.156   8.498 -0.0910 -0.8961 -1.9094
  160SAPE  C21917945   5.565   3.359   8.522  0.4613  0.5401  0.4750
  160SAPE  H19R17946   5.592   3.461   8.486  0.9928  0.1734 -0.1750
  160SAPE  H19S17947   5.554   3.374   8.632 -0.7455 -1.9693  0.7517
  160SAPE  C22017948   5.426   3.331   8.470  0.2847  0.1507 -0.0254
  160SAPE  H20R17949   5.419   3.220   8.476  1.1546  0.0159 -1.2056
  160SAPE  H20S17950   5.414   3.352   8.362  2.7127 -1.4370 -0.6944
  160SAPE  H20T17951   5.345   3.382   8.526 -0.4633  2.4002 -2.8911
  160SAPE   C3317952   5.831   3.463   6.947  0.8827  0.2232 -0.2731
  160SAPE   H3X17953   5.858   3.365   6.903  1.4010  0.1311  0.2506
  160SAPE   H3Y17954   5.726   3.458   6.984  0.6615  1.3847 -0.6774
  160SAPE   C3417955   5.931   3.488   7.056 -0.4443 -0.5126 -0.5634
  160SAPE   H4X17956   5.912   3.591   7.092 -0.8425 -1.0242  0.7616
  160SAPE   H4Y17957   6.035   3.481   7.019  0.3108 -0.1132  1.3696
  160SAPE   C3517958   5.912   3.394   7.177 -0.3231  0.6874 -0.5037
  160SAPE   H5X17959   5.923   3.288   7.148  1.3172  0.3448  1.1694
  160SAPE   H5Y17960   5.806   3.406   7.207 -0.9360  0.4863 -2.4601
  160SAPE   C3617961   6.010   3.422   7.293 -0.4299 -0.8974 -0.5711
  160SAPE   H6X17962   6.006   3.528   7.327  0.5916 -1.3735  1.1840
  160SAPE   H6Y17963   6.115   3.397   7.270  0.8106  1.3389  2.0633
  160SAPE   C3717964   5.982   3.320   7.409  0.2566 -0.1053  0.0334
  160SAPE   H7X17965   6.009   3.219   7.368 -1.9872 -0.2191 -1.3096
  160SAPE   H7Y17966   5.873   3.320   7.431  0.3896  0.8656  0.7298
  160SAPE   C3817967   6.072   3.342   7.544  0.9526  0.3082  0.2881
  160SAPE   H8X17968   6.044   3.440   7.589  2.8717  0.6470  0.8279
  160SAPE   H8Y17969   6.177   3.362   7.514  0.5706  2.9039  0.4513
  160SAPE   C3917970   6.070   3.232   7.654 -0.0454 -1.1445  0.0949
  160SAPE   H9X17971   6.069   3.136   7.598 -0.1533 -0.1582 -1.6429
  160SAPE   H9Y17972   5.973   3.232   7.708 -0.1568 -0.3394 -0.0982
  160SAPE  C31017973   6.181   3.237   7.757 -0.0500 -0.1666  0.1020
  160SAPE  H10X17974   6.167   3.324   7.824 -2.7448 -0.7113  0.3560
  160SAPE  H10Y17975   6.280   3.252   7.708  0.7698  0.0902  1.7943
  160SAPE  C31117976   6.186   3.107   7.846 -0.2797 -0.1447  0.0698
  160SAPE  H11X17977   6.175   3.009   7.795  1.1408 -0.7031  0.7739
  160SAPE  H11Y17978   6.116   3.116   7.931 -0.7088 -2.3829  0.0153
  160SAPE  C31217979   6.328   3.095   7.912 -0.3998  0.9503  0.4489
  160SAPE  H12X17980   6.404   3.100   7.831 -1.1493  1.1787 -0.2595
  160SAPE  H12Y17981   6.337   3.000   7.969  0.0803  1.3238  1.0037
  160SAPE  C31317982   6.360   3.197   8.015 -0.0472 -0.5522 -0.0401
  160SAPE  H13X17983   6.377   3.296   7.968  1.5583 -0.7134  0.1273
  160SAPE  H13Y17984   6.456   3.166   8.061  1.1816  0.8729 -1.5127
  160SAPE  C31417985   6.264   3.223   8.129  0.1425 -0.0125  0.1158
  160SAPE  H14X17986   6.234   3.125   8.173  1.2192 -0.3814  0.0423
  160SAPE  H14Y17987   6.174   3.282   8.099 -1.8188 -1.8570  1.9525
  160SAPE  C31517988   6.322   3.298   8.253  0.7675  0.0680  0.7740
  160SAPE  H15X17989   6.354   3.400   8.225 -0.7984  0.4716  0.3028
  160SAPE  H15Y17990   6.401   3.240   8.305 -0.7581 -1.9534  0.9915
  160SAPE  C31617991   6.206   3.315   8.356 -0.4838  0.1255  0.2962
  160SAPE  H16X17992   6.158   3.218   8.380  0.4275 -0.1001  1.3013
  160SAPE  H16Y17993   6.126   3.381   8.317 -1.4422 -0.4511  1.2395
  160SAPE  C31717994   6.264   3.387   8.478 -0.4254 -0.7867 -0.7840
  160SAPE  H17X17995   6.278   3.495   8.455 -4.3818  0.1979  0.5978
  160SAPE  H17Y17996   6.365   3.345   8.498 -0.0208 -0.5038 -2.1370
  160SAPE  C31817997   6.179   3.378   8.610 -0.6540 -0.3961  1.0516
  160SAPE  H18X17998   6.183   3.284   8.669  0.1677 -2.0215 -1.4452
  160SAPE  H18Y17999   6.075   3.400   8.577 -0.1110  0.0242 -0.4878
  160SAPE  H18Z18000   6.217   3.456   8.679 -1.4539  1.9260 -0.9841
  161SAPE     N18001   1.912   2.721   6.182  0.1448 -0.2104 -0.3608
  161SAPE   HN118002   1.993   2.671   6.140  1.3948  2.6258 -1.6300
  161SAPE   HN218003   1.820   2.679   6.158  0.9409 -1.8046 -0.7633
  161SAPE   HN318004   1.907   2.820   6.151 -2.5739 -0.0475  0.3339
  161SAPE   C1218005   1.934   2.723   6.328  0.1484 -0.3867 -0.1247
  161SAPE  H12A18006   1.949   2.615   6.349  1.3325 -0.4276 -1.0576
  161SAPE  H12B18007   1.846   2.757   6.387  0.9509 -0.6810  1.3168
  161SAPE   C1118008   2.043   2.807   6.372 -0.2495 -0.3958 -0.0978
  161SAPE  H11A18009   2.071   2.770   6.473 -0.3693 -1.6925 -0.5269
  161SAPE  H11B18010   2.013   2.914   6.371 -0.5558 -0.4289  1.7013
  161SAPE     P18011   2.282   2.724   6.321 -0.0449  0.1177 -0.1328
  161SAPE   O1318012   2.257   2.577   6.329 -0.4819 -0.2782  0.1795
  161SAPE   O1418013   2.379   2.778   6.223  0.1143 -0.6810 -0.0904
  161SAPE   O1218014   2.151   2.791   6.289 -0.1075  0.0680 -0.2179
  161SAPE   O1118015   2.317   2.784   6.460 -0.7390  0.2679 -0.1806
  161SAPE    C118016   2.334   2.919   6.491  0.3380  0.3581 -0.0461
  161SAPE    HA18017   2.428   2.959   6.447  0.6288  0.3406  0.5439
  161SAPE    HB18018   2.258   2.989   6.449  1.4708  0.1819 -2.5621
  161SAPE    C218019   2.326   2.947   6.650 -0.3043  0.7615 -1.0296
  161SAPE    HS18020   2.386   3.040   6.662 -1.1119  0.9129  3.4710
  161SAPE   O2118021   2.376   2.836   6.735 -0.3424  0.1455 -0.4638
  161SAPE   C2118022   2.502   2.830   6.747 -1.0413 -0.3657  0.7559
  161SAPE   O2218023   2.584   2.892   6.685  0.6520 -0.2114 -0.0056
  161SAPE   C2218024   2.547   2.721   6.846  0.1404  0.1013  0.2048
  161SAPE   H2R18025   2.475   2.641   6.873  1.7468 -1.6901 -0.6280
  161SAPE   H2S18026   2.626   2.675   6.782  0.0643 -2.5491  1.8716
  161SAPE    C318027   2.181   2.958   6.692 -0.5795 -0.2256 -0.6629
  161SAPE    HX18028   2.136   2.859   6.674 -2.2329  0.5518 -0.9962
  161SAPE    HY18029   2.126   3.024   6.621  2.0063 -0.4627 -3.0512
  161SAPE   O3118030   2.157   3.000   6.827  0.2932  0.8105 -0.7051
  161SAPE   C3118031   2.177   3.128   6.851  0.9184 -0.6165 -0.8869
  161SAPE   O3218032   2.216   3.207   6.763 -0.3679  0.5203  0.0195
  161SAPE   C3218033   2.138   3.163   6.997  0.0083 -0.0206 -0.6234
  161SAPE   H2X18034   2.029   3.172   7.012  0.2319 -1.0266  2.0543
  161SAPE   H2Y18035   2.187   3.260   7.017  1.7292 -0.5269 -2.0685
  161SAPE   C2318036   2.609   2.763   6.981 -0.0538  0.2057 -0.4736
  161SAPE   H3R18037   2.697   2.824   6.951  0.4691  0.6013  1.7033
  161SAPE   H3S18038   2.653   2.677   7.036 -0.5288  1.2082  1.5684
  161SAPE   C2418039   2.520   2.847   7.073  0.3165  0.0506  0.6051
  161SAPE   H4R18040   2.467   2.770   7.133  0.3336  0.5720  1.3026
  161SAPE   H4S18041   2.444   2.902   7.015  1.1172  3.9290  2.9019
  161SAPE   C2518042   2.607   2.925   7.173 -0.2126  0.2495 -0.3074
  161SAPE   H5R18043   2.672   2.998   7.122  0.3840  0.3130  0.5343
  161SAPE   C2618044   2.615   2.897   7.305  0.1184  0.6341  0.6983
  161SAPE   H6R18045   2.686   2.965   7.354  1.6249 -0.0212 -0.4963
  161SAPE   C2718046   2.556   2.785   7.388  0.1468 -0.6018  0.2822
  161SAPE   H7R18047   2.629   2.706   7.413  1.1477 -0.8412 -2.9915
  161SAPE   H7S18048   2.472   2.730   7.340 -1.1990  0.9875  0.6867
  161SAPE   C2818049   2.510   2.847   7.518  0.4906  0.2386 -0.9235
  161SAPE   H8R18050   2.454   2.939   7.494  1.0162 -0.1769 -4.1337
  161SAPE   C2918051   2.511   2.795   7.647  0.1473  0.0157  0.4015
  161SAPE   H9R18052   2.481   2.860   7.731  2.9285 -0.9948  2.2994
  161SAPE  C21018053   2.561   2.659   7.691  0.0664  0.4926  0.8568
  161SAPE  H10R18054   2.571   2.595   7.601  2.6369 -0.4415  1.6941
  161SAPE  H10S18055   2.493   2.600   7.756  0.7872 -1.9257 -0.4609
  161SAPE  C21118056   2.702   2.670   7.748 -0.1044  0.3024  0.0815
  161SAPE  H11R18057   2.768   2.708   7.669 -0.5495 -0.1385 -0.5157
  161SAPE  C21218058   2.748   2.641   7.875  0.1276  0.0467 -0.0041
  161SAPE  H12R18059   2.852   2.666   7.899  1.0141  1.1709 -4.1048
  161SAPE  C21318060   2.658   2.589   7.981 -0.3095 -0.5191 -0.2275
  161SAPE  H13R18061   2.574   2.661   7.993 -0.3153 -0.7568  1.4250
  161SAPE  H13S18062   2.714   2.585   8.076 -1.9017  1.2508  0.8667
  161SAPE  C21418063   2.581   2.455   7.954  0.1261 -0.2732  0.0465
  161SAPE  H14R18064   2.610   2.405   7.860  0.3437  3.3528 -2.0242
  161SAPE  C21518065   2.484   2.404   8.029  0.1035 -0.4277  0.2164
  161SAPE  H15R18066   2.440   2.307   7.999  0.8806 -0.3618 -1.2024
  161SAPE  C21618067   2.416   2.453   8.151  0.3174  0.6779 -0.0726
  161SAPE  H16R18068   2.333   2.518   8.117  0.6487  0.8765 -0.5324
  161SAPE  H16S18069   2.479   2.521   8.212 -0.9514  1.6480  0.1933
  161SAPE  C21718070   2.360   2.347   8.251 -0.2325  1.1061 -0.0141
  161SAPE  H17R18071   2.446   2.307   8.309  0.5872  1.1881 -1.1301
  161SAPE  H17S18072   2.329   2.261   8.189  1.3876  0.2421  0.3241
  161SAPE  C21818073   2.244   2.383   8.343 -0.5775 -0.0773  0.0559
  161SAPE  H18R18074   2.209   2.292   8.395 -1.9662 -0.3154 -1.2097
  161SAPE  H18S18075   2.150   2.404   8.286 -1.4791 -1.4195  0.9901
  161SAPE  C21918076   2.266   2.504   8.436 -0.1718  0.4164 -0.4823
  161SAPE  H19R18077   2.193   2.584   8.411 -1.8047 -0.9445 -0.2783
  161SAPE  H19S18078   2.364   2.548   8.409  0.9239 -0.0476  2.3648
  161SAPE  C22018079   2.259   2.467   8.579  0.8675 -0.1786 -0.0863
  161SAPE  H20R18080   2.289   2.549   8.648 -0.0931  1.0977 -1.1262
  161SAPE  H20S18081   2.324   2.382   8.607  1.9358  0.7658  0.4043
  161SAPE  H20T18082   2.153   2.436   8.593  0.2016  1.6012 -0.8548
  161SAPE   C3318083   2.185   3.064   7.109  0.1694 -0.2153 -0.6386
  161SAPE   H3X18084   2.296   3.050   7.113  0.1282 -0.3602  0.1973
  161SAPE   H3Y18085   2.136   2.965   7.101 -0.0123 -0.0550 -1.6810
  161SAPE   C3418086   2.154   3.121   7.250  0.3691  0.5327 -0.3823
  161SAPE   H4X18087   2.046   3.145   7.261 -0.1543 -2.1090  1.4694
  161SAPE   H4Y18088   2.212   3.216   7.257 -1.7568  1.8697 -0.0960
  161SAPE   C3518089   2.196   3.016   7.349  0.8452 -0.4796  0.0865
  161SAPE   H5X18090   2.306   3.000   7.348  1.2203  1.6693 -1.9719
  161SAPE   H5Y18091   2.135   2.927   7.322  1.0727 -0.4511 -0.5268
  161SAPE   C3618092   2.140   3.023   7.497  0.0752  0.1059  0.5004
  161SAPE   H6X18093   2.037   3.066   7.497 -1.3129 -2.9841  1.2522
  161SAPE   H6Y18094   2.200   3.089   7.563  3.7056  0.4027 -2.7177
  161SAPE   C3718095   2.129   2.890   7.571  1.3027 -0.1016  0.0758
  161SAPE   H7X18096   2.230   2.843   7.575  0.4693 -1.9508  0.5362
  161SAPE   H7Y18097   2.060   2.813   7.529 -0.1390  1.3933 -0.3733
  161SAPE   C3818098   2.081   2.914   7.714 -0.1600 -0.2810 -0.7116
  161SAPE   H8X18099   1.981   2.962   7.708 -2.4428 -4.4677  0.2783
  161SAPE   H8Y18100   2.144   2.992   7.762 -0.5057 -0.9420  0.8620
  161SAPE   C3918101   2.072   2.779   7.794  0.0350  0.5328 -0.7286
  161SAPE   H9X18102   2.029   2.706   7.722 -1.7501  1.4516 -0.6581
  161SAPE   H9Y18103   1.997   2.802   7.872  1.4504  1.5328  0.4058
  161SAPE  C31018104   2.189   2.725   7.875 -0.5472 -0.1900 -0.2855
  161SAPE  H10X18105   2.276   2.699   7.811  0.8632 -1.6221  2.0758
  161SAPE  H10Y18106   2.165   2.628   7.925 -1.9603 -0.6733 -1.7949
  161SAPE  C31118107   2.237   2.824   7.996 -0.0353  0.0929  0.3467
  161SAPE  H11X18108   2.305   2.907   7.966  0.6949 -0.7650 -0.4194
  161SAPE  H11Y18109   2.298   2.749   8.051 -1.5714 -0.8419  0.8166
  161SAPE  C31218110   2.124   2.873   8.090 -0.3267  0.3494  0.0904
  161SAPE  H12X18111   2.029   2.816   8.100 -0.1548  0.0631  0.1015
  161SAPE  H12Y18112   2.090   2.971   8.049 -0.9908  0.1288  0.1034
  161SAPE  C31318113   2.174   2.920   8.227  0.7545  0.0776 -0.3699
  161SAPE  H13X18114   2.265   2.983   8.236  1.1844 -0.8050  2.7499
  161SAPE  H13Y18115   2.202   2.828   8.283  1.7510 -0.5395 -1.8224
  161SAPE  C31418116   2.055   2.991   8.301  0.0677 -0.4241 -0.4909
  161SAPE  H14X18117   1.963   2.937   8.270 -0.3671 -0.3772  0.6803
  161SAPE  H14Y18118   2.049   3.097   8.267  4.2688  0.3066  0.5528
  161SAPE  C31518119   2.064   2.984   8.455  0.2960  0.3971 -0.3720
  161SAPE  H15X18120   2.140   3.060   8.484  2.2793 -1.3013 -0.8767
  161SAPE  H15Y18121   2.112   2.885   8.471 -2.2942 -1.0378 -0.7899
  161SAPE  C31618122   1.925   3.004   8.520  0.3857  0.0201 -0.2334
  161SAPE  H16X18123   1.925   2.998   8.631 -2.7018  2.2062  0.0018
  161SAPE  H16Y18124   1.858   2.923   8.484 -0.2816 -0.2151  1.4359
  161SAPE  C31718125   1.861   3.141   8.480 -0.3998  0.4238 -0.3467
  161SAPE  H17X18126   1.852   3.143   8.369  1.3306  1.4947 -0.5080
  161SAPE  H17Y18127   1.928   3.230   8.485  0.6751 -0.4239  0.8264
  161SAPE  C31818128   1.726   3.169   8.546  0.1577  0.3857 -0.4145
  161SAPE  H18X18129   1.718   3.124   8.647  0.7707  0.8701 -0.1453
  161SAPE  H18Y18130   1.657   3.105   8.487 -1.9733  3.0519 -1.0005
  161SAPE  H18Z18131   1.692   3.275   8.547  2.7055  1.3134  2.0553
  162SAPE     N18132   6.563   4.172   5.938  0.0087  0.3371 -0.2931
  162SAPE   HN118133   6.522   4.252   5.885  2.5717  2.3220  0.4986
  162SAPE   HN218134   6.489   4.105   5.967 -0.2342  1.1427  1.0450
  162SAPE   HN318135   6.598   4.210   6.029 -1.1336  0.4898  0.0934
  162SAPE   C1218136   6.671   4.095   5.862  0.1314 -0.2954  0.4583
  162SAPE  H12A18137   6.746   4.169   5.827  1.3790 -3.1228 -3.5677
  162SAPE  H12B18138   6.621   4.044   5.776 -0.4443 -3.0212  2.2830
  162SAPE   C1118139   6.736   3.987   5.941  1.1179  0.6688 -0.0585
  162SAPE  H11A18140   6.780   4.047   6.023  0.9765  1.3153 -0.4436
  162SAPE  H11B18141   6.824   3.935   5.896 -0.4034 -2.3247  0.1283
  162SAPE     P18142   6.644   3.750   6.004 -0.3998 -0.4855 -0.1557
  162SAPE   O1318143   6.527   3.703   6.080 -0.3153  0.0522 -0.6839
  162SAPE   O1418144   6.667   3.693   5.871 -0.3125 -0.1169 -0.4180
  162SAPE   O1218145   6.632   3.904   5.985  0.6041 -0.4531 -0.7433
  162SAPE   O1118146   6.780   3.739   6.084  0.0067  0.0955 -0.6102
  162SAPE    C118147   6.814   3.830   6.192  0.6837 -0.1592  0.3180
  162SAPE    HA18148   6.871   3.918   6.155 -0.8085  0.3203 -0.9364
  162SAPE    HB18149   6.726   3.878   6.241 -1.6009 -1.7573 -1.9302
  162SAPE    C218150   6.902   3.749   6.294 -0.4428 -0.3526  0.2583
  162SAPE    HS18151   6.999   3.744   6.241  1.2752  0.5411  3.1072
  162SAPE   O2118152   6.846   3.622   6.327  0.8428  0.8593 -0.3168
  162SAPE   C2118153   6.923   3.520   6.368  0.8313 -0.0453  0.7901
  162SAPE   O2218154   7.045   3.516   6.359  0.3459 -0.2798  0.6788
  162SAPE   C2218155   6.834   3.410   6.422 -0.2090  0.3367  0.2938
  162SAPE   H2R18156   6.762   3.382   6.342 -0.8149  0.5878  0.7405
  162SAPE   H2S18157   6.899   3.320   6.421 -0.3805  0.2030 -1.1129
  162SAPE    C318158   6.947   3.835   6.425  0.0182  0.7071 -0.2844
  162SAPE    HX18159   6.860   3.842   6.493  0.8272 -2.7520  1.3294
  162SAPE    HY18160   6.986   3.929   6.379 -0.0146 -0.0568 -1.9664
  162SAPE   O3118161   7.043   3.759   6.494  0.1229  0.0379 -0.1220
  162SAPE   C3118162   7.141   3.825   6.548 -0.0105  0.6581  0.0371
  162SAPE   O3218163   7.146   3.945   6.563  0.8353  0.3384 -0.0155
  162SAPE   C3218164   7.235   3.718   6.622 -0.0206 -0.4470  0.5018
  162SAPE   H2X18165   7.288   3.662   6.542 -0.8868  1.0579 -1.1668
  162SAPE   H2Y18166   7.155   3.653   6.664 -3.1259  2.8760  0.1576
  162SAPE   C2318167   6.791   3.440   6.561  0.9246 -0.1522  0.5358
  162SAPE   H3R18168   6.875   3.468   6.629  0.4507 -0.9771  1.4850
  162SAPE   H3S18169   6.768   3.341   6.606 -0.1417 -0.1241  0.0772
  162SAPE   C2418170   6.667   3.527   6.569 -0.3787  0.5232 -0.4396
  162SAPE   H4R18171   6.584   3.472   6.520  0.8146  0.1984 -2.2196
  162SAPE   H4S18172   6.668   3.621   6.511 -0.8299  0.4760 -0.5261
  162SAPE   C2518173   6.631   3.549   6.717  0.3130  0.5319 -0.2807
  162SAPE   H5R18174   6.538   3.497   6.744  0.0314 -0.6522 -3.1346
  162SAPE   C2618175   6.697   3.624   6.808 -0.0014  0.8800 -0.8591
  162SAPE   H6R18176   6.660   3.624   6.912  0.6861 -5.8929 -0.1520
  162SAPE   C2718177   6.818   3.712   6.789  0.0291  0.7921 -0.0006
  162SAPE   H7R18178   6.845   3.718   6.682  1.0665  1.6882  0.2796
  162SAPE   H7S18179   6.904   3.676   6.850  0.2077  1.9832  0.4964
  162SAPE   C2818180   6.806   3.857   6.836  0.9566 -0.1175  0.1737
  162SAPE   H8R18181   6.758   3.922   6.761 -3.3262 -1.1103  1.8026
  162SAPE   C2918182   6.839   3.911   6.955 -0.5811 -0.3049  0.2304
  162SAPE   H9R18183   6.808   4.016   6.970 -0.1290 -0.1311 -0.0151
  162SAPE  C21018184   6.909   3.857   7.076  0.0896  0.8433 -0.1725
  162SAPE  H10R18185   6.985   3.925   7.120 -0.8002  1.8729 -0.1874
  162SAPE  H10S18186   6.966   3.766   7.047 -1.4716 -0.6947  1.4111
  162SAPE  C21118187   6.821   3.812   7.190  0.1494  0.7062 -0.0457
  162SAPE  H11R18188   6.762   3.721   7.168 -0.6562  1.1898  0.0674
  162SAPE  C21218189   6.825   3.857   7.316  0.6360  0.1165  0.6919
  162SAPE  H12R18190   6.758   3.809   7.389  0.1329 -0.6449 -0.2425
  162SAPE  C21318191   6.907   3.966   7.374  0.0512 -0.4894 -1.0643
  162SAPE  H13R18192   6.839   4.054   7.380  1.2320  0.3677  1.2707
  162SAPE  H13S18193   6.988   3.997   7.305  1.1877  1.7002  1.1078
  162SAPE  C21418194   6.964   3.939   7.511 -0.0396 -0.4252 -0.2642
  162SAPE  H14R18195   7.069   3.909   7.521 -0.0474 -0.5945 -0.6555
  162SAPE  C21518196   6.891   3.957   7.626  0.4929  0.1755 -0.2267
  162SAPE  H15R18197   6.941   3.919   7.716  2.7740  1.9790 -0.6498
  162SAPE  C21618198   6.749   4.005   7.656 -0.7761  0.2130 -0.1199
  162SAPE  H16R18199   6.692   4.034   7.565  0.9743  0.9982 -1.0170
  162SAPE  H16S18200   6.748   4.094   7.722  2.2825 -0.7077  1.3167
  162SAPE  C21718201   6.667   3.897   7.724  0.3700  0.4374  0.0818
  162SAPE  H17R18202   6.724   3.859   7.811 -1.3787 -0.6982  0.8033
  162SAPE  H17S18203   6.666   3.803   7.665  1.8908  0.2726  0.2888
  162SAPE  C21818204   6.529   3.949   7.767  0.0482  0.8993  0.3532
  162SAPE  H18R18205   6.460   3.945   7.681 -0.1254  1.2198  0.4765
  162SAPE  H18S18206   6.530   4.058   7.790 -0.8089  0.7350  1.2182
  162SAPE  C21918207   6.464   3.886   7.885 -0.0401 -0.2718 -0.2419
  162SAPE  H19R18208   6.370   3.934   7.920  0.2701 -0.3491  0.7182
  162SAPE  H19S18209   6.531   3.886   7.974 -0.4955  0.5837  0.1164
  162SAPE  C22018210   6.419   3.741   7.855 -0.7085 -0.5854 -0.0817
  162SAPE  H20R18211   6.505   3.672   7.840  0.0419 -0.0719  1.6373
  162SAPE  H20S18212   6.356   3.749   7.764  1.0277  0.0525 -1.2762
  162SAPE  H20T18213   6.359   3.703   7.940 -0.2806 -0.5526  0.2351
  162SAPE   C3318214   7.330   3.777   6.727 -0.2264  0.2737  0.0333
  162SAPE   H3X18215   7.359   3.883   6.707  2.6384 -0.5330 -0.5219
  162SAPE   H3Y18216   7.426   3.721   6.719 -0.4230 -0.0927  0.2335
  162SAPE   C3418217   7.286   3.756   6.872  0.2812  0.0574 -0.3847
  162SAPE   H4X18218   7.276   3.646   6.885 -1.7793  0.4288  1.8845
  162SAPE   H4Y18219   7.187   3.806   6.874  0.1238 -0.2526  1.8060
  162SAPE   C3518220   7.365   3.841   6.972  0.8039 -0.1016 -0.0836
  162SAPE   H5X18221   7.379   3.948   6.945  0.5361 -0.2043 -0.6629
  162SAPE   H5Y18222   7.466   3.796   6.980  0.6965 -0.6157 -1.3366
  162SAPE   C3618223   7.312   3.850   7.113 -0.0300 -0.1847 -0.3508
  162SAPE   H6X18224   7.292   3.750   7.157 -3.8776  0.2810 -0.7390
  162SAPE   H6Y18225   7.214   3.900   7.097  0.9371  1.7489 -0.4833
  162SAPE   C3718226   7.396   3.926   7.213  0.2123  0.0439  0.1837
  162SAPE   H7X18227   7.419   4.023   7.164 -2.3147  0.3484 -0.5404
  162SAPE   H7Y18228   7.482   3.863   7.244  0.9251  0.8829 -0.0425
  162SAPE   C3818229   7.331   3.959   7.349 -0.0390 -0.6269 -0.0565
  162SAPE   H8X18230   7.280   3.866   7.382 -0.9157 -0.5278 -1.0914
  162SAPE   H8Y18231   7.253   4.036   7.331 -0.0766 -0.7323 -0.3437
  162SAPE   C3918232   7.424   4.004   7.457 -0.1603  0.8899  0.5714
  162SAPE   H9X18233   7.494   4.084   7.426 -0.8420  1.5865  0.8022
  162SAPE   H9Y18234   7.484   3.921   7.499  0.6350  1.3134  0.2993
  162SAPE  C31018235   7.329   4.052   7.564 -0.0691 -0.9437 -0.3318
  162SAPE  H10X18236   7.275   3.970   7.616 -1.1608  1.1433  2.0229
  162SAPE  H10Y18237   7.269   4.134   7.522 -0.0110 -0.4316  0.5550
  162SAPE  C31118238   7.404   4.112   7.680  0.0921 -0.0772 -0.5119
  162SAPE  H11X18239   7.481   4.182   7.642  0.0158  0.8299  0.9228
  162SAPE  H11Y18240   7.465   4.034   7.730 -1.0319 -0.2555  0.6507
  162SAPE  C31218241   7.317   4.179   7.787  0.0304 -0.9213 -0.4771
  162SAPE  H12X18242   7.266   4.267   7.741 -1.4209 -1.8448 -0.6948
  162SAPE  H12Y18243   7.369   4.209   7.880 -1.5652 -1.2557  0.5644
  162SAPE  C31318244   7.197   4.096   7.840 -0.6415  0.1157 -0.3592
  162SAPE  H13X18245   7.225   3.993   7.868  0.6909 -0.2310 -2.7036
  162SAPE  H13Y18246   7.132   4.084   7.751 -0.5595  1.8882 -0.7068
  162SAPE  C31418247   7.114   4.164   7.946 -0.0378  0.1799  0.5061
  162SAPE  H14X18248   7.098   4.267   7.907  1.0651  0.4328  0.6881
  162SAPE  H14Y18249   7.174   4.163   8.039  0.6009  4.1722  0.3117
  162SAPE  C31518250   6.978   4.100   7.972  0.1643 -0.3326 -0.1155
  162SAPE  H15X18251   6.992   3.990   7.976  1.4553 -0.1486  2.2519
  162SAPE  H15Y18252   6.916   4.121   7.882 -0.9026  1.2220  0.9365
  162SAPE  C31618253   6.905   4.153   8.092  0.0997 -0.6536  0.2548
  162SAPE  H16X18254   6.906   4.263   8.081 -0.0359 -0.8340 -2.2588
  162SAPE  H16Y18255   6.968   4.139   8.183 -1.0008 -1.2204  0.9474
  162SAPE  C31718256   6.763   4.102   8.102  0.4693 -0.4836  0.0380
  162SAPE  H17X18257   6.772   3.992   8.118  2.1262  0.0198  3.2260
  162SAPE  H17Y18258   6.709   4.113   8.005  0.4527 -1.1414 -0.0339
  162SAPE  C31818259   6.684   4.173   8.212 -0.0340  0.0958  0.2175
  162SAPE  H18X18260   6.713   4.135   8.312 -0.6281  1.4742  0.9394
  162SAPE  H18Y18261   6.581   4.135   8.194  0.7388 -0.9932 -2.4444
  162SAPE  H18Z18262   6.682   4.284   8.209  1.1310  0.1141 -0.1615
  163SAPE     N18263   4.906   2.552   6.344 -0.1244  0.4908 -0.0344
  163SAPE   HN118264   4.802   2.545   6.350 -0.2319  1.8071  0.0884
  163SAPE   HN218265   4.936   2.510   6.434 -2.2419 -1.3836 -0.1070
  163SAPE   HN318266   4.928   2.653   6.351 -0.9048  0.5658  4.1357
  163SAPE   C1218267   4.955   2.478   6.231  0.6819  0.5547  0.1286
  163SAPE  H12A18268   4.965   2.547   6.145  1.6425  0.7454  0.3812
  163SAPE  H12B18269   4.869   2.416   6.198  1.0252 -1.3179  2.5135
  163SAPE   C1118270   5.080   2.395   6.268  0.6210  0.0275 -0.5405
  163SAPE  H11A18271   5.111   2.351   6.171  0.4006 -2.8810  0.6261
  163SAPE  H11B18272   5.058   2.305   6.329 -1.0708  1.4709  1.1019
  163SAPE     P18273   5.330   2.469   6.299  0.1887  0.6144 -0.4182
  163SAPE   O1318274   5.352   2.418   6.161  0.3610  0.5674 -0.1493
  163SAPE   O1418275   5.386   2.599   6.337 -0.5437  0.6025 -0.1332
  163SAPE   O1218276   5.173   2.475   6.326 -0.4125  0.1991 -0.8403
  163SAPE   O1118277   5.367   2.357   6.410 -0.3290  0.1636 -0.0943
  163SAPE    C118278   5.324   2.383   6.543 -0.8280  0.9158 -0.1345
  163SAPE    HA18279   5.394   2.457   6.589  3.0743 -1.3116 -1.9605
  163SAPE    HB18280   5.221   2.422   6.551 -1.5935 -1.0412  0.0269
  163SAPE    C218281   5.308   2.256   6.637 -0.5382 -0.5267  0.8909
  163SAPE    HS18282   5.228   2.283   6.710  0.8291  1.5260  1.7443
  163SAPE   O2118283   5.440   2.232   6.703 -0.1403  0.0720 -0.1916
  163SAPE   C2118284   5.454   2.299   6.811  0.1795 -0.0182  0.9198
  163SAPE   O2218285   5.387   2.401   6.837 -0.2687  0.4458  0.0316
  163SAPE   C2218286   5.571   2.240   6.888  0.0017  0.0607  0.7936
  163SAPE   H2R18287   5.573   2.131   6.871 -1.1387  0.0765  0.4724
  163SAPE   H2S18288   5.651   2.276   6.820 -1.6301  0.4071 -1.0510
  163SAPE    C318289   5.253   2.122   6.567  0.4910  0.0587 -0.0866
  163SAPE    HX18290   5.330   2.078   6.501  0.4999 -0.5522  0.3213
  163SAPE    HY18291   5.169   2.151   6.500  0.2628 -2.9433 -1.2270
  163SAPE   O3118292   5.211   2.044   6.676 -0.1445  0.2470  0.3828
  163SAPE   C3118293   5.171   1.925   6.635 -0.1849  0.3452 -0.4246
  163SAPE   O3218294   5.179   1.875   6.526 -0.0640 -0.1285  0.2432
  163SAPE   C3218295   5.105   1.854   6.752  0.6931  0.0000 -0.1202
  163SAPE   H2X18296   5.092   1.748   6.721  1.0431  0.5352 -2.2611
  163SAPE   H2Y18297   5.014   1.908   6.785  0.8057  0.6478 -0.8369
  163SAPE   C2318298   5.598   2.280   7.032 -0.3329  0.5845  0.2752
  163SAPE   H3R18299   5.578   2.388   7.043 -2.1954  0.3443 -0.3686
  163SAPE   H3S18300   5.704   2.267   7.061 -0.6710 -1.0152  0.9406
  163SAPE   C2418301   5.512   2.200   7.131 -0.2538 -0.3962  0.4967
  163SAPE   H4R18302   5.408   2.197   7.092  0.3300  0.4836 -1.2362
  163SAPE   H4S18303   5.492   2.251   7.228  1.0184  2.0384 -0.4340
  163SAPE   C2518304   5.570   2.066   7.152 -0.3797  0.5749  0.1611
  163SAPE   H5R18305   5.603   2.015   7.061 -1.8729 -0.6553  0.2450
  163SAPE   C2618306   5.586   2.006   7.270  0.8812 -0.2047  0.1155
  163SAPE   H6R18307   5.651   1.917   7.275 -0.7992 -1.3938  2.9772
  163SAPE   C2718308   5.542   2.053   7.406  0.5229 -0.7395  0.4851
  163SAPE   H7R18309   5.523   1.958   7.460  0.6885 -0.7525  0.5203
  163SAPE   H7S18310   5.447   2.108   7.423  0.2240 -1.4892  1.2983
  163SAPE   C2818311   5.648   2.128   7.481 -0.1493  0.0081  0.7839
  163SAPE   H8R18312   5.717   2.188   7.421 -0.9734  0.1319 -0.0561
  163SAPE   C2918313   5.665   2.129   7.613 -0.0548 -0.0242  0.1823
  163SAPE   H9R18314   5.739   2.199   7.655  0.0880 -0.5159  0.7611
  163SAPE  C21018315   5.570   2.082   7.724  1.0698 -0.7479 -0.3180
  163SAPE  H10R18316   5.472   2.057   7.679 -0.7870  0.5912  2.6875
  163SAPE  H10S18317   5.537   2.161   7.796 -0.1391 -0.6520 -0.9578
  163SAPE  C21118318   5.630   1.965   7.798  0.3017  0.1823  0.3534
  163SAPE  H11R18319   5.647   1.872   7.743 -0.8378 -0.3340  0.8414
  163SAPE  C21218320   5.670   1.968   7.926 -0.1271 -0.1777  0.0558
  163SAPE  H12R18321   5.710   1.876   7.972  2.4843 -0.3223 -2.2386
  163SAPE  C21318322   5.664   2.093   8.016  0.5224  0.6271  0.3360
  163SAPE  H13R18323   5.626   2.061   8.116 -1.0017  2.0953  0.2680
  163SAPE  H13S18324   5.598   2.179   7.995 -0.0636 -0.0741 -0.8061
  163SAPE  C21418325   5.805   2.136   8.036 -0.0113  0.8310 -0.8365
  163SAPE  H14R18326   5.861   2.136   7.941  1.2069  0.6517 -0.1397
  163SAPE  C21518327   5.863   2.177   8.151 -0.6689  0.2464  0.1122
  163SAPE  H15R18328   5.971   2.196   8.140 -1.0664  1.4317 -2.4724
  163SAPE  C21618329   5.787   2.187   8.287  0.0542 -0.4530 -0.3062
  163SAPE  H16R18330   5.826   2.104   8.350 -0.4754  0.4823  1.2967
  163SAPE  H16S18331   5.678   2.168   8.286 -0.0627  0.1730  0.2269
  163SAPE  C21718332   5.826   2.319   8.350 -0.2752  0.0699 -1.1621
  163SAPE  H17R18333   5.757   2.396   8.310  1.7350  1.3860 -2.3158
  163SAPE  H17S18334   5.930   2.352   8.328  0.3439 -0.0199  1.3644
  163SAPE  C21818335   5.824   2.308   8.504  0.6123  0.2539 -0.2883
  163SAPE  H18R18336   5.913   2.252   8.540  0.2102 -0.0829  0.1890
  163SAPE  H18S18337   5.731   2.255   8.534  0.5580 -0.3927 -1.5488
  163SAPE  C21918338   5.828   2.444   8.573 -0.4474 -0.5234  0.0351
  163SAPE  H19R18339   5.754   2.518   8.535  0.2570  0.6532  0.8953
  163SAPE  H19S18340   5.921   2.498   8.545 -0.4904  1.6733  3.5069
  163SAPE  C22018341   5.818   2.442   8.725  0.2382 -0.6748 -1.0159
  163SAPE  H20R18342   5.894   2.374   8.769  2.0437  2.2549  0.8014
  163SAPE  H20S18343   5.713   2.430   8.761  0.3153  0.8723 -0.1530
  163SAPE  H20T18344   5.858   2.541   8.758 -0.4881 -0.6562 -0.1381
  163SAPE   C3318345   5.195   1.869   6.875 -0.2890 -0.0784  0.3044
  163SAPE   H3X18346   5.236   1.970   6.894  2.5973 -1.0842 -0.1559
  163SAPE   H3Y18347   5.285   1.806   6.862 -0.3679 -0.2812  0.7069
  163SAPE   C3418348   5.127   1.824   7.002  0.9170 -0.2204 -1.2624
  163SAPE   H4X18349   5.123   1.713   7.000 -0.3065 -0.1925 -3.9051
  163SAPE   H4Y18350   5.022   1.860   7.012  0.1416 -2.1727 -1.8983
  163SAPE   C3518351   5.203   1.869   7.125  0.0387  0.4692  0.3494
  163SAPE   H5X18352   5.217   1.978   7.137  0.7620  0.1654  3.0033
  163SAPE   H5Y18353   5.302   1.828   7.097 -1.5507 -1.5733 -3.0022
  163SAPE   C3618354   5.149   1.817   7.254 -0.7462 -0.3019 -0.1827
  163SAPE   H6X18355   5.175   1.708   7.255 -0.3748 -0.2623 -1.7747
  163SAPE   H6Y18356   5.039   1.827   7.241 -0.7983 -2.0751 -1.5881
  163SAPE   C3718357   5.201   1.888   7.385 -0.9522 -0.0547 -0.0210
  163SAPE   H7X18358   5.185   1.998   7.376 -0.6152  0.0123  0.1569
  163SAPE   H7Y18359   5.312   1.874   7.389 -0.9502  0.1631  2.1419
  163SAPE   C3818360   5.138   1.835   7.517  0.0719 -0.4633 -0.3231
  163SAPE   H8X18361   5.155   1.727   7.495 -0.2436  0.0101 -3.2905
  163SAPE   H8Y18362   5.033   1.870   7.518  0.5419  1.0262 -0.9959
  163SAPE   C3918363   5.218   1.881   7.640  0.2328  0.2258  0.3132
  163SAPE   H9X18364   5.217   1.992   7.638  2.2919  0.2681  0.3057
  163SAPE   H9Y18365   5.326   1.858   7.634  0.1443 -0.4017  0.9440
  163SAPE  C31018366   5.145   1.841   7.766  0.0860  0.0964 -0.1448
  163SAPE  H10X18367   5.140   1.731   7.783  1.9195  0.3288  2.6191
  163SAPE  H10Y18368   5.037   1.867   7.760 -0.6409 -2.0934  1.6982
  163SAPE  C31118369   5.217   1.904   7.882  0.5282  0.5023  0.2404
  163SAPE  H11X18370   5.229   2.014   7.874 -0.7903  0.7719  1.4798
  163SAPE  H11Y18371   5.319   1.860   7.888  0.6292  0.3932 -1.6848
  163SAPE  C31218372   5.127   1.875   8.005  0.2398 -0.1643 -0.3383
  163SAPE  H12X18373   5.195   1.885   8.092 -0.2117  0.3986 -0.0430
  163SAPE  H12Y18374   5.100   1.767   8.011 -0.1102 -0.1883 -1.9268
  163SAPE  C31318375   5.002   1.960   8.032 -0.3927  0.5586 -0.5452
  163SAPE  H13X18376   4.930   1.948   7.948 -0.1487 -0.3101 -0.6466
  163SAPE  H13Y18377   5.045   2.062   8.037  1.3377 -0.1919  1.5720
  163SAPE  C31418378   4.911   1.944   8.158 -0.3698 -0.1724 -0.3160
  163SAPE  H14X18379   4.867   1.842   8.153 -1.3051  0.2656 -1.3918
  163SAPE  H14Y18380   4.823   2.012   8.154 -2.5792 -2.5145  2.7856
  163SAPE  C31518381   4.979   1.961   8.287 -0.8732  0.1837 -0.0279
  163SAPE  H15X18382   5.023   2.063   8.298  2.2200 -1.0603  0.1144
  163SAPE  H15Y18383   5.076   1.907   8.282  1.9133  4.7103 -4.1933
  163SAPE  C31618384   4.911   1.918   8.416  0.0475 -0.3339  0.0390
  163SAPE  H16X18385   4.873   1.814   8.404 -1.0880 -0.2634  2.4960
  163SAPE  H16Y18386   4.824   1.986   8.430  1.3746  0.8580  3.4256
  163SAPE  C31718387   4.994   1.928   8.539 -0.9086  0.2437  0.6394
  163SAPE  H17X18388   5.034   2.031   8.550 -0.8673  0.3662 -0.5479
  163SAPE  H17Y18389   5.088   1.868   8.532 -0.5363  0.9567 -0.7732
  163SAPE  C31818390   4.924   1.888   8.665  0.0196 -0.1605  1.7002
  163SAPE  H18X18391   4.825   1.939   8.673 -0.1103 -0.3684  1.4491
  163SAPE  H18Y18392   4.983   1.903   8.757  0.2636 -1.0598  1.6943
  163SAPE  H18Z18393   4.903   1.779   8.657  1.5735 -0.3745 -0.4936
  164SAPE     N18394   6.486   6.756   5.367  0.1061 -0.1151 -0.1953
  164SAPE   HN118395   6.390   6.763   5.406  1.4615 -1.5611  3.9519
  164SAPE   HN218396   6.492   6.806   5.276 -0.0731  0.2848  0.0114
  164SAPE   HN318397   6.512   6.658   5.345 -0.4790 -0.0345 -1.3190
  164SAPE   C1218398   6.576   6.821   5.470 -0.5902  0.6806  0.6371
  164SAPE  H12A18399   6.548   6.928   5.474 -0.2082  0.7445  2.2225
  164SAPE  H12B18400   6.682   6.822   5.437 -0.5391  0.1153  0.7699
  164SAPE   C1118401   6.569   6.753   5.606  0.7290  0.3307 -0.4779
  164SAPE  H11A18402   6.648   6.807   5.662  3.7708 -2.7505 -1.4338
  164SAPE  H11B18403   6.599   6.646   5.601 -0.5536  0.0033 -2.0276
  164SAPE     P18404   6.394   6.875   5.766 -0.1235 -0.1010  0.1408
  164SAPE   O1318405   6.410   7.010   5.711 -0.0884 -0.5395 -0.4607
  164SAPE   O1418406   6.268   6.846   5.824 -0.5850 -0.0115  0.2968
  164SAPE   O1218407   6.435   6.762   5.660  0.2192  0.6350 -0.0037
  164SAPE   O1118408   6.497   6.857   5.881 -0.5358  0.2372 -0.9174
  164SAPE    C118409   6.549   6.972   5.955  0.4107  0.3813 -0.3427
  164SAPE    HA18410   6.659   6.966   5.944  0.4434 -0.9033  0.4455
  164SAPE    HB18411   6.514   7.076   5.937 -0.8171  0.0601  0.0815
  164SAPE    C218412   6.526   6.962   6.113  0.3266 -0.1029  0.7591
  164SAPE    HS18413   6.568   7.054   6.160 -0.1625  2.2583 -2.9455
  164SAPE   O2118414   6.582   6.844   6.176  0.3982  0.7470  0.3976
  164SAPE   C2118415   6.708   6.852   6.204 -0.3959 -0.8755 -0.3928
  164SAPE   O2218416   6.775   6.951   6.169  0.6845 -0.0892 -0.8316
  164SAPE   C2218417   6.759   6.743   6.299 -0.3853  0.0521 -0.4339
  164SAPE   H2R18418   6.696   6.756   6.390 -2.5970 -2.6580 -1.4037
  164SAPE   H2S18419   6.712   6.651   6.257 -1.5950 -0.4973  1.8962
  164SAPE    C318420   6.372   6.972   6.151 -0.5290 -0.1520  0.5858
  164SAPE    HX18421   6.343   6.872   6.112 -4.0055  0.8460  0.2630
  164SAPE    HY18422   6.321   7.056   6.100  0.6983  0.8510  0.9379
  164SAPE   O3118423   6.356   6.982   6.299 -0.3839 -0.1196  0.6868
  164SAPE   C3118424   6.227   6.963   6.336 -0.2423 -0.0671 -0.0163
  164SAPE   O3218425   6.147   6.913   6.264  0.2798 -0.2297  0.0022
  164SAPE   C3218426   6.200   7.015   6.477 -0.0427  0.1542 -0.5642
  164SAPE   H2X18427   6.290   6.977   6.530  0.2047 -0.1074 -1.1528
  164SAPE   H2Y18428   6.113   6.960   6.517 -0.0349 -0.0294 -0.7950
  164SAPE   C2318429   6.913   6.742   6.303  0.1206  0.2891  0.1904
  164SAPE   H3R18430   6.950   6.845   6.322  2.2045 -0.3111 -0.3860
  164SAPE   H3S18431   6.941   6.713   6.200  0.6274  0.7505  0.1930
  164SAPE   C2418432   6.981   6.646   6.404  0.2658 -0.0758 -0.4020
  164SAPE   H4R18433   7.089   6.670   6.403  0.5534 -1.2897  0.1096
  164SAPE   H4S18434   6.956   6.539   6.387  4.0764 -0.8008 -2.5050
  164SAPE   C2518435   6.928   6.682   6.545  0.1984  0.0973  0.7216
  164SAPE   H5R18436   6.825   6.649   6.565  0.1742  0.4582  1.2237
  164SAPE   C2618437   6.986   6.761   6.633 -0.6054 -0.3341  0.3027
  164SAPE   H6R18438   6.948   6.770   6.736 -0.8562  1.2871  0.1034
  164SAPE   C2718439   7.125   6.824   6.616 -0.1587 -0.4701  0.5263
  164SAPE   H7R18440   7.141   6.846   6.508 -1.4723  0.7021  0.5424
  164SAPE   H7S18441   7.192   6.740   6.642 -0.1146 -0.5427  0.1811
  164SAPE   C2818442   7.151   6.942   6.706 -0.2170 -0.0810  1.1181
  164SAPE   H8R18443   7.152   7.040   6.657 -0.8319 -0.4141  0.4207
  164SAPE   C2918444   7.186   6.938   6.833  0.1399  0.3259 -0.3299
  164SAPE   H9R18445   7.221   7.027   6.887  1.9729 -0.9316  0.6882
  164SAPE  C21018446   7.213   6.814   6.920  0.4237 -0.4443 -0.3380
  164SAPE  H10R18447   7.225   6.719   6.864 -0.2225 -1.0396  0.5062
  164SAPE  H10S18448   7.126   6.802   6.989  1.3979 -1.4944  0.7427
  164SAPE  C21118449   7.344   6.840   6.993  0.1400  0.5107 -0.0194
  164SAPE  H11R18450   7.432   6.818   6.931 -1.1278 -0.4091 -1.5804
  164SAPE  C21218451   7.369   6.869   7.119 -0.4771  0.2344 -0.4673
  164SAPE  H12R18452   7.474   6.876   7.152 -0.7650 -1.8682  1.1198
  164SAPE  C21318453   7.255   6.886   7.217 -0.0247 -0.6199  0.7538
  164SAPE  H13R18454   7.283   6.836   7.312  0.3263  2.5325  2.4417
  164SAPE  H13S18455   7.164   6.830   7.186  0.4732 -2.3345  2.2146
  164SAPE  C21418456   7.218   7.029   7.237 -0.5603  0.0728 -0.6091
  164SAPE  H14R18457   7.242   7.093   7.151  0.1881 -1.2207 -1.4038
  164SAPE  C21518458   7.149   7.090   7.338 -0.6394 -0.0880 -0.3607
  164SAPE  H15R18459   7.138   7.200   7.340 -0.0692  0.0246 -2.0602
  164SAPE  C21618460   7.095   7.011   7.460  0.0450 -0.0898  0.4468
  164SAPE  H16R18461   7.137   6.909   7.475  0.9653  0.1261 -0.5612
  164SAPE  H16S18462   6.990   6.976   7.448  0.2640 -1.4506  2.1477
  164SAPE  C21718463   7.092   7.090   7.587 -0.1736  0.3908  0.3064
  164SAPE  H17R18464   7.057   7.010   7.656  1.6152 -1.0715 -0.3850
  164SAPE  H17S18465   7.021   7.176   7.587  1.2903  1.6944 -1.6831
  164SAPE  C21818466   7.229   7.128   7.644 -0.0175 -0.1521 -0.0230
  164SAPE  H18R18467   7.256   7.223   7.593  0.2898  1.4978  2.9842
  164SAPE  H18S18468   7.293   7.037   7.636  0.5017  0.1309  0.8093
  164SAPE  C21918469   7.216   7.171   7.790  0.7799 -0.2633 -0.0902
  164SAPE  H19R18470   7.154   7.094   7.840 -1.3933 -0.0950 -2.3399
  164SAPE  H19S18471   7.164   7.269   7.803  0.9924  0.1837 -2.2109
  164SAPE  C22018472   7.351   7.174   7.859  0.7155  0.2029  0.0850
  164SAPE  H20R18473   7.406   7.079   7.848 -0.6281 -0.9221  2.3627
  164SAPE  H20S18474   7.339   7.194   7.967 -1.6052 -0.2853 -0.0229
  164SAPE  H20T18475   7.416   7.250   7.810  2.9784 -1.1177  0.9212
  164SAPE   C3318476   6.172   7.167   6.497 -0.4295 -1.0188  0.1308
  164SAPE   H3X18477   6.065   7.186   6.474 -0.4953 -2.6261 -1.0974
  164SAPE   H3Y18478   6.233   7.216   6.418  0.3127  0.9978  1.8814
  164SAPE   C3418479   6.205   7.226   6.638  0.0109  0.0946  0.4293
  164SAPE   H4X18480   6.159   7.327   6.639 -0.3631 -0.0075  3.4809
  164SAPE   H4Y18481   6.315   7.241   6.646 -0.0268  0.2908  0.5998
  164SAPE   C3518482   6.165   7.136   6.753  0.0552 -0.2015  0.6334
  164SAPE   H5X18483   6.200   7.032   6.731  0.1494  0.2997 -1.8727
  164SAPE   H5Y18484   6.055   7.131   6.759 -0.0209  1.2389  0.6393
  164SAPE   C3618485   6.231   7.176   6.885 -0.4505 -0.6980 -0.6448
  164SAPE   H6X18486   6.210   7.284   6.898  1.4641 -0.2525 -0.9282
  164SAPE   H6Y18487   6.341   7.158   6.892 -0.5381 -0.6379  1.3173
  164SAPE   C3718488   6.174   7.092   6.996  0.4616 -0.2936  0.7961
  164SAPE   H7X18489   6.228   6.998   7.019  0.8549  0.1669  1.8229
  164SAPE   H7Y18490   6.080   7.052   6.953  1.4989 -1.4219 -0.5270
  164SAPE   C3818491   6.158   7.157   7.134  0.4171  0.7715 -0.0180
  164SAPE   H8X18492   6.095   7.246   7.117  0.9638  1.1837  0.0919
  164SAPE   H8Y18493   6.259   7.194   7.160  0.0015  0.9495  1.4669
  164SAPE   C3918494   6.089   7.075   7.250  0.1044  0.5085 -0.3362
  164SAPE   H9X18495   6.000   7.019   7.214 -0.5049 -0.6032  2.6001
  164SAPE   H9Y18496   6.050   7.152   7.319  1.0172  2.2398 -1.6553
  164SAPE  C31018497   6.192   6.979   7.319 -0.0159  0.0878 -0.1847
  164SAPE  H10X18498   6.246   7.044   7.391  0.3011 -0.2477 -0.1199
  164SAPE  H10Y18499   6.256   6.932   7.241  1.9442 -0.2907  1.5591
  164SAPE  C31118500   6.123   6.866   7.397 -0.4512 -0.1464 -0.0210
  164SAPE  H11X18501   6.138   6.774   7.337  1.5963 -0.0383  0.2547
  164SAPE  H11Y18502   6.018   6.899   7.411 -0.5666 -1.1594  1.7238
  164SAPE  C31218503   6.178   6.823   7.535 -0.2308 -1.3379  0.0428
  164SAPE  H12X18504   6.179   6.909   7.606  2.1484 -2.7076  1.8087
  164SAPE  H12Y18505   6.287   6.803   7.524 -0.0268 -1.0603  1.3730
  164SAPE  C31318506   6.111   6.701   7.595 -0.6686 -0.0048 -0.9184
  164SAPE  H13X18507   6.143   6.612   7.535  1.1266  1.0244 -1.5397
  164SAPE  H13Y18508   6.001   6.712   7.580 -1.0126 -1.5782  0.2368
  164SAPE  C31418509   6.133   6.686   7.750  0.2697  0.8467 -0.2468
  164SAPE  H14X18510   6.072   6.599   7.781 -0.2010  1.1245 -0.3803
  164SAPE  H14Y18511   6.079   6.772   7.795 -2.4684 -1.7145  1.8053
  164SAPE  C31518512   6.273   6.683   7.796 -0.3959 -0.2346 -0.0783
  164SAPE  H15X18513   6.287   6.640   7.898 -0.7725  0.3343  0.2191
  164SAPE  H15Y18514   6.316   6.786   7.794  2.0533 -1.1500 -3.3440
  164SAPE  C31618515   6.356   6.590   7.707  0.5007  1.0389  0.3795
  164SAPE  H16X18516   6.386   6.648   7.617  1.0147 -1.2204 -0.9741
  164SAPE  H16Y18517   6.311   6.493   7.679 -0.1222  1.7315 -1.1767
  164SAPE  C31718518   6.490   6.546   7.780  0.0218 -0.4166 -0.1790
  164SAPE  H17X18519   6.455   6.525   7.883 -1.3571 -0.8142 -0.7144
  164SAPE  H17Y18520   6.555   6.636   7.789 -2.9817  1.8335  0.4149
  164SAPE  C31818521   6.558   6.422   7.723 -0.2940 -0.0922 -0.4807
  164SAPE  H18X18522   6.568   6.447   7.615 -0.8079 -0.8687 -0.7082
  164SAPE  H18Y18523   6.505   6.325   7.728 -0.1953 -0.2151 -1.6151
  164SAPE  H18Z18524   6.664   6.414   7.756  0.5364  1.2467 -2.6217
  165SAPE     N18525   1.185   2.571   6.145 -0.0107  0.0173 -0.1088
  165SAPE   HN118526   1.137   2.659   6.115  1.7300  1.8517  2.0960
  165SAPE   HN218527   1.111   2.505   6.178  0.9708  0.1051  2.5140
  165SAPE   HN318528   1.229   2.602   6.234 -0.8047 -0.9194  0.6358
  165SAPE   C1218529   1.273   2.501   6.042  0.3600 -0.6793 -0.9366
  165SAPE  H12A18530   1.207   2.483   5.954  0.1967 -0.9920 -0.7538
  165SAPE  H12B18531   1.296   2.405   6.094 -3.0055 -0.6903  0.7984
  165SAPE   C1118532   1.388   2.597   6.008 -0.0842  0.5476  0.8554
  165SAPE  H11A18533   1.347   2.695   5.975 -1.7532  0.0340  1.2925
  165SAPE  H11B18534   1.441   2.553   5.921  0.3218  2.1934  0.2181
  165SAPE     P18535   1.604   2.542   6.148  0.1560 -0.4045  0.0107
  165SAPE   O1318536   1.567   2.406   6.183 -0.2040 -0.9133 -0.4475
  165SAPE   O1418537   1.707   2.562   6.044 -0.2443  0.0044 -0.1356
  165SAPE   O1218538   1.475   2.617   6.121  1.0668 -0.1601 -0.0058
  165SAPE   O1118539   1.662   2.607   6.274  0.4044  0.1343 -0.3528
  165SAPE    C118540   1.580   2.677   6.374  0.1576  0.3356 -0.0343
  165SAPE    HA18541   1.608   2.784   6.383  3.6546 -0.5563  1.4394
  165SAPE    HB18542   1.472   2.682   6.349  0.6157 -0.3900 -2.4510
  165SAPE    C218543   1.588   2.628   6.523 -0.2792 -0.2273 -0.6098
  165SAPE    HS18544   1.544   2.710   6.583  2.5267  1.9155 -1.2588
  165SAPE   O2118545   1.728   2.615   6.569  0.2609 -0.9031  0.7028
  165SAPE   C2118546   1.744   2.628   6.698 -0.2700  0.1360 -0.1341
  165SAPE   O2218547   1.661   2.669   6.775  0.2633 -0.7097  0.4215
  165SAPE   C2218548   1.886   2.568   6.736  0.1642 -0.0006 -0.0907
  165SAPE   H2R18549   1.874   2.459   6.751  0.6001 -0.0609 -0.1600
  165SAPE   H2S18550   1.958   2.575   6.652  0.1489  2.5229  0.0264
  165SAPE    C318551   1.514   2.494   6.538  0.0300 -0.3182 -0.9176
  165SAPE    HX18552   1.581   2.411   6.507  0.7491 -0.5613  1.1698
  165SAPE    HY18553   1.422   2.497   6.475  0.5863  2.9426 -1.7858
  165SAPE   O3118554   1.477   2.482   6.674  0.2433 -0.0397 -0.3292
  165SAPE   C3118555   1.349   2.499   6.717  0.0764  0.5919  0.8233
  165SAPE   O3218556   1.253   2.517   6.643 -0.3228  0.2693  0.0532
  165SAPE   C3218557   1.349   2.489   6.868  0.7091  0.4655  0.3547
  165SAPE   H2X18558   1.415   2.567   6.913 -0.3546  0.5047  1.9541
  165SAPE   H2Y18559   1.380   2.384   6.888 -1.5219 -0.0302  1.5002
  165SAPE   C2318560   1.957   2.635   6.856 -0.2495 -0.2463 -0.3638
  165SAPE   H3R18561   1.898   2.626   6.950 -1.6499 -2.3517 -1.3539
  165SAPE   H3S18562   1.981   2.739   6.828 -0.4412 -0.4453 -1.3191
  165SAPE   C2418563   2.095   2.573   6.877 -0.4172  0.4690  0.1764
  165SAPE   H4R18564   2.152   2.594   6.784 -0.8192 -0.4230 -0.2855
  165SAPE   H4S18565   2.081   2.463   6.883 -1.5800  0.6181  0.5374
  165SAPE   C2518566   2.171   2.645   6.992  0.0645 -0.5810 -0.4664
  165SAPE   H5R18567   2.179   2.754   6.984 -2.0389 -0.2407  1.0448
  165SAPE   C2618568   2.221   2.583   7.099  0.7005  0.1114  0.4084
  165SAPE   H6R18569   2.272   2.644   7.176  0.7779  2.1272 -1.1605
  165SAPE   C2718570   2.219   2.433   7.133  1.2621 -0.6206  0.2548
  165SAPE   H7R18571   2.323   2.398   7.150  1.3823  0.7713  2.8952
  165SAPE   H7S18572   2.180   2.382   7.042  0.1417  0.0479  0.3425
  165SAPE   C2818573   2.126   2.403   7.243  0.6196  0.2017 -0.1617
  165SAPE   H8R18574   2.023   2.406   7.204 -0.3179  0.0342  2.1055
  165SAPE   C2918575   2.144   2.383   7.371  1.0618 -0.0759  0.1665
  165SAPE   H9R18576   2.053   2.353   7.425 -0.5531 -2.2459 -3.3457
  165SAPE  C21018577   2.275   2.390   7.440 -0.5358 -0.5471  0.4659
  165SAPE  H10R18578   2.356   2.441   7.383  1.4998 -1.7088  2.1537
  165SAPE  H10S18579   2.310   2.285   7.452  0.0585 -0.0595  4.1870
  165SAPE  C21118580   2.264   2.444   7.581  0.4727  0.2119  0.9180
  165SAPE  H11R18581   2.271   2.554   7.576 -0.9012  0.2687 -0.1412
  165SAPE  C21218582   2.235   2.375   7.695  0.1114  1.1030  0.1518
  165SAPE  H12R18583   2.254   2.417   7.795  2.2183  0.6237 -0.0023
  165SAPE  C21318584   2.207   2.228   7.705 -0.1053 -0.2809  0.4186
  165SAPE  H13R18585   2.185   2.203   7.599 -1.7629  1.2935  0.3536
  165SAPE  H13S18586   2.110   2.210   7.754 -0.6854 -2.9631 -1.4776
  165SAPE  C21418587   2.300   2.136   7.791 -0.0222 -0.3622  0.3238
  165SAPE  H14R18588   2.409   2.137   7.773 -0.0885 -1.6899 -0.2903
  165SAPE  C21518589   2.265   2.049   7.884  0.3155 -0.5498  0.3784
  165SAPE  H15R18590   2.348   2.001   7.938 -1.2579 -1.8953  1.7497
  165SAPE  C21618591   2.125   2.020   7.935  0.1453 -0.9484 -0.7953
  165SAPE  H16R18592   2.108   1.915   7.968  0.2038 -0.7671 -0.1664
  165SAPE  H16S18593   2.049   2.030   7.855  0.2438 -1.8488 -1.0065
  165SAPE  C21718594   2.087   2.122   8.047 -0.0355 -0.4386  0.0019
  165SAPE  H17R18595   2.067   2.222   8.003  1.3779  0.3542  1.1000
  165SAPE  H17S18596   2.157   2.141   8.131 -2.5101  2.6999  1.5399
  165SAPE  C21818597   1.961   2.062   8.116 -0.0261 -0.1220 -0.7489
  165SAPE  H18R18598   1.991   1.970   8.171 -0.7936 -1.1895 -2.0603
  165SAPE  H18S18599   1.886   2.022   8.045 -2.0331  2.9543 -0.5597
  165SAPE  C21918600   1.902   2.148   8.232 -0.3976  0.5406  0.7200
  165SAPE  H19R18601   1.902   2.254   8.196 -1.0606 -0.2237 -1.7136
  165SAPE  H19S18602   1.977   2.141   8.314  1.4106 -0.5315 -0.9272
  165SAPE  C22018603   1.766   2.096   8.289  0.2876  0.0405  0.3975
  165SAPE  H20R18604   1.737   2.157   8.378 -1.3205  1.4928 -1.0575
  165SAPE  H20S18605   1.762   1.986   8.295 -0.8436  0.0855  0.8476
  165SAPE  H20T18606   1.685   2.118   8.216 -0.3944 -0.1275  1.0804
  165SAPE   C3318607   1.214   2.507   6.947 -0.5389  0.1959  1.0264
  165SAPE   H3X18608   1.141   2.445   6.892  0.9904 -0.6533 -0.1170
  165SAPE   H3Y18609   1.195   2.617   6.950  1.0752  0.5739 -0.6290
  165SAPE   C3418610   1.220   2.469   7.092 -0.0641 -0.3491  0.5503
  165SAPE   H4X18611   1.293   2.541   7.134 -2.2113  1.6288  1.0684
  165SAPE   H4Y18612   1.257   2.366   7.115 -2.0915 -1.3469 -0.3679
  165SAPE   C3518613   1.089   2.502   7.169 -0.2794 -0.7501  0.4660
  165SAPE   H5X18614   1.012   2.423   7.162 -0.7884 -0.1216 -1.9388
  165SAPE   H5Y18615   1.042   2.592   7.123  0.7177 -0.0734  0.7179
  165SAPE   C3618616   1.101   2.529   7.322  0.0020 -0.0529 -0.7175
  165SAPE   H6X18617   1.169   2.617   7.325  0.4932 -0.4502  0.9735
  165SAPE   H6Y18618   1.142   2.455   7.394  1.5141  1.4203  0.0055
  165SAPE   C3718619   0.967   2.589   7.386  0.0905  0.1960 -0.6195
  165SAPE   H7X18620   0.913   2.499   7.421  1.0880 -0.8861 -1.8107
  165SAPE   H7Y18621   0.907   2.641   7.308  0.1624  0.9353 -0.1992
  165SAPE   C3818622   0.997   2.677   7.507  0.4946  0.1924  0.1348
  165SAPE   H8X18623   1.047   2.774   7.488  1.9577 -0.3598  0.9975
  165SAPE   H8Y18624   1.062   2.619   7.577  0.1740 -0.5415 -0.1659
  165SAPE   C3918625   0.871   2.714   7.584  0.3534  0.5338  0.2040
  165SAPE   H9X18626   0.814   2.626   7.621  0.8017  0.1503  0.0031
  165SAPE   H9Y18627   0.802   2.742   7.502  0.3804 -1.7770 -0.6994
  165SAPE  C31018628   0.892   2.809   7.696 -0.5131 -0.4022  0.0158
  165SAPE  H10X18629   0.945   2.904   7.672 -1.2359  1.0107  3.4235
  165SAPE  H10Y18630   0.956   2.755   7.769 -1.4535 -1.1478  0.3114
  165SAPE  C31118631   0.760   2.849   7.762 -0.3618 -0.2899  0.2443
  165SAPE  H11X18632   0.718   2.760   7.813 -1.1385  0.8901  1.7477
  165SAPE  H11Y18633   0.697   2.882   7.676 -0.8425 -1.3894  0.1585
  165SAPE  C31218634   0.775   2.965   7.869  0.7652  0.1246 -0.5981
  165SAPE  H12X18635   0.681   2.980   7.926  0.1271 -0.7643 -1.3753
  165SAPE  H12Y18636   0.801   3.060   7.816  3.4811  1.4013  2.6657
  165SAPE  C31318637   0.891   2.947   7.968 -0.0804  0.2777  0.6462
  165SAPE  H13X18638   0.986   2.941   7.912 -1.1564 -0.3866 -1.1901
  165SAPE  H13Y18639   0.876   2.845   8.008 -1.3735 -0.1493 -0.8221
  165SAPE  C31418640   0.903   3.053   8.072 -0.0185 -0.7369 -0.1303
  165SAPE  H14X18641   0.992   3.032   8.134 -0.6714  3.2374  2.5049
  165SAPE  H14Y18642   0.817   3.045   8.142 -0.2167 -0.4575 -0.3353
  165SAPE  C31518643   0.921   3.195   8.017 -0.0210  0.2051  0.3836
  165SAPE  H15X18644   0.822   3.219   7.974  0.8349 -0.3372 -2.0667
  165SAPE  H15Y18645   0.982   3.202   7.924  0.5949  0.6484  0.8116
  165SAPE  C31618646   0.971   3.294   8.126 -0.1961  0.1712 -0.6755
  165SAPE  H16X18647   1.053   3.247   8.185 -0.5131 -0.4543 -0.7200
  165SAPE  H16Y18648   0.890   3.303   8.202  0.8939  1.3582  0.4033
  165SAPE  C31718649   1.018   3.422   8.051  0.4042  0.1980 -0.6892
  165SAPE  H17X18650   0.943   3.449   7.974 -0.4407 -0.7901 -0.2582
  165SAPE  H17Y18651   1.114   3.396   8.001 -0.3961 -0.3007 -2.0195
  165SAPE  C31818652   1.041   3.538   8.144 -0.1230 -0.8864  0.4305
  165SAPE  H18X18653   1.058   3.621   8.073 -1.2990 -2.2285 -1.5110
  165SAPE  H18Y18654   1.132   3.529   8.208  1.3699  0.1526 -1.4588
  165SAPE  H18Z18655   0.956   3.555   8.214 -0.5005 -2.7404  0.4887
  166SAPE     N18656   1.048   4.854   5.942  0.3669 -0.2383  0.4716
  166SAPE   HN118657   1.041   4.953   5.911 -1.7461 -0.4168  0.2514
  166SAPE   HN218658   1.091   4.795   5.867  2.9895  2.7978 -0.6882
  166SAPE   HN318659   0.957   4.806   5.958 -0.0073 -0.7635 -2.5464
  166SAPE   C1218660   1.125   4.855   6.068  0.2229  0.9590  0.6022
  166SAPE  H12A18661   1.122   4.747   6.097  1.9171  0.8943  0.6060
  166SAPE  H12B18662   1.077   4.926   6.138 -2.4784 -1.6888  1.6878
  166SAPE   C1118663   1.272   4.895   6.042 -0.7199  0.5786 -0.2123
  166SAPE  H11A18664   1.334   4.906   6.134 -1.3874  0.1522  0.2980
  166SAPE  H11B18665   1.267   4.995   5.995  0.9958  0.2365 -1.2192
  166SAPE     P18666   1.485   4.760   5.952 -0.2359  0.0949 -0.0755
  166SAPE   O1318667   1.504   4.666   5.841 -0.0462 -0.3086  0.2765
  166SAPE   O1418668   1.561   4.889   5.950 -0.0053  0.0227  0.2922
  166SAPE   O1218669   1.335   4.794   5.949  0.4221 -0.0223 -0.1105
  166SAPE   O1118670   1.503   4.698   6.089 -0.2496  0.1277 -0.3401
  166SAPE    C118671   1.630   4.641   6.130  0.5629  0.3031  0.2106
  166SAPE    HA18672   1.635   4.532   6.105  1.0216 -0.6515  3.9070
  166SAPE    HB18673   1.719   4.695   6.090  1.0040 -1.2854 -1.1026
  166SAPE    C218674   1.632   4.648   6.283  0.4004 -0.0259  0.3030
  166SAPE    HS18675   1.557   4.576   6.323  1.0376 -2.9071 -3.1686
  166SAPE   O2118676   1.611   4.789   6.319 -0.0037  0.2466  0.2475
  166SAPE   C2118677   1.482   4.818   6.346 -0.0489  0.1169  0.0796
  166SAPE   O2218678   1.383   4.743   6.334  0.7063 -0.5444  0.4818
  166SAPE   C2218679   1.479   4.952   6.410  0.1452 -0.2401  0.3979
  166SAPE   H2R18680   1.581   4.993   6.423 -0.1730  0.8858 -0.4943
  166SAPE   H2S18681   1.444   5.022   6.332  3.2084 -0.5564 -1.4312
  166SAPE    C318682   1.758   4.609   6.359 -0.7633  0.2941  0.1101
  166SAPE    HX18683   1.815   4.704   6.364 -1.0480  0.4522  0.3342
  166SAPE    HY18684   1.810   4.527   6.304 -1.3184 -0.0032  0.0183
  166SAPE   O3118685   1.733   4.557   6.490  0.2206 -0.6905  0.1097
  166SAPE   C3118686   1.678   4.436   6.497 -0.8432  0.6457  0.1772
  166SAPE   O3218687   1.642   4.366   6.404  0.6289 -0.3174 -0.3123
  166SAPE   C3218688   1.668   4.400   6.643  0.5041  0.5950  0.3384
  166SAPE   H2X18689   1.590   4.462   6.693  2.0973  3.1359 -0.1057
  166SAPE   H2Y18690   1.760   4.440   6.690 -0.3159  1.3552  1.3596
  166SAPE   C2318691   1.404   4.962   6.548  0.9947 -0.4735  0.4441
  166SAPE   H3R18692   1.299   4.957   6.513  2.1115  1.8116 -3.9964
  166SAPE   H3S18693   1.428   5.061   6.593  2.0270 -0.5315  0.0537
  166SAPE   C2418694   1.457   4.855   6.638 -0.4103 -1.0232  0.2730
  166SAPE   H4R18695   1.565   4.869   6.663 -0.9253  1.5346  1.3050
  166SAPE   H4S18696   1.444   4.755   6.590 -1.4645 -1.4637  1.4290
  166SAPE   C2518697   1.381   4.848   6.767  0.1402  0.2587  0.0136
  166SAPE   H5R18698   1.308   4.766   6.772  0.9002 -0.4218 -0.0005
  166SAPE   C2618699   1.417   4.916   6.877 -0.2613  0.2727  0.3970
  166SAPE   H6R18700   1.357   4.888   6.965 -1.0606 -2.0963 -0.7923
  166SAPE   C2718701   1.523   5.022   6.902 -0.2597  0.2188  0.1046
  166SAPE   H7R18702   1.559   5.063   6.806  3.3611 -1.8786  0.3794
  166SAPE   H7S18703   1.605   4.970   6.957 -0.1751  0.2741  0.0301
  166SAPE   C2818704   1.480   5.134   6.993  0.4556  0.3732  0.4423
  166SAPE   H8R18705   1.414   5.209   6.947 -0.0567 -0.0680  0.4535
  166SAPE   C2918706   1.490   5.152   7.129 -0.4500  0.2887  0.2588
  166SAPE   H9R18707   1.465   5.247   7.178 -0.5431  2.0707 -2.9619
  166SAPE  C21018708   1.545   5.043   7.220 -0.5215 -0.6705  0.2378
  166SAPE  H10R18709   1.588   5.100   7.306 -1.9139 -0.0884  0.5748
  166SAPE  H10S18710   1.626   4.990   7.165  1.0010  1.1475  0.6163
  166SAPE  C21118711   1.442   4.941   7.254 -0.2541  0.1234 -0.4698
  166SAPE  H11R18712   1.371   4.917   7.173  0.1309 -3.1813  0.0695
  166SAPE  C21218713   1.438   4.870   7.370 -0.1806  0.7639 -0.0123
  166SAPE  H12R18714   1.360   4.798   7.398  0.8733 -0.8316 -0.9905
  166SAPE  C21318715   1.541   4.884   7.485  0.2493 -0.3820 -1.0515
  166SAPE  H13R18716   1.601   4.977   7.483 -1.5481  0.8432 -0.4659
  166SAPE  H13S18717   1.612   4.798   7.484  0.7931 -0.0070  1.0980
  166SAPE  C21418718   1.464   4.885   7.614  0.3279  0.7036  0.0740
  166SAPE  H14R18719   1.420   4.986   7.621 -3.2359 -0.7677  1.2484
  166SAPE  C21518720   1.427   4.789   7.700  0.7793 -0.8306 -0.1578
  166SAPE  H15R18721   1.345   4.815   7.767 -1.2372 -0.3736 -2.6538
  166SAPE  C21618722   1.476   4.652   7.686  0.1288 -0.1654 -1.0883
  166SAPE  H16R18723   1.513   4.612   7.589 -0.8201 -2.1864 -0.6723
  166SAPE  H16S18724   1.408   4.572   7.721 -0.6966  0.2908 -1.6316
  166SAPE  C21718725   1.596   4.634   7.792 -0.5063 -0.0134 -0.0816
  166SAPE  H17R18726   1.679   4.690   7.743  1.1223 -0.2870  2.2019
  166SAPE  H17S18727   1.623   4.527   7.781  0.2791 -0.1863  2.6557
  166SAPE  C21818728   1.563   4.673   7.939 -0.4121  0.1704 -0.4005
  166SAPE  H18R18729   1.512   4.587   7.985  0.6903 -1.4590 -2.0802
  166SAPE  H18S18730   1.494   4.760   7.938 -0.3966  0.1826 -0.5928
  166SAPE  C21918731   1.689   4.709   8.019 -0.3867  0.1536 -0.2022
  166SAPE  H19R18732   1.740   4.791   7.965  0.3513 -0.6553 -0.7740
  166SAPE  H19S18733   1.768   4.631   8.028  0.7461  1.4596  2.2140
  166SAPE  C22018734   1.669   4.767   8.160  0.4378  0.2316  0.7827
  166SAPE  H20R18735   1.761   4.817   8.197 -0.1647  1.3051  0.8839
  166SAPE  H20S18736   1.649   4.687   8.234  1.3830 -0.6167  0.1554
  166SAPE  H20T18737   1.596   4.851   8.167 -0.7259 -0.5918 -0.6973
  166SAPE   C3318738   1.637   4.255   6.671  0.6576  0.0653 -0.0095
  166SAPE   H3X18739   1.720   4.192   6.632  0.3984 -0.8227  0.8381
  166SAPE   H3Y18740   1.545   4.237   6.612 -0.1901  0.5181  1.1253
  166SAPE   C3418741   1.606   4.228   6.823  0.1801 -0.1162  0.1133
  166SAPE   H4X18742   1.553   4.308   6.878 -0.4134 -0.0006 -0.6146
  166SAPE   H4Y18743   1.709   4.232   6.865  0.5978 -2.9110 -0.3926
  166SAPE   C3518744   1.544   4.090   6.842 -0.1980 -0.2250  0.7014
  166SAPE   H5X18745   1.615   4.012   6.805  0.8771  0.4721  1.2363
  166SAPE   H5Y18746   1.458   4.082   6.773  0.9183 -1.5025 -0.5956
  166SAPE   C3618747   1.508   4.057   6.989 -0.6407 -0.1617  0.4849
  166SAPE   H6X18748   1.480   3.949   6.987 -1.1790 -0.0257 -1.5047
  166SAPE   H6Y18749   1.422   4.119   7.021 -0.2723  0.0382  1.1015
  166SAPE   C3718750   1.620   4.068   7.086 -0.3451  0.3705  0.9583
  166SAPE   H7X18751   1.665   4.167   7.109 -0.5739  1.1481 -1.6337
  166SAPE   H7Y18752   1.706   4.015   7.041 -0.5627  1.3833 -0.7592
  166SAPE   C3818753   1.590   3.985   7.213 -1.2478 -0.8098 -0.8827
  166SAPE   H8X18754   1.554   3.887   7.176  0.6190 -1.5737 -0.7468
  166SAPE   H8Y18755   1.522   4.046   7.276  0.6406  1.1239 -0.5899
  166SAPE   C3918756   1.714   3.964   7.301 -0.1027  0.4148  0.0118
  166SAPE   H9X18757   1.751   4.065   7.328  0.2512 -0.2908  2.3222
  166SAPE   H9Y18758   1.789   3.929   7.226 -1.2936 -1.0541 -0.5512
  166SAPE  C31018759   1.685   3.890   7.425 -0.4134 -0.1832  0.2776
  166SAPE  H10X18760   1.663   3.786   7.393 -2.9305  0.5067 -0.4772
  166SAPE  H10Y18761   1.593   3.933   7.470 -0.5514  1.1576 -1.1808
  166SAPE  C31118762   1.802   3.875   7.528  0.3285 -0.3372  0.6155
  166SAPE  H11X18763   1.844   3.970   7.568  2.3246 -0.6963 -0.5151
  166SAPE  H11Y18764   1.888   3.832   7.473  1.4054  2.0952  0.2709
  166SAPE  C31218765   1.767   3.789   7.645  0.2363  0.4688  0.5887
  166SAPE  H12X18766   1.763   3.680   7.621 -0.1369 -0.0104  2.6478
  166SAPE  H12Y18767   1.671   3.825   7.687  0.0806 -1.2132  1.8109
  166SAPE  C31318768   1.873   3.782   7.758  0.4555 -0.0848 -0.1539
  166SAPE  H13X18769   1.904   3.884   7.788 -0.5401  0.6306 -1.4551
  166SAPE  H13Y18770   1.964   3.734   7.714  0.9848  1.6075 -0.9762
  166SAPE  C31418771   1.815   3.710   7.891 -0.0848 -0.6303  0.6489
  166SAPE  H14X18772   1.783   3.608   7.860 -1.3509  0.0594 -0.4124
  166SAPE  H14Y18773   1.721   3.767   7.906 -0.9401 -1.2230 -1.8916
  166SAPE  C31518774   1.909   3.712   8.016  0.5714 -0.4750 -0.9140
  166SAPE  H15X18775   1.929   3.821   8.025  0.7866 -0.6825  2.2632
  166SAPE  H15Y18776   2.003   3.657   7.993  0.0796 -1.8334  0.1479
  166SAPE  C31618777   1.850   3.656   8.149 -0.5944  0.2170  0.3859
  166SAPE  H16X18778   1.831   3.547   8.136  1.5701 -0.4646  2.2260
  166SAPE  H16Y18779   1.752   3.704   8.170 -1.3796 -0.5083 -1.3619
  166SAPE  C31718780   1.948   3.677   8.261 -0.1862  0.0186 -0.3704
  166SAPE  H17X18781   1.977   3.784   8.259  1.3646 -0.2251  2.9136
  166SAPE  H17Y18782   2.052   3.643   8.243 -0.1049  1.1855 -2.3816
  166SAPE  C31818783   1.911   3.637   8.404 -0.4812 -1.1578  0.2541
  166SAPE  H18X18784   1.800   3.646   8.397 -0.4077 -1.4286 -2.7351
  166SAPE  H18Y18785   1.963   3.710   8.470 -1.0208 -0.9273  0.4347
  166SAPE  H18Z18786   1.943   3.533   8.422  1.5877 -0.6951 -0.4147
  167SAPE     N18787   2.664   3.268   6.254  0.2221 -0.0983  0.0894
  167SAPE   HN118788   2.720   3.210   6.188  1.0057  0.7264 -0.0056
  167SAPE   HN218789   2.567   3.275   6.218  1.1854 -0.1164 -2.8171
  167SAPE   HN318790   2.707   3.363   6.257  0.3520 -0.1702  0.5123
  167SAPE   C1218791   2.645   3.198   6.383 -0.2282 -0.9436 -0.0966
  167SAPE  H12A18792   2.730   3.227   6.449  0.9299  2.2839 -2.7279
  167SAPE  H12B18793   2.653   3.091   6.354 -1.1036 -0.3881 -2.5929
  167SAPE   C1118794   2.515   3.235   6.444  0.2956 -0.2769  0.2705
  167SAPE  H11A18795   2.537   3.342   6.462  1.1471 -0.5314  0.8004
  167SAPE  H11B18796   2.502   3.188   6.543 -1.3783  0.1313  0.2706
  167SAPE     P18797   2.325   3.327   6.279 -0.3082  0.0497  0.4793
  167SAPE   O1318798   2.407   3.342   6.150 -0.2174 -0.1743  0.1649
  167SAPE   O1418799   2.180   3.283   6.273 -0.4824 -0.2828 -0.5567
  167SAPE   O1218800   2.405   3.211   6.360  0.4860 -0.5155 -0.5599
  167SAPE   O1118801   2.335   3.454   6.373 -0.1948 -0.1934 -0.2840
  167SAPE    C118802   2.257   3.453   6.493 -0.2518  0.4166  0.1990
  167SAPE    HA18803   2.148   3.461   6.474 -0.1343  0.8947 -0.2803
  167SAPE    HB18804   2.286   3.371   6.562  1.5494 -0.8443 -1.9030
  167SAPE    C218805   2.276   3.590   6.565  0.8400  0.0699 -0.2258
  167SAPE    HS18806   2.222   3.671   6.512  0.5567  0.3750  0.5078
  167SAPE   O2118807   2.417   3.621   6.575 -0.2155 -0.1823 -0.5125
  167SAPE   C2118808   2.451   3.746   6.610 -0.6741  0.6404 -0.0500
  167SAPE   O2218809   2.387   3.847   6.600 -0.0353 -0.3844 -0.1031
  167SAPE   C2218810   2.596   3.733   6.648  0.0633  0.1057 -0.2516
  167SAPE   H2R18811   2.605   3.644   6.714 -2.4102  0.7249  1.0399
  167SAPE   H2S18812   2.652   3.704   6.556 -1.6035 -4.1708 -0.1403
  167SAPE    C318813   2.207   3.568   6.703  0.0144 -0.3278  0.7568
  167SAPE    HX18814   2.270   3.490   6.751 -0.2487 -0.9163  0.1548
  167SAPE    HY18815   2.104   3.527   6.691 -0.3961  1.1786 -1.4407
  167SAPE   O3118816   2.211   3.678   6.798 -0.0384 -0.2861 -0.4284
  167SAPE   C3118817   2.130   3.778   6.774  0.1296 -0.2247  0.2391
  167SAPE   O3218818   2.030   3.767   6.703  0.4370  0.3795 -0.3513
  167SAPE   C3218819   2.166   3.895   6.859  0.0773  1.0164 -0.2496
  167SAPE   H2X18820   2.255   3.931   6.803  0.5985 -0.1995 -0.2298
  167SAPE   H2Y18821   2.199   3.848   6.954  0.1295 -0.5965 -1.0294
  167SAPE   C2318822   2.655   3.857   6.721  0.2258  0.1757  0.3700
  167SAPE   H3R18823   2.602   3.951   6.694  2.3005  1.5485  0.9046
  167SAPE   H3S18824   2.750   3.877   6.668  0.1098 -0.8735 -0.2582
  167SAPE   C2418825   2.652   3.847   6.874  1.1513  0.3849  0.4868
  167SAPE   H4R18826   2.742   3.901   6.911  2.6049 -0.1193 -2.0643
  167SAPE   H4S18827   2.677   3.739   6.880  0.9282  0.2247 -1.0210
  167SAPE   C2518828   2.521   3.888   6.940 -0.8801 -0.0618  0.2960
  167SAPE   H5R18829   2.423   3.882   6.889 -1.3423 -3.0744  1.3332
  167SAPE   C2618830   2.515   3.923   7.071  0.6378 -0.3015  0.2218
  167SAPE   H6R18831   2.415   3.927   7.116  0.6909  0.9473  0.2620
  167SAPE   C2718832   2.615   3.936   7.173  0.6531 -1.3694  0.4217
  167SAPE   H7R18833   2.715   3.943   7.124 -0.1936 -0.4376 -1.2384
  167SAPE   H7S18834   2.603   3.849   7.241 -0.0973 -0.4204  1.5400
  167SAPE   C2818835   2.580   4.069   7.238  0.1951  0.4295 -0.5189
  167SAPE   H8R18836   2.553   4.153   7.171 -1.2560  0.3844 -0.0305
  167SAPE   C2918837   2.572   4.103   7.369 -0.8132  0.3046 -0.0739
  167SAPE   H9R18838   2.531   4.202   7.393  0.1035  0.8628 -0.7550
  167SAPE  C21018839   2.606   4.013   7.487  0.2419  0.1092  0.1082
  167SAPE  H10R18840   2.708   4.028   7.530  0.5372 -1.5516  0.0494
  167SAPE  H10S18841   2.607   3.906   7.456 -0.3597  0.2888 -0.5687
  167SAPE  C21118842   2.499   4.018   7.594 -0.5290  0.1678  0.4485
  167SAPE  H11R18843   2.403   3.969   7.573 -2.0910  2.6536  1.3796
  167SAPE  C21218844   2.515   4.077   7.717 -0.1075  0.1060  0.1083
  167SAPE  H12R18845   2.444   4.058   7.799 -0.2911 -0.3870 -0.1616
  167SAPE  C21318846   2.636   4.153   7.766  0.2917 -0.1928  0.4165
  167SAPE  H13R18847   2.720   4.141   7.695 -0.8606 -0.6938 -0.9065
  167SAPE  H13S18848   2.666   4.108   7.864  0.8832 -0.0576  0.3007
  167SAPE  C21418849   2.595   4.296   7.790 -0.7566 -0.1064 -0.1027
  167SAPE  H14R18850   2.526   4.332   7.712  1.8581 -0.5343 -2.8067
  167SAPE  C21518851   2.642   4.371   7.888 -0.1770 -0.5067 -0.0938
  167SAPE  H15R18852   2.598   4.469   7.910 -0.3384 -0.3342 -1.1049
  167SAPE  C21618853   2.750   4.332   7.994 -0.0996  0.6571  0.2408
  167SAPE  H16R18854   2.842   4.309   7.936  0.5177 -0.1420  1.4818
  167SAPE  H16S18855   2.724   4.245   8.059  0.4863  1.5447  1.7178
  167SAPE  C21718856   2.803   4.436   8.097  0.4869 -0.4164  0.3150
  167SAPE  H17R18857   2.867   4.512   8.047  1.0933 -1.1630 -0.0571
  167SAPE  H17S18858   2.870   4.390   8.173  2.3028 -2.1646 -2.1933
  167SAPE  C21818859   2.700   4.521   8.173  0.6346  0.0214 -0.3856
  167SAPE  H18R18860   2.664   4.603   8.107  1.5829  1.4017  0.7551
  167SAPE  H18S18861   2.748   4.569   8.261  0.9646 -3.9700  1.8439
  167SAPE  C21918862   2.573   4.447   8.221  0.2961 -0.2174  0.4024
  167SAPE  H19R18863   2.596   4.351   8.273 -2.8804  0.1127  2.7413
  167SAPE  H19S18864   2.510   4.404   8.141 -1.2938 -1.2712  2.1300
  167SAPE  C22018865   2.493   4.517   8.333 -0.1980  0.1745 -0.7031
  167SAPE  H20R18866   2.398   4.463   8.356 -0.6285 -0.4528 -3.6167
  167SAPE  H20S18867   2.464   4.619   8.299 -0.7130 -0.6072 -2.7056
  167SAPE  H20T18868   2.549   4.523   8.429 -1.6348 -0.1082  0.1804
  167SAPE   C3318869   2.059   4.010   6.871 -0.0075 -0.2666 -0.2747
  167SAPE   H3X18870   1.960   3.968   6.900 -0.3447  0.1948 -0.7578
  167SAPE   H3Y18871   2.049   4.068   6.778 -0.1247  0.8901  0.4450
  167SAPE   C3418872   2.114   4.111   6.979  0.7566 -0.0305  0.4291
  167SAPE   H4X18873   2.048   4.201   6.982  1.6926  0.6558  0.6484
  167SAPE   H4Y18874   2.214   4.152   6.955 -0.2332  1.2773 -1.8313
  167SAPE   C3518875   2.106   4.048   7.119  0.3039  0.5244  0.0573
  167SAPE   H5X18876   2.188   3.974   7.132 -0.8195 -2.0999 -5.1321
  167SAPE   H5Y18877   2.006   4.001   7.120 -0.5866  2.2940 -0.6605
  167SAPE   C3618878   2.124   4.148   7.238 -0.7505  0.0308  0.5660
  167SAPE   H6X18879   2.074   4.246   7.226  0.9301  1.2076  2.4090
  167SAPE   H6Y18880   2.234   4.162   7.245 -0.5189 -1.1962 -0.3737
  167SAPE   C3718881   2.087   4.085   7.378 -0.3107 -1.0690 -0.2691
  167SAPE   H7X18882   2.110   3.977   7.388  0.1403 -0.9149  0.4511
  167SAPE   H7Y18883   1.979   4.107   7.391  0.3124  2.9811 -0.4239
  167SAPE   C3818884   2.162   4.152   7.492  0.3109  0.5099 -0.2019
  167SAPE   H8X18885   2.161   4.261   7.471 -1.5647  0.7339  0.8437
  167SAPE   H8Y18886   2.268   4.118   7.495 -0.2820 -1.7140 -1.9426
  167SAPE   C3918887   2.089   4.122   7.621 -0.2293  0.5068 -0.2789
  167SAPE   H9X18888   2.090   4.013   7.642  2.2941  1.0928  3.6417
  167SAPE   H9Y18889   1.985   4.160   7.607  0.4175  2.6934  0.4014
  167SAPE  C31018890   2.152   4.188   7.742  0.0239 -0.1641  0.4406
  167SAPE  H10X18891   2.202   4.281   7.711  0.4017  0.5956  3.0616
  167SAPE  H10Y18892   2.227   4.114   7.780 -0.3601 -1.5054 -1.2779
  167SAPE  C31118893   2.056   4.224   7.859 -0.0282  0.8069 -0.5458
  167SAPE  H11X18894   1.980   4.143   7.870 -2.1555  2.6226 -1.2157
  167SAPE  H11Y18895   2.001   4.317   7.836 -0.1012  1.9743  3.5090
  167SAPE  C31218896   2.128   4.243   7.994  0.4845 -0.0863  0.1374
  167SAPE  H12X18897   2.216   4.310   7.977  0.8498 -0.5764  0.0810
  167SAPE  H12Y18898   2.151   4.139   8.026 -0.6381 -0.4743 -0.2812
  167SAPE  C31318899   2.042   4.322   8.094  0.3884 -0.5281 -0.5989
  167SAPE  H13X18900   1.939   4.282   8.103  0.6297 -0.6150  3.5930
  167SAPE  H13Y18901   2.042   4.422   8.045  2.6880  0.0772  0.5155
  167SAPE  C31418902   2.099   4.332   8.234  0.8136  0.0569  0.1686
  167SAPE  H14X18903   2.048   4.416   8.286 -0.2283  0.6424 -1.7024
  167SAPE  H14Y18904   2.209   4.340   8.225  0.7392  1.0737 -0.0273
  167SAPE  C31518905   2.084   4.200   8.314 -0.1534  0.4330  0.1407
  167SAPE  H15X18906   2.139   4.127   8.251  3.1272  1.8665  1.1085
  167SAPE  H15Y18907   1.977   4.171   8.326  0.2508 -0.4953  1.8691
  167SAPE  C31618908   2.146   4.201   8.447 -1.3380 -0.1706  0.6748
  167SAPE  H16X18909   2.106   4.293   8.497  1.9589  1.8965 -0.1667
  167SAPE  H16Y18910   2.256   4.211   8.436 -1.1947 -0.8777  1.3408
  167SAPE  C31718911   2.130   4.083   8.542 -0.3857 -0.4676  0.3819
  167SAPE  H17X18912   2.024   4.049   8.542  0.2222 -2.6008 -1.1973
  167SAPE  H17Y18913   2.162   4.113   8.644 -0.5591  0.6059  0.1302
  167SAPE  C31818914   2.198   3.953   8.495 -0.1420  0.0048 -0.4370
  167SAPE  H18X18915   2.172   3.865   8.556  1.3096  1.4019  2.3809
  167SAPE  H18Y18916   2.307   3.969   8.510 -0.3600 -0.5003  1.9907
  167SAPE  H18Z18917   2.174   3.933   8.388 -0.0647  0.7199 -0.5968
  168SAPE     N18918   3.904   6.206   5.918  0.5028  0.2758 -0.4139
  168SAPE   HN118919   4.002   6.226   5.946  0.3935 -0.3349  0.4691
  168SAPE   HN218920   3.908   6.118   5.863 -0.5901 -0.5630  0.7796
  168SAPE   HN318921   3.867   6.284   5.861  0.1265  0.3722 -0.0466
  168SAPE   C1218922   3.815   6.173   6.037 -0.1752  0.9999 -0.0886
  168SAPE  H12A18923   3.862   6.096   6.102 -1.4231 -0.7801 -1.2172
  168SAPE  H12B18924   3.723   6.123   6.001 -0.6482  1.5916  0.2929
  168SAPE   C1118925   3.781   6.301   6.119 -0.0918 -0.3799  0.3858
  168SAPE  H11A18926   3.876   6.350   6.149  1.3448 -2.5411 -0.4014
  168SAPE  H11B18927   3.721   6.268   6.207 -0.9007 -1.5423 -0.5686
  168SAPE     P18928   3.642   6.520   6.117  0.4374  0.3341  0.3357
  168SAPE   O1318929   3.739   6.628   6.104  0.5008  0.6090 -0.2336
  168SAPE   O1418930   3.505   6.543   6.077 -0.7177  0.0150 -0.4463
  168SAPE   O1218931   3.698   6.397   6.040 -0.1555  0.8394  0.4197
  168SAPE   O1118932   3.632   6.478   6.274 -0.2439  0.1497 -0.0621
  168SAPE    C118933   3.737   6.515   6.364 -0.1941  0.6232 -0.3631
  168SAPE    HA18934   3.816   6.438   6.356 -1.4667 -0.5646 -2.4638
  168SAPE    HB18935   3.781   6.613   6.335  0.1783  0.8442  0.8746
  168SAPE    C218936   3.687   6.511   6.508  0.0475  0.0314 -0.0144
  168SAPE    HS18937   3.770   6.519   6.581  2.0848  0.1124 -2.2370
  168SAPE   O2118938   3.605   6.395   6.528 -0.5940 -0.5318  0.3805
  168SAPE   C2118939   3.665   6.280   6.542 -0.0458  0.4403  0.1200
  168SAPE   O2218940   3.776   6.248   6.512  0.1275 -0.2293  0.1185
  168SAPE   C2218941   3.565   6.178   6.596  0.0079  0.7335 -0.5665
  168SAPE   H2R18942   3.469   6.232   6.612 -0.6152 -0.8055  1.3107
  168SAPE   H2S18943   3.555   6.094   6.524  0.8368  0.8378 -0.8057
  168SAPE    C318944   3.612   6.651   6.552  0.0903  0.1609  0.2070
  168SAPE    HX18945   3.537   6.677   6.475  1.9657  2.0365 -1.0989
  168SAPE    HY18946   3.692   6.728   6.550  0.9103 -0.6721 -2.0908
  168SAPE   O3118947   3.560   6.652   6.688  0.0594 -0.1547 -0.7857
  168SAPE   C3118948   3.450   6.583   6.688  1.1030  0.0362 -0.4831
  168SAPE   O3218949   3.390   6.542   6.593 -0.2226  0.1386  0.3677
  168SAPE   C3218950   3.397   6.572   6.830  0.5924 -0.6009 -0.3601
  168SAPE   H2X18951   3.482   6.540   6.894 -0.6123 -2.9952  0.1765
  168SAPE   H2Y18952   3.328   6.485   6.828  1.6179 -1.4175 -1.9764
  168SAPE   C2318953   3.635   6.121   6.725 -0.1787  0.3643  0.1992
  168SAPE   H3R18954   3.735   6.079   6.700 -0.6119  0.1071 -1.1941
  168SAPE   H3S18955   3.582   6.025   6.747  0.7945 -0.3182 -0.3533
  168SAPE   C2418956   3.629   6.217   6.845 -0.0042  0.4314  0.0415
  168SAPE   H4R18957   3.689   6.306   6.818 -0.8014  1.2599  0.9213
  168SAPE   H4S18958   3.684   6.158   6.922  0.0887  0.0181 -0.3339
  168SAPE   C2518959   3.490   6.264   6.883  0.0012  0.1487  0.3345
  168SAPE   H5R18960   3.421   6.299   6.805 -1.2963  2.6878  2.4628
  168SAPE   C2618961   3.447   6.272   7.012 -0.5542 -0.6384  0.7669
  168SAPE   H6R18962   3.347   6.312   7.036 -0.4071  0.1069  0.1684
  168SAPE   C2718963   3.533   6.230   7.130  0.8390  0.9968  0.4276
  168SAPE   H7R18964   3.636   6.273   7.129  1.9612 -1.3196 -3.7532
  168SAPE   H7S18965   3.562   6.124   7.117  0.0695  0.7024  1.0487
  168SAPE   C2818966   3.460   6.255   7.263 -0.3154 -0.4830 -0.3757
  168SAPE   H8R18967   3.461   6.363   7.284 -1.0442 -0.5639  0.1065
  168SAPE   C2918968   3.398   6.165   7.345 -0.4810 -0.1403  0.0432
  168SAPE   H9R18969   3.357   6.219   7.431  1.2254 -0.9146  1.4034
  168SAPE  C21018970   3.364   6.016   7.324 -0.0468 -0.2831  0.2022
  168SAPE  H10R18971   3.397   5.989   7.221  2.2819  1.5345  0.3770
  168SAPE  H10S18972   3.255   6.001   7.341  0.0912 -0.4587  0.9797
  168SAPE  C21118973   3.445   5.934   7.423  0.0318  0.0920 -0.2952
  168SAPE  H11R18974   3.549   5.965   7.403 -0.1154  0.4927 -0.4436
  168SAPE  C21218975   3.407   5.842   7.518 -0.7400 -0.4280  0.2619
  168SAPE  H12R18976   3.485   5.787   7.572  2.0412  1.6355 -1.3479
  168SAPE  C21318977   3.272   5.795   7.548  0.7959  0.4133  0.6688
  168SAPE  H13R18978   3.195   5.849   7.490  0.7902  0.3726  0.6383
  168SAPE  H13S18979   3.248   5.807   7.656 -0.5873  0.0089  0.4187
  168SAPE  C21418980   3.283   5.646   7.523 -0.0892 -0.4099  0.4164
  168SAPE  H14R18981   3.241   5.612   7.427 -0.5318 -1.0307  0.8216
  168SAPE  C21518982   3.303   5.548   7.609 -0.6732  0.2140  0.3028
  168SAPE  H15R18983   3.339   5.451   7.570  0.2887  0.2182  1.1572
  168SAPE  C21618984   3.331   5.584   7.755 -0.3180 -0.5119  1.1416
  168SAPE  H16R18985   3.370   5.688   7.760  0.1882 -0.6247 -0.0158
  168SAPE  H16S18986   3.401   5.503   7.784 -0.4112 -1.2560 -0.5767
  168SAPE  C21718987   3.208   5.566   7.844 -0.2824 -0.5453  0.4047
  168SAPE  H17R18988   3.172   5.462   7.846 -2.3876  0.1223  3.1843
  168SAPE  H17S18989   3.122   5.627   7.809 -0.3440 -1.5790 -1.3391
  168SAPE  C21818990   3.225   5.597   7.997 -0.7039 -1.1573 -0.2918
  168SAPE  H18R18991   3.324   5.563   8.033 -0.3569  0.2564  0.1455
  168SAPE  H18S18992   3.143   5.543   8.049 -2.3681  1.1642 -0.3169
  168SAPE  C21918993   3.217   5.745   8.039  0.0433  0.3275  0.2905
  168SAPE  H19R18994   3.117   5.788   8.017 -0.8398 -1.4145  0.7598
  168SAPE  H19S18995   3.292   5.795   7.974  0.9870 -0.4163  0.7874
  168SAPE  C22018996   3.248   5.765   8.190 -0.9587  0.4406  0.2159
  168SAPE  H20R18997   3.200   5.859   8.225 -1.8286  0.5059 -1.0640
  168SAPE  H20S18998   3.355   5.750   8.212 -0.9056  1.2001  0.5134
  168SAPE  H20T18999   3.197   5.683   8.245  0.1696 -0.8390 -0.5743
  168SAPE   C3319000   3.334   6.710   6.867 -0.4913  0.8461 -0.2660
  168SAPE   H3X19001   3.236   6.709   6.815 -0.6964 -3.7291 -0.1735
  168SAPE   H3Y19002   3.409   6.788   6.841  2.0827 -1.2402  0.5592
  168SAPE   C3419003   3.312   6.730   7.018 -0.1333  0.5331 -0.0426
  168SAPE   H4X19004   3.290   6.838   7.031  0.4651  0.4280  2.2778
  168SAPE   H4Y19005   3.403   6.710   7.078 -1.3727 -1.2809  1.3456
  168SAPE   C3519006   3.196   6.651   7.070  0.4224  0.1061 -0.2846
  168SAPE   H5X19007   3.241   6.550   7.077  0.8176  0.3163  0.2819
  168SAPE   H5Y19008   3.116   6.653   6.993 -2.1262  1.2716  2.2007
  168SAPE   C3619009   3.151   6.690   7.205  0.4302 -0.0188 -0.0854
  168SAPE   H6X19010   3.089   6.781   7.210 -2.2092 -1.4384 -3.1224
  168SAPE   H6Y19011   3.234   6.704   7.278  0.2899  0.5669 -0.0390
  168SAPE   C3719012   3.062   6.580   7.271  0.0334  0.6094 -0.8368
  168SAPE   H7X19013   3.117   6.484   7.269  0.9212  1.1033 -0.7062
  168SAPE   H7Y19014   2.965   6.572   7.218  0.3492  0.9005 -1.4792
  168SAPE   C3819015   3.029   6.618   7.416  0.1341  0.5374 -0.2867
  168SAPE   H8X19016   3.037   6.727   7.436  0.8847  0.7561 -1.6769
  168SAPE   H8Y19017   3.109   6.574   7.478  0.2732  1.6238  0.3253
  168SAPE   C3919018   2.901   6.558   7.477 -0.3968 -0.0575  0.1480
  168SAPE   H9X19019   2.899   6.448   7.469 -1.2952 -0.0619  0.2949
  168SAPE   H9Y19020   2.807   6.585   7.425 -0.1260 -1.5684 -1.1917
  168SAPE  C31019021   2.878   6.592   7.624 -0.1650  0.2979 -0.3353
  168SAPE  H10X19022   2.832   6.693   7.630 -1.5815 -0.4055  1.5131
  168SAPE  H10Y19023   2.974   6.610   7.677  0.0607  1.3528 -1.0666
  168SAPE  C31119024   2.802   6.484   7.696  0.0682 -0.4074 -0.5467
  168SAPE  H11X19025   2.851   6.389   7.662  0.8061  0.2775 -1.4539
  168SAPE  H11Y19026   2.701   6.476   7.651 -0.4752  0.7328  0.4229
  168SAPE  C31219027   2.806   6.502   7.846 -0.3651  0.8108 -0.5236
  168SAPE  H12X19028   2.895   6.558   7.883 -1.4341  0.3049  3.1986
  168SAPE  H12Y19029   2.813   6.402   7.895 -0.7649  1.7017  1.4526
  168SAPE  C31319030   2.692   6.573   7.911  0.1584  0.0861  0.1246
  168SAPE  H13X19031   2.604   6.509   7.887 -0.2689  0.5856  0.3637
  168SAPE  H13Y19032   2.666   6.666   7.857  0.1599 -0.7323 -1.3621
  168SAPE  C31419033   2.695   6.587   8.069  0.6792  0.2079  0.0668
  168SAPE  H14X19034   2.698   6.481   8.104  2.2877 -0.4214 -1.7530
  168SAPE  H14Y19035   2.603   6.637   8.107  0.8933  1.1131 -0.5684
  168SAPE  C31519036   2.813   6.669   8.111 -0.3026  0.0522 -0.1432
  168SAPE  H15X19037   2.814   6.764   8.052  1.6739 -0.1232 -0.4869
  168SAPE  H15Y19038   2.910   6.621   8.085  1.2776  2.9082  0.1038
  168SAPE  C31619039   2.801   6.717   8.250  0.1973 -0.2012 -0.3476
  168SAPE  H16X19040   2.706   6.770   8.274  0.3391 -1.1982  2.8228
  168SAPE  H16Y19041   2.877   6.797   8.263  0.4777 -0.6528  0.9149
  168SAPE  C31719042   2.847   6.617   8.355 -0.4791  0.5671 -0.3715
  168SAPE  H17X19043   2.939   6.567   8.315 -1.1957 -0.2445 -1.0572
  168SAPE  H17Y19044   2.780   6.528   8.362 -0.8030  0.7106 -1.3840
  168SAPE  C31819045   2.876   6.681   8.495 -0.3506  0.5039  0.4646
  168SAPE  H18X19046   2.899   6.598   8.565  0.1873  1.4663  1.4556
  168SAPE  H18Y19047   2.797   6.745   8.539  0.2751  0.2677  1.9922
  168SAPE  H18Z19048   2.968   6.743   8.497 -0.5007  0.7202  1.3969
  169SAPE     N19049   2.317   1.901   5.808 -0.1152 -0.7420  0.2886
  169SAPE   HN119050   2.416   1.887   5.779 -0.1984  1.0060 -0.9656
  169SAPE   HN219051   2.260   1.816   5.828 -1.6743 -0.2152 -1.5815
  169SAPE   HN319052   2.270   1.949   5.730  0.3629  0.7294  0.8753
  169SAPE   C1219053   2.307   1.984   5.930 -0.6053 -0.0339  0.2464
  169SAPE  H12A19054   2.372   2.074   5.930 -0.5530 -0.0617  1.0400
  169SAPE  H12B19055   2.357   1.921   6.006  0.6580  1.0073  0.3010
  169SAPE   C1119056   2.170   2.009   6.002  0.0166 -0.3279 -0.1665
  169SAPE  H11A19057   2.113   2.069   5.929 -0.8666 -0.2341  0.5899
  169SAPE  H11B19058   2.186   2.072   6.092  0.8371 -0.3955 -0.2553
  169SAPE     P19059   2.062   1.835   6.166 -0.2358  0.4663  0.4037
  169SAPE   O1319060   2.014   1.941   6.256 -0.0158  0.3336  0.5254
  169SAPE   O1419061   1.975   1.717   6.149 -0.5250 -0.9202 -0.1779
  169SAPE   O1219062   2.113   1.887   6.027  0.3233 -0.8252 -0.6520
  169SAPE   O1119063   2.194   1.782   6.240 -0.0827  0.5567  0.3763
  169SAPE    C119064   2.194   1.704   6.353 -1.1668  0.2357 -0.1187
  169SAPE    HA19065   2.157   1.605   6.318  0.5510 -0.0716 -1.2219
  169SAPE    HB19066   2.298   1.683   6.387 -1.1969 -1.9811 -1.1761
  169SAPE    C219067   2.110   1.754   6.472 -0.2298  0.0231  0.1311
  169SAPE    HS19068   2.001   1.762   6.451 -0.1476  0.8157 -0.0045
  169SAPE   O2119069   2.163   1.881   6.511  0.4869  0.2831  0.4643
  169SAPE   C2119070   2.104   1.936   6.617 -0.0060  0.4675  0.3017
  169SAPE   O2219071   2.007   1.890   6.673  0.4450 -0.1431 -0.1689
  169SAPE   C2219072   2.179   2.067   6.653 -0.5713 -0.1147 -0.0818
  169SAPE   H2R19073   2.286   2.044   6.669 -0.9591 -0.9593  1.5764
  169SAPE   H2S19074   2.185   2.142   6.572  1.3359 -0.0005  0.1213
  169SAPE    C319075   2.124   1.650   6.586 -0.4698  0.1553 -0.1238
  169SAPE    HX19076   2.070   1.559   6.553 -1.9930  1.3501 -1.0554
  169SAPE    HY19077   2.065   1.682   6.675 -1.2701  2.2371 -1.3285
  169SAPE   O3119078   2.264   1.634   6.616 -0.2447 -0.3947 -0.5719
  169SAPE   C3119079   2.284   1.522   6.686  0.6053  0.0697 -0.6357
  169SAPE   O3219080   2.191   1.466   6.746  0.5769  0.2673  0.0456
  169SAPE   C3219081   2.434   1.495   6.701  0.3114  0.4910 -0.1164
  169SAPE   H2X19082   2.479   1.594   6.680  0.6142  0.4454  0.2998
  169SAPE   H2Y19083   2.460   1.434   6.612  0.0272  0.5150 -0.2166
  169SAPE   C2319084   2.117   2.132   6.781 -0.1309  0.1477  0.4520
  169SAPE   H3R19085   2.006   2.129   6.779 -0.1112 -1.8873 -1.1199
  169SAPE   H3S19086   2.133   2.241   6.771 -1.6750  0.3029 -0.8079
  169SAPE   C2419087   2.187   2.081   6.907 -0.2775  0.1339 -0.5082
  169SAPE   H4R19088   2.176   1.971   6.908  1.8737 -0.1344 -1.3192
  169SAPE   H4S19089   2.139   2.127   6.996  0.0364 -0.8579  0.1955
  169SAPE   C2519090   2.335   2.123   6.910  0.0338 -0.0231 -0.5137
  169SAPE   H5R19091   2.352   2.230   6.926  1.4997 -0.0942 -1.4079
  169SAPE   C2619092   2.445   2.048   6.889 -0.3660  0.1075  0.3203
  169SAPE   H6R19093   2.541   2.099   6.907 -0.2651 -0.1022  0.3699
  169SAPE   C2719094   2.444   1.904   6.868  0.1235  0.5183  0.4032
  169SAPE   H7R19095   2.442   1.873   6.761  0.0249 -2.1722  1.1226
  169SAPE   H7S19096   2.353   1.857   6.910 -0.2872 -0.0145 -1.0093
  169SAPE   C2819097   2.564   1.832   6.931 -0.0132  0.5399 -0.2689
  169SAPE   H8R19098   2.646   1.797   6.868 -0.2828  0.9394 -0.8445
  169SAPE   C2919099   2.579   1.784   7.061 -0.3497  0.0997 -0.1016
  169SAPE   H9R19100   2.662   1.714   7.080  0.0773  0.0228 -2.0612
  169SAPE  C21019101   2.487   1.802   7.180 -0.7718  0.2336  0.6775
  169SAPE  H10R19102   2.506   1.729   7.262  2.9125 -0.5079 -0.6344
  169SAPE  H10S19103   2.381   1.790   7.148 -0.1503 -0.5574 -1.2170
  169SAPE  C21119104   2.492   1.943   7.236  0.2598 -0.6212  0.3027
  169SAPE  H11R19105   2.535   2.022   7.172  0.1231  0.6125  1.6904
  169SAPE  C21219106   2.444   1.983   7.357 -0.2652  0.1484 -0.4962
  169SAPE  H12R19107   2.450   2.089   7.385 -0.3203 -0.1985  0.9174
  169SAPE  C21319108   2.387   1.892   7.456 -0.1406 -0.5435  0.0924
  169SAPE  H13R19109   2.377   1.791   7.412  1.2394 -0.7524  0.2067
  169SAPE  H13S19110   2.286   1.924   7.491  0.5090  0.3360  1.2424
  169SAPE  C21419111   2.483   1.878   7.573  0.2303 -0.3535  0.6294
  169SAPE  H14R19112   2.577   1.936   7.566  0.1906 -0.3815 -0.2340
  169SAPE  C21519113   2.467   1.783   7.676  0.3640  0.1814 -0.4502
  169SAPE  H15R19114   2.534   1.777   7.763 -0.1128 -1.6799 -0.1748
  169SAPE  C21619115   2.349   1.686   7.676 -0.3534  0.1320 -0.8965
  169SAPE  H16R19116   2.311   1.674   7.572 -1.7240 -1.1452 -0.2733
  169SAPE  H16S19117   2.257   1.716   7.729 -0.1846  2.0337 -1.6232
  169SAPE  C21719118   2.382   1.546   7.733 -0.1759  0.4927 -0.0772
  169SAPE  H17R19119   2.456   1.500   7.663  1.0719 -0.5527  1.8554
  169SAPE  H17S19120   2.297   1.475   7.732  1.7765 -1.9789 -0.7573
  169SAPE  C21819121   2.440   1.545   7.877  0.5674 -0.2540 -0.3896
  169SAPE  H18R19122   2.539   1.597   7.871  1.0479 -1.3021 -3.2508
  169SAPE  H18S19123   2.475   1.443   7.902  0.0104 -0.3325  0.0948
  169SAPE  C21919124   2.350   1.582   7.987 -0.3688 -0.2587 -0.7611
  169SAPE  H19R19125   2.252   1.531   7.981 -0.4504 -0.1070 -0.7263
  169SAPE  H19S19126   2.336   1.692   7.980  1.7090  0.0632 -0.6047
  169SAPE  C22019127   2.405   1.575   8.133 -0.1584 -0.2668 -0.5806
  169SAPE  H20R19128   2.432   1.475   8.172  3.4924  1.8014  2.9674
  169SAPE  H20S19129   2.331   1.623   8.201  0.1535  0.2485 -0.5963
  169SAPE  H20T19130   2.493   1.642   8.147 -0.5734 -0.1923  2.2595
  169SAPE   C3319131   2.480   1.426   6.830 -0.2812  0.0228 -0.8108
  169SAPE   H3X19132   2.458   1.483   6.922 -0.4517 -0.4940 -0.5325
  169SAPE   H3Y19133   2.591   1.416   6.828 -0.3378 -1.5015  0.9938
  169SAPE   C3419134   2.425   1.280   6.853 -0.1281 -0.4162 -0.0768
  169SAPE   H4X19135   2.448   1.216   6.765 -1.1739 -0.3273 -0.4287
  169SAPE   H4Y19136   2.315   1.284   6.859 -0.1610  5.2767  1.4389
  169SAPE   C3519137   2.474   1.210   6.982  0.0831 -0.3313  0.9376
  169SAPE   H5X19138   2.444   1.104   6.971  0.7922 -0.2922 -2.3315
  169SAPE   H5Y19139   2.424   1.254   7.072 -0.3644  0.8708  0.1300
  169SAPE   C3619140   2.625   1.222   7.004 -0.1421  0.7796  0.3476
  169SAPE   H6X19141   2.658   1.327   7.022  2.6693 -0.1768  1.2453
  169SAPE   H6Y19142   2.679   1.172   6.920  0.4691  0.9087  0.6577
  169SAPE   C3719143   2.673   1.143   7.135  0.3245 -0.4936 -0.4544
  169SAPE   H7X19144   2.783   1.160   7.135  0.2509  0.0568 -1.2528
  169SAPE   H7Y19145   2.658   1.036   7.110  0.7580 -0.8927  0.9052
  169SAPE   C3819146   2.618   1.196   7.263  0.2756 -0.8474  0.3035
  169SAPE   H8X19147   2.507   1.202   7.265  0.3527  2.6974  2.3166
  169SAPE   H8Y19148   2.661   1.298   7.274 -1.6226  0.0476 -0.1664
  169SAPE   C3919149   2.651   1.112   7.387  0.1759 -0.5249  0.5751
  169SAPE   H9X19150   2.761   1.096   7.394  0.7359  2.1883 -0.8816
  169SAPE   H9Y19151   2.607   1.010   7.378 -1.1887  0.2265 -2.2259
  169SAPE  C31019152   2.596   1.169   7.524  0.5853  0.3808 -0.1962
  169SAPE  H10X19153   2.487   1.148   7.519  0.7111 -0.5082  0.6693
  169SAPE  H10Y19154   2.606   1.280   7.535 -0.9517  0.4614  0.7487
  169SAPE  C31119155   2.668   1.105   7.644 -0.5225  0.0308 -0.4191
  169SAPE  H11X19156   2.773   1.140   7.642 -0.3035 -0.6261 -2.4877
  169SAPE  H11Y19157   2.665   0.994   7.643 -1.8079  0.0524 -0.2028
  169SAPE  C31219158   2.610   1.160   7.776  0.2272  0.4995 -0.1661
  169SAPE  H12X19159   2.499   1.155   7.778  0.2169  0.9565  0.5601
  169SAPE  H12Y19160   2.640   1.267   7.783  2.3645 -0.0781  0.2154
  169SAPE  C31319161   2.675   1.107   7.903  0.2168  0.1130 -0.8045
  169SAPE  H13X19162   2.781   1.140   7.906  0.4811 -0.7742  1.5115
  169SAPE  H13Y19163   2.686   0.997   7.893  0.0007  0.1343 -1.3571
  169SAPE  C31419164   2.589   1.149   8.025  0.1741  0.8962 -0.3265
  169SAPE  H14X19165   2.483   1.120   8.009  0.2223  0.0086  0.8311
  169SAPE  H14Y19166   2.592   1.259   8.038 -0.2931  0.9655 -0.8223
  169SAPE  C31519167   2.640   1.088   8.153 -0.4546  0.1943 -0.0236
  169SAPE  H15X19168   2.747   1.111   8.170 -0.9047  1.2477  1.5921
  169SAPE  H15Y19169   2.623   0.979   8.138 -3.3725  0.8801 -3.1606
  169SAPE  C31619170   2.565   1.138   8.282 -0.4373 -0.7499 -0.2605
  169SAPE  H16X19171   2.472   1.080   8.300 -2.1005  1.0914 -2.2834
  169SAPE  H16Y19172   2.541   1.245   8.268  3.0942  0.5448  2.1794
  169SAPE  C31719173   2.653   1.141   8.408  0.2588  0.2166  0.1649
  169SAPE  H17X19174   2.751   1.179   8.373 -0.7922  2.2546 -0.7157
  169SAPE  H17Y19175   2.661   1.031   8.425 -2.4712  0.3824  3.6992
  169SAPE  C31819176   2.599   1.211   8.530  0.8188 -0.1649  0.0033
  169SAPE  H18X19177   2.660   1.209   8.623  2.7145  0.6501 -1.1661
  169SAPE  H18Y19178   2.508   1.150   8.550  0.7895 -0.2647 -0.4350
  169SAPE  H18Z19179   2.574   1.318   8.511  1.5599  0.0076 -0.0241
  170SAPE     N19180   3.625   5.334   5.949  0.1833 -0.1679  0.3768
  170SAPE   HN119181   3.557   5.396   5.900  1.9476  0.9860 -0.7303
  170SAPE   HN219182   3.710   5.392   5.962  0.3739 -0.1643 -0.7831
  170SAPE   HN319183   3.647   5.256   5.884  0.2791 -1.2592  1.6634
  170SAPE   C1219184   3.580   5.281   6.082 -0.2857  0.4001 -0.3288
  170SAPE  H12A19185   3.484   5.230   6.058  0.7738 -0.9378 -1.9794
  170SAPE  H12B19186   3.566   5.372   6.143  1.2509  0.3187  0.1724
  170SAPE   C1119187   3.696   5.198   6.143  0.1388  0.4704  0.5397
  170SAPE  H11A19188   3.707   5.097   6.097  0.2593  0.5526  0.3866
  170SAPE  H11B19189   3.664   5.175   6.247  0.5434 -0.0115  0.5591
  170SAPE     P19190   3.889   5.342   6.250  0.1643  0.2650 -0.0833
  170SAPE   O1319191   3.960   5.242   6.335  0.2767 -0.3338  0.2864
  170SAPE   O1419192   3.961   5.471   6.214 -0.2877  0.0951  0.1788
  170SAPE   O1219193   3.820   5.275   6.127  0.2863  0.2731  0.2857
  170SAPE   O1119194   3.762   5.386   6.329  0.0540  0.0147  0.1288
  170SAPE    C119195   3.708   5.520   6.336  0.1781 -0.2278  0.5329
  170SAPE    HA19196   3.696   5.566   6.235 -1.6050 -1.0789  0.3138
  170SAPE    HB19197   3.607   5.500   6.378  0.5959 -1.6680  0.8867
  170SAPE    C219198   3.772   5.619   6.436 -0.3933  0.3845  0.0919
  170SAPE    HS19199   3.872   5.643   6.396  0.4274 -0.7687  1.3665
  170SAPE   O2119200   3.774   5.554   6.564 -0.0892  0.4343  0.1790
  170SAPE   C2119201   3.876   5.576   6.639  0.0080  0.5327 -0.3364
  170SAPE   O2219202   3.980   5.631   6.604  0.1430 -0.2568  0.2959
  170SAPE   C2219203   3.847   5.506   6.771  0.5568 -0.2314 -0.2436
  170SAPE   H2R19204   3.740   5.518   6.799  1.2577  0.4588  2.4569
  170SAPE   H2S19205   3.869   5.398   6.756  0.5001 -0.7302  2.6428
  170SAPE    C319206   3.694   5.753   6.443  0.7886  0.3102  0.9278
  170SAPE    HX19207   3.594   5.750   6.491  0.7401  1.1214  0.8880
  170SAPE    HY19208   3.673   5.787   6.339  1.4019  0.6504  0.9112
  170SAPE   O3119209   3.767   5.856   6.509 -0.3310 -0.3916 -0.2604
  170SAPE   C3119210   3.882   5.894   6.461 -0.6311 -0.0632 -0.0869
  170SAPE   O3219211   3.930   5.870   6.343 -0.3365 -0.1081 -0.4944
  170SAPE   C3219212   3.963   5.975   6.561 -0.8941  0.0871 -0.7367
  170SAPE   H2X19213   3.913   5.970   6.660 -1.1098 -1.2981 -0.8932
  170SAPE   H2Y19214   3.971   6.084   6.540 -2.1060  0.6999  1.6254
  170SAPE   C2319215   3.930   5.562   6.885  0.6122 -0.5686 -0.0113
  170SAPE   H3R19216   4.032   5.526   6.860  0.1383 -1.2819 -1.0050
  170SAPE   H3S19217   3.898   5.517   6.982 -0.3394 -2.4668 -1.1391
  170SAPE   C2419218   3.918   5.720   6.909  0.1188 -0.7456 -0.8530
  170SAPE   H4R19219   3.937   5.784   6.820 -3.0748 -0.8341 -1.7337
  170SAPE   H4S19220   3.998   5.744   6.983 -1.0874 -2.0979  0.9794
  170SAPE   C2519221   3.781   5.762   6.956 -0.0264  0.3939  0.0915
  170SAPE   H5R19222   3.708   5.733   6.880  1.1269 -0.3543 -0.7661
  170SAPE   C2619223   3.746   5.814   7.074  0.8675 -0.3745 -0.2611
  170SAPE   H6R19224   3.641   5.843   7.086  1.4075  2.0779 -0.8456
  170SAPE   C2719225   3.835   5.844   7.187  0.3614  0.1054 -0.4013
  170SAPE   H7R19226   3.895   5.754   7.212 -0.5174 -0.5854 -0.7079
  170SAPE   H7S19227   3.770   5.868   7.274  2.1318  1.2358  0.6630
  170SAPE   C2819228   3.927   5.957   7.167  0.1890 -0.0106 -0.3828
  170SAPE   H8R19229   3.968   5.962   7.065 -0.9822  2.4453 -0.7988
  170SAPE   C2919230   3.953   6.057   7.251 -0.1326 -0.6457 -0.2387
  170SAPE   H9R19231   4.012   6.145   7.220 -1.0066 -0.0963 -0.3782
  170SAPE  C21019232   3.903   6.070   7.386 -0.3451 -0.1718 -0.4478
  170SAPE  H10R19233   3.847   5.981   7.424 -1.3445  0.0379 -1.3647
  170SAPE  H10S19234   3.839   6.161   7.387 -2.1182 -1.3425 -1.0238
  170SAPE  C21119235   4.012   6.116   7.481  0.1749  0.6955  0.4472
  170SAPE  H11R19236   4.107   6.145   7.434 -0.2354 -1.7150 -2.1421
  170SAPE  C21219237   4.007   6.114   7.617  0.4625 -0.2056  0.4783
  170SAPE  H12R19238   4.100   6.136   7.672  1.0069 -2.1626  0.4078
  170SAPE  C21319239   3.886   6.060   7.694 -0.2543  0.5896  0.0282
  170SAPE  H13R19240   3.914   6.054   7.801  0.0657  1.2569 -0.0122
  170SAPE  H13S19241   3.888   5.958   7.651 -1.6792  0.7209 -0.4172
  170SAPE  C21419242   3.751   6.124   7.659  0.8837  0.0676 -0.2576
  170SAPE  H14R19243   3.751   6.220   7.605  0.3069 -0.5060 -1.2881
  170SAPE  C21519244   3.638   6.078   7.709  0.8501  0.2709  0.0237
  170SAPE  H15R19245   3.542   6.120   7.674 -0.5544 -2.4249  0.4032
  170SAPE  C21619246   3.629   5.959   7.798 -0.2396  0.7794 -0.2948
  170SAPE  H16R19247   3.709   5.894   7.756  0.5490  2.1391 -0.9835
  170SAPE  H16S19248   3.535   5.901   7.784  0.1668 -0.0881  0.4392
  170SAPE  C21719249   3.649   5.977   7.950 -0.5099 -0.3764  0.6981
  170SAPE  H17R19250   3.735   6.044   7.972  0.2176 -1.4138  1.1347
  170SAPE  H17S19251   3.672   5.880   7.999 -1.4687 -1.0707 -0.1801
  170SAPE  C21819252   3.533   6.050   8.018 -0.2427  0.7837  0.1773
  170SAPE  H18R19253   3.454   5.973   8.028  0.9390 -0.5283 -0.2987
  170SAPE  H18S19254   3.503   6.141   7.962  1.3465  2.0448  1.2761
  170SAPE  C21919255   3.576   6.088   8.162 -0.0553 -0.1044  0.6329
  170SAPE  H19R19256   3.649   6.171   8.150  0.5192 -0.4589  1.5477
  170SAPE  H19S19257   3.624   6.001   8.212 -0.8020 -0.8353  0.0907
  170SAPE  C22019258   3.460   6.148   8.244 -0.1592 -0.4578  0.7585
  170SAPE  H20R19259   3.409   6.229   8.188 -1.6649 -0.7363  1.6766
  170SAPE  H20S19260   3.504   6.182   8.340  0.6969 -3.5630  1.6066
  170SAPE  H20T19261   3.366   6.091   8.261 -2.0476  2.4583  0.7672
  170SAPE   C3319262   4.104   5.922   6.586  0.0876  0.0277 -0.1993
  170SAPE   H3X19263   4.154   5.902   6.489  0.3470  0.2839 -0.1173
  170SAPE   H3Y19264   4.100   5.827   6.644 -1.1898 -0.3373 -0.8560
  170SAPE   C3419265   4.189   6.015   6.663 -0.1276 -0.4633 -0.9648
  170SAPE   H4X19266   4.211   6.111   6.612  0.7584 -0.3211 -0.3246
  170SAPE   H4Y19267   4.291   5.972   6.659  0.4846  0.9168 -0.9266
  170SAPE   C3519268   4.157   6.038   6.811 -0.2692 -0.0909  0.2213
  170SAPE   H5X19269   4.134   5.936   6.848  0.2778  0.2848  1.6827
  170SAPE   H5Y19270   4.069   6.106   6.813  1.5762  2.4501  0.7965
  170SAPE   C3619271   4.275   6.103   6.885  0.9506 -1.0967  0.8834
  170SAPE   H6X19272   4.280   6.200   6.831 -0.7717 -1.5648 -0.2130
  170SAPE   H6Y19273   4.367   6.045   6.862  0.7184 -1.4873  0.9272
  170SAPE   C3719274   4.238   6.128   7.028  0.3221 -0.2310  0.3918
  170SAPE   H7X19275   4.197   6.035   7.074  0.4969 -1.2241 -1.3864
  170SAPE   H7Y19276   4.144   6.186   7.038  1.5541  1.8282  0.7332
  170SAPE   C3819277   4.354   6.196   7.099  0.1694  0.4917  0.3615
  170SAPE   H8X19278   4.383   6.293   7.055  0.6829  0.2544  0.1676
  170SAPE   H8Y19279   4.438   6.124   7.086  0.8595  1.5906 -1.7051
  170SAPE   C3919280   4.322   6.222   7.250 -0.6799  0.0515  0.4228
  170SAPE   H9X19281   4.274   6.129   7.289 -0.6992  0.2237  0.8157
  170SAPE   H9Y19282   4.262   6.311   7.275  0.4455  0.9296  0.0839
  170SAPE  C31019283   4.453   6.231   7.327  0.2313  0.6181  0.1012
  170SAPE  H10X19284   4.503   6.316   7.276  0.2704  0.7974  0.4371
  170SAPE  H10Y19285   4.514   6.141   7.304 -2.0314 -1.3312  1.2134
  170SAPE  C31119286   4.449   6.246   7.475 -0.1550 -0.3343 -0.0143
  170SAPE  H11X19287   4.403   6.156   7.522  0.8321 -0.4221  0.8133
  170SAPE  H11Y19288   4.388   6.337   7.495  2.3156  1.3690  0.2059
  170SAPE  C31219289   4.580   6.272   7.543  0.3069  0.7198  0.3184
  170SAPE  H12X19290   4.626   6.352   7.481 -1.0835 -0.1478 -1.9501
  170SAPE  H12Y19291   4.642   6.182   7.526 -0.6604 -0.1711  1.3258
  170SAPE  C31319292   4.556   6.300   7.689  0.6199 -0.0653 -0.3804
  170SAPE  H13X19293   4.518   6.209   7.740 -0.7984  1.1812  0.8970
  170SAPE  H13Y19294   4.477   6.376   7.702 -1.0397 -1.2226 -2.9351
  170SAPE  C31419295   4.671   6.341   7.781 -0.2978  0.3674  0.1943
  170SAPE  H14X19296   4.717   6.433   7.738 -3.5806  1.2512 -1.8012
  170SAPE  H14Y19297   4.741   6.255   7.772 -0.8645  0.0227 -1.2517
  170SAPE  C31519298   4.615   6.355   7.919  0.5463  0.1280 -1.2840
  170SAPE  H15X19299   4.585   6.257   7.962  0.5455  0.2686 -0.9622
  170SAPE  H15Y19300   4.528   6.425   7.926 -0.5856 -1.3696  0.4803
  170SAPE  C31619301   4.713   6.417   8.014  0.6594  0.1433  0.3469
  170SAPE  H16X19302   4.738   6.521   7.983  0.1448  0.0000 -0.5760
  170SAPE  H16Y19303   4.805   6.355   8.021 -0.0803 -0.8247  1.9308
  170SAPE  C31719304   4.652   6.431   8.153  0.4300 -0.3186  0.7836
  170SAPE  H17X19305   4.605   6.332   8.173 -2.4461  1.0182  1.0613
  170SAPE  H17Y19306   4.568   6.502   8.160  0.0513 -0.4982 -1.3042
  170SAPE  C31819307   4.756   6.475   8.253  0.2821 -0.3260 -0.4401
  170SAPE  H18X19308   4.709   6.522   8.343 -0.3539  4.7478 -3.0891
  170SAPE  H18Y19309   4.823   6.555   8.216 -1.1376  0.9223 -0.4108
  170SAPE  H18Z19310   4.818   6.387   8.280  1.5499  0.7293  0.1848
  171SAPE     N19311   5.197   6.310   6.038  0.6061 -0.0236  0.0653
  171SAPE   HN119312   5.116   6.341   5.982 -0.7179 -1.9136  0.8509
  171SAPE   HN219313   5.235   6.375   6.110 -1.7419  0.0351  1.3121
  171SAPE   HN319314   5.283   6.286   5.984  1.1634 -2.1666  1.7771
  171SAPE   C1219315   5.154   6.191   6.121  0.1328  0.1353 -0.1680
  171SAPE  H12A19316   5.126   6.113   6.047  1.0718  0.8809 -1.3518
  171SAPE  H12B19317   5.067   6.215   6.186  0.4661  0.2208  0.2490
  171SAPE   C1119318   5.263   6.143   6.211  0.6133  0.1831 -0.5605
  171SAPE  H11A19319   5.225   6.058   6.271  1.6183 -0.9595 -1.4961
  171SAPE  H11B19320   5.284   6.225   6.283 -0.9244 -0.3699  0.5739
  171SAPE     P19321   5.445   5.966   6.145  0.1884 -0.0208 -0.0167
  171SAPE   O1319322   5.347   5.873   6.088  0.1156 -0.4795 -0.4744
  171SAPE   O1419323   5.577   5.978   6.083 -0.2569 -0.0403 -0.0434
  171SAPE   O1219324   5.385   6.115   6.145  0.1177 -0.0756  0.2105
  171SAPE   O1119325   5.454   5.939   6.301  0.2265 -0.0088  0.7275
  171SAPE    C119326   5.582   5.945   6.367  0.0347  0.2606 -0.4551
  171SAPE    HA19327   5.656   5.880   6.315  1.9513  0.9253  1.2911
  171SAPE    HB19328   5.618   6.050   6.359  1.7313 -0.3379 -1.0440
  171SAPE    C219329   5.575   5.896   6.509 -0.8065 -0.5867 -1.0974
  171SAPE    HS19330   5.559   5.787   6.515 -3.1807 -0.2801 -0.7947
  171SAPE   O2119331   5.460   5.956   6.568  0.3208 -0.1941  0.0548
  171SAPE   C2119332   5.428   5.899   6.680  0.0375 -0.0024  0.6175
  171SAPE   O2219333   5.489   5.813   6.743  0.7414 -0.0929 -0.1542
  171SAPE   C2219334   5.304   5.971   6.726 -0.3508 -0.1652  0.5291
  171SAPE   H2R19335   5.313   6.077   6.693  4.4485 -0.6485 -0.4605
  171SAPE   H2S19336   5.216   5.918   6.682 -1.8957  0.0717  3.1020
  171SAPE    C319337   5.704   5.943   6.591  0.0943  0.5424  0.0522
  171SAPE    HX19338   5.697   5.893   6.690 -0.8889 -2.3947 -1.3726
  171SAPE    HY19339   5.698   6.054   6.597 -1.6307  0.4088  1.8888
  171SAPE   O3119340   5.836   5.909   6.532 -0.3966 -1.0002 -0.0154
  171SAPE   C3119341   5.884   5.790   6.544 -0.0567  0.0695 -0.1783
  171SAPE   O3219342   5.823   5.703   6.604  0.8420  0.4509 -0.2089
  171SAPE   C3219343   6.017   5.767   6.479 -0.0886  0.1301 -0.2498
  171SAPE   H2X19344   6.018   5.793   6.370 -1.3706 -2.1465 -0.8765
  171SAPE   H2Y19345   6.041   5.659   6.487 -1.3182 -0.1557 -0.1995
  171SAPE   C2319346   5.291   5.967   6.876  0.0154 -0.6241 -0.0996
  171SAPE   H3R19347   5.374   6.022   6.923 -0.8718  1.3916 -0.7866
  171SAPE   H3S19348   5.291   5.862   6.915  0.5704 -1.2785 -1.7739
  171SAPE   C2419349   5.157   6.021   6.921 -0.0062 -0.2209 -0.0749
  171SAPE   H4R19350   5.143   5.977   7.021  1.9395  0.0796  0.3618
  171SAPE   H4S19351   5.084   5.979   6.849  0.5080 -3.0037  0.9061
  171SAPE   C2519352   5.148   6.170   6.903  0.5720 -0.6165  0.1976
  171SAPE   H5R19353   5.085   6.204   6.819 -0.6936  1.0074  1.7119
  171SAPE   C2619354   5.195   6.260   6.992 -0.3021  0.2077  0.1604
  171SAPE   H6R19355   5.192   6.366   6.961 -1.8793  0.2946  0.5148
  171SAPE   C2719356   5.258   6.233   7.124  0.0945 -0.1394 -0.7840
  171SAPE   H7R19357   5.367   6.241   7.105 -0.1698  2.1108 -1.6526
  171SAPE   H7S19358   5.229   6.136   7.170 -2.4015  1.4443  1.2923
  171SAPE   C2819359   5.232   6.342   7.226  0.4336  0.7381 -0.2059
  171SAPE   H8R19360   5.303   6.426   7.230 -0.1516  1.2079  1.2152
  171SAPE   C2919361   5.143   6.340   7.321  0.0570  0.1134 -0.1605
  171SAPE   H9R19362   5.140   6.424   7.391 -2.6713 -0.4541  0.5027
  171SAPE  C21019363   5.044   6.238   7.357  0.2868  0.6734 -0.3220
  171SAPE  H10R19364   5.099   6.151   7.399 -1.7133  1.2986  4.2105
  171SAPE  H10S19365   4.995   6.205   7.263 -0.3190 -0.5580  0.4030
  171SAPE  C21119366   4.947   6.280   7.462  0.6864  0.7110  0.7305
  171SAPE  H11R19367   4.845   6.279   7.422  0.7298 -0.1931  0.6173
  171SAPE  C21219368   4.981   6.329   7.585 -0.6964  0.6505 -0.8256
  171SAPE  H12R19369   4.892   6.362   7.642 -0.9063  0.1442 -0.8568
  171SAPE  C21319370   5.118   6.342   7.660  0.6297  0.6878 -0.4879
  171SAPE  H13R19371   5.102   6.394   7.757  0.1432  1.1339 -0.8006
  171SAPE  H13S19372   5.189   6.399   7.596  1.8758 -0.2955 -0.0156
  171SAPE  C21419373   5.165   6.201   7.686  0.1946 -0.6941  0.7245
  171SAPE  H14R19374   5.087   6.134   7.724 -1.1619 -0.5946 -1.6808
  171SAPE  C21519375   5.286   6.151   7.650  0.3067  0.5245  0.0204
  171SAPE  H15R19376   5.319   6.049   7.674  1.3411  0.2191 -2.4323
  171SAPE  C21619377   5.401   6.215   7.587 -0.1921 -0.0637 -0.3517
  171SAPE  H16R19378   5.383   6.320   7.554 -2.2157 -0.1682  0.3090
  171SAPE  H16S19379   5.428   6.154   7.499  0.9171  0.0386 -0.1063
  171SAPE  C21719380   5.532   6.215   7.671  0.4556  0.5172  0.0434
  171SAPE  H17R19381   5.605   6.280   7.618 -0.2154  1.2977  0.0588
  171SAPE  H17S19382   5.573   6.113   7.683  1.4043  0.9802  0.8202
  171SAPE  C21819383   5.513   6.266   7.810  0.3005 -0.4297  0.0020
  171SAPE  H18R19384   5.466   6.193   7.879 -0.7508  1.1880  1.0534
  171SAPE  H18S19385   5.450   6.357   7.812 -0.1731 -0.7684  0.8222
  171SAPE  C21919386   5.648   6.302   7.868 -0.2757  0.3886 -0.2136
  171SAPE  H19R19387   5.704   6.372   7.802 -0.3958  2.4566  1.7161
  171SAPE  H19S19388   5.721   6.219   7.871 -0.6805 -0.0166 -1.3622
  171SAPE  C22019389   5.646   6.376   8.000  0.7032  0.3338  0.3971
  171SAPE  H20R19390   5.612   6.480   7.979  1.9032  0.2606 -2.4313
  171SAPE  H20S19391   5.746   6.380   8.048  0.1708  3.3364  1.4626
  171SAPE  H20T19392   5.577   6.322   8.068 -0.8273  0.5455 -0.9050
  171SAPE   C3319393   6.131   5.836   6.554 -0.3696  0.0819 -0.0037
  171SAPE   H3X19394   6.110   5.938   6.594 -0.5563  0.3037 -0.6438
  171SAPE   H3Y19395   6.209   5.865   6.480 -2.2609  1.8943 -1.4418
  171SAPE   C3419396   6.198   5.756   6.664 -0.0306  0.4471 -0.3040
  171SAPE   H4X19397   6.275   5.823   6.707 -1.1527  0.3112  2.0921
  171SAPE   H4Y19398   6.251   5.669   6.620  0.2519  0.3061  0.2969
  171SAPE   C3519399   6.114   5.718   6.784  0.3517 -0.0191 -0.3469
  171SAPE   H5X19400   6.025   5.653   6.766  1.1854 -1.3473  0.2368
  171SAPE   H5Y19401   6.072   5.817   6.810  0.8721  0.0182  0.3716
  171SAPE   C3619402   6.200   5.685   6.902  0.6477  0.0486 -0.1384
  171SAPE   H6X19403   6.264   5.775   6.919 -0.4499  0.7743  0.2709
  171SAPE   H6Y19404   6.280   5.611   6.880 -0.5059 -1.3696  0.2986
  171SAPE   C3719405   6.130   5.650   7.044  0.5304  0.5007 -0.9706
  171SAPE   H7X19406   6.195   5.579   7.098 -0.1562 -1.4441 -2.5767
  171SAPE   H7Y19407   6.032   5.607   7.011 -0.8407  4.3994 -2.6497
  171SAPE   C3819408   6.111   5.778   7.133  0.1330  0.4044 -0.2663
  171SAPE   H8X19409   6.021   5.837   7.105  0.0302  0.0070 -0.7860
  171SAPE   H8Y19410   6.197   5.848   7.123  0.6986 -0.5365 -2.7550
  171SAPE   C3919411   6.104   5.749   7.286 -0.1545  0.3548 -0.0177
  171SAPE   H9X19412   6.027   5.669   7.283  0.6437 -0.4152 -0.9323
  171SAPE   H9Y19413   6.074   5.827   7.359  0.3831 -0.3401  0.9571
  171SAPE  C31019414   6.219   5.679   7.347 -0.4678 -0.9155  0.4399
  171SAPE  H10X19415   6.301   5.751   7.365 -1.1385  0.3998 -1.5228
  171SAPE  H10Y19416   6.263   5.611   7.271 -2.6780  0.2516 -1.9973
  171SAPE  C31119417   6.190   5.609   7.484 -0.0384  0.1532  0.4618
  171SAPE  H11X19418   6.234   5.507   7.480  1.5423  0.8056  0.2242
  171SAPE  H11Y19419   6.083   5.592   7.507  0.5536 -2.0896  1.8402
  171SAPE  C31219420   6.268   5.686   7.600 -0.2359 -0.0714  0.3026
  171SAPE  H12X19421   6.211   5.779   7.616  0.6587  0.4369  0.6360
  171SAPE  H12Y19422   6.370   5.708   7.560  1.2500 -1.6763  2.8607
  171SAPE  C31319423   6.269   5.611   7.731 -0.1076  0.7087  0.2017
  171SAPE  H13X19424   6.331   5.662   7.808 -0.3197  0.9893  0.1873
  171SAPE  H13Y19425   6.313   5.511   7.712 -1.3191  0.5725 -2.3224
  171SAPE  C31419426   6.126   5.585   7.787  0.0144 -0.5317 -0.0184
  171SAPE  H14X19427   6.136   5.513   7.871 -0.7947  0.0495  0.5947
  171SAPE  H14Y19428   6.069   5.524   7.714  0.6404 -0.2715 -0.7294
  171SAPE  C31519429   6.050   5.706   7.834  0.4853 -0.1267 -0.0056
  171SAPE  H15X19430   5.942   5.681   7.841  0.2107 -0.1517 -3.0473
  171SAPE  H15Y19431   6.051   5.781   7.753  1.4591  1.2931  1.2593
  171SAPE  C31619432   6.097   5.763   7.969  0.2100 -0.5851 -0.0875
  171SAPE  H16X19433   6.205   5.754   7.994  0.0938  1.4950  1.4618
  171SAPE  H16Y19434   6.049   5.692   8.040 -0.5765  0.2392  0.2328
  171SAPE  C31719435   6.051   5.906   8.002  0.3141 -0.0513 -0.7780
  171SAPE  H17X19436   5.944   5.908   7.972 -0.0396  1.0683  0.4851
  171SAPE  H17Y19437   6.109   5.978   7.941 -0.1137 -0.7132 -2.0112
  171SAPE  C31819438   6.071   5.947   8.143  0.9788  0.3630  0.2237
  171SAPE  H18X19439   6.025   5.874   8.213  1.2968 -1.8682 -1.7667
  171SAPE  H18Y19440   6.022   6.044   8.165 -1.2705 -0.6812  0.0914
  171SAPE  H18Z19441   6.177   5.946   8.176  0.5206 -0.7846  1.7907
  172SAPE     N19442   3.518   4.284   6.377 -0.0871 -0.2392  0.3327
  172SAPE   HN119443   3.492   4.226   6.295  1.7362 -1.2095  0.3734
  172SAPE   HN219444   3.619   4.310   6.370 -0.0729 -0.5025 -0.4833
  172SAPE   HN319445   3.518   4.216   6.456 -0.7699  1.2384  1.6617
  172SAPE   C1219446   3.414   4.391   6.393  0.6278  0.2232  1.2339
  172SAPE  H12A19447   3.323   4.342   6.433 -0.4848  0.9294 -0.3069
  172SAPE  H12B19448   3.386   4.427   6.291  1.4855 -3.2360 -0.3748
  172SAPE   C1119449   3.460   4.491   6.495 -0.9666  0.3081 -0.7977
  172SAPE  H11A19450   3.455   4.439   6.593 -0.5628  0.2867 -0.7868
  172SAPE  H11B19451   3.403   4.587   6.492  0.8537  1.7944  3.8364
  172SAPE     P19452   3.645   4.655   6.396 -0.0237  0.5401 -0.2309
  172SAPE   O1319453   3.772   4.614   6.340 -0.2662 -0.4116  0.0887
  172SAPE   O1419454   3.538   4.711   6.314  0.3238  0.3540 -0.5556
  172SAPE   O1219455   3.590   4.527   6.466 -0.5012  0.2682 -0.0223
  172SAPE   O1119456   3.685   4.750   6.517  0.2685  0.3162 -0.1649
  172SAPE    C119457   3.727   4.701   6.645  0.2614 -0.2628  0.0004
  172SAPE    HA19458   3.747   4.592   6.650  1.3317 -0.0679  0.2571
  172SAPE    HB19459   3.819   4.756   6.675  0.6834 -0.8187 -0.2514
  172SAPE    C219460   3.623   4.732   6.750 -0.2531 -0.7042 -0.1077
  172SAPE    HS19461   3.523   4.706   6.710 -0.4702 -0.0059 -0.0223
  172SAPE   O2119462   3.643   4.869   6.800 -0.0985  0.3638  0.4070
  172SAPE   C2119463   3.542   4.929   6.843  1.0670 -0.1701 -0.1634
  172SAPE   O2219464   3.429   4.886   6.844  0.4672 -0.1600  0.1377
  172SAPE   C2219465   3.582   5.075   6.882 -0.3711  0.7749 -0.5655
  172SAPE   H2R19466   3.664   5.065   6.956  1.0499  0.4727 -2.0893
  172SAPE   H2S19467   3.620   5.123   6.789 -0.3901 -0.1935 -1.0873
  172SAPE    C319468   3.636   4.639   6.868 -0.2635  0.5285  0.1018
  172SAPE    HX19469   3.618   4.536   6.831  0.3209  0.6393 -0.5127
  172SAPE    HY19470   3.570   4.661   6.955 -0.4674 -2.7852  0.9173
  172SAPE   O3119471   3.773   4.646   6.915  0.3962 -0.0884  0.2468
  172SAPE   C3119472   3.817   4.538   6.967  0.1669 -0.0078 -0.7803
  172SAPE   O3219473   3.745   4.446   7.015 -0.2612 -0.1487 -0.2782
  172SAPE   C3219474   3.967   4.550   6.984  0.2518  0.0889  0.7328
  172SAPE   H2X19475   4.003   4.655   6.986  0.5214  0.0454 -0.6256
  172SAPE   H2Y19476   4.002   4.512   6.886 -0.5151  0.0876  0.4472
  172SAPE   C2319477   3.457   5.137   6.939  0.3257 -0.2109  0.1831
  172SAPE   H3R19478   3.391   5.062   6.988  2.8439 -1.8809  1.2044
  172SAPE   H3S19479   3.400   5.177   6.853  1.4399 -0.4236 -0.6754
  172SAPE   C2419480   3.488   5.254   7.040  0.8020 -0.0112 -0.7523
  172SAPE   H4R19481   3.389   5.300   7.063  0.8164 -0.9501  1.4536
  172SAPE   H4S19482   3.556   5.327   6.991  1.8184  0.7868  1.6739
  172SAPE   C2519483   3.562   5.214   7.164 -0.0927 -0.2871 -0.6611
  172SAPE   H5R19484   3.560   5.108   7.194 -2.4101  0.3397  1.7876
  172SAPE   C2619485   3.643   5.301   7.234  0.6138  0.6166  0.1689
  172SAPE   H6R19486   3.705   5.256   7.313  0.6927 -1.6770 -1.1006
  172SAPE   C2719487   3.678   5.444   7.205  0.3409 -0.5120 -0.2109
  172SAPE   H7R19488   3.615   5.473   7.118  2.1470  1.7562 -0.8616
  172SAPE   H7S19489   3.781   5.436   7.164 -0.2829  1.4398 -2.3260
  172SAPE   C2819490   3.659   5.536   7.323 -0.3041 -0.8205 -0.5007
  172SAPE   H8R19491   3.580   5.611   7.313  0.5854  0.2455  0.2045
  172SAPE   C2919492   3.735   5.568   7.421 -0.3581  0.4738 -0.3572
  172SAPE   H9R19493   3.709   5.644   7.496 -1.7112  0.7738 -1.1106
  172SAPE  C21019494   3.875   5.513   7.439  1.0916  0.3172  0.2773
  172SAPE  H10R19495   3.899   5.440   7.359 -1.1196 -0.3649  0.1763
  172SAPE  H10S19496   3.870   5.453   7.532  0.4536  0.2320  0.1909
  172SAPE  C21119497   3.980   5.619   7.445 -0.5878  0.3335 -0.6170
  172SAPE  H11R19498   4.032   5.626   7.349  1.3161  0.2436  0.3691
  172SAPE  C21219499   4.022   5.688   7.550  0.2530 -0.3714 -0.2556
  172SAPE  H12R19500   4.100   5.764   7.534 -0.7995  0.6563 -0.5833
  172SAPE  C21319501   3.968   5.680   7.694 -0.5588 -1.0721 -0.3294
  172SAPE  H13R19502   3.860   5.705   7.684 -1.0302 -0.9474  3.6321
  172SAPE  H13S19503   4.019   5.756   7.757 -1.7775 -2.4961  2.5612
  172SAPE  C21419504   3.979   5.550   7.767  0.4192 -0.2245 -0.6015
  172SAPE  H14R19505   4.045   5.470   7.732 -0.9328 -1.1712 -1.0494
  172SAPE  C21519506   3.902   5.522   7.879 -0.4095  0.7614  0.5670
  172SAPE  H15R19507   3.928   5.431   7.936 -1.7975 -0.5920 -0.8460
  172SAPE  C21619508   3.801   5.621   7.935 -0.3570  0.0997  0.2898
  172SAPE  H16R19509   3.698   5.582   7.922 -0.7014  0.4112  1.8694
  172SAPE  H16S19510   3.809   5.725   7.895 -1.2000  1.0186  2.3869
  172SAPE  C21719511   3.837   5.635   8.086  0.6464  0.4218  0.5292
  172SAPE  H17R19512   3.821   5.540   8.142 -0.8268  0.1114 -0.3542
  172SAPE  H17S19513   3.759   5.703   8.129  0.3971 -0.6418  1.8394
  172SAPE  C21819514   3.964   5.716   8.113 -0.1604 -0.6598 -0.6323
  172SAPE  H18R19515   3.953   5.823   8.084  0.3697 -0.7226 -1.0841
  172SAPE  H18S19516   4.048   5.679   8.051  0.4317 -0.5607  0.0938
  172SAPE  C21919517   4.015   5.718   8.259 -0.0131 -0.1666 -0.5026
  172SAPE  H19R19518   4.117   5.762   8.255 -1.4370  3.6236  0.2132
  172SAPE  H19S19519   4.013   5.610   8.284  1.3397 -0.0187  0.2911
  172SAPE  C22019520   3.921   5.787   8.360 -0.9090  0.3689  0.5818
  172SAPE  H20R19521   3.839   5.720   8.394 -2.8480  2.2613 -0.1288
  172SAPE  H20S19522   3.880   5.884   8.326  3.8793  2.0883 -1.0958
  172SAPE  H20T19523   3.976   5.804   8.454 -0.0912 -1.0309  0.3897
  172SAPE   C3319524   4.014   4.472   7.111 -1.0077  0.0608 -0.3313
  172SAPE   H3X19525   3.990   4.364   7.107  2.4690 -0.8533  0.5850
  172SAPE   H3Y19526   3.960   4.529   7.190  0.3614  2.1275 -0.7854
  172SAPE   C3419527   4.164   4.488   7.130  0.0873  0.5281 -0.1865
  172SAPE   H4X19528   4.189   4.596   7.128 -0.0683  0.5651 -1.6257
  172SAPE   H4Y19529   4.214   4.451   7.037  1.6272 -4.2689  2.1954
  172SAPE   C3519530   4.228   4.423   7.247 -0.1391 -0.3831  0.1084
  172SAPE   H5X19531   4.339   4.427   7.245 -0.1816  0.9436 -0.3134
  172SAPE   H5Y19532   4.210   4.313   7.247 -1.5287 -0.1794  0.6680
  172SAPE   C3619533   4.184   4.468   7.393 -0.6578  0.0453  0.9073
  172SAPE   H6X19534   4.082   4.425   7.394 -0.9757  0.4042 -2.5137
  172SAPE   H6Y19535   4.175   4.579   7.396 -1.7654 -0.0446  1.0375
  172SAPE   C3719536   4.261   4.413   7.515  0.5427  0.0414  0.2504
  172SAPE   H7X19537   4.371   4.427   7.507  0.3307  2.0565  0.4955
  172SAPE   H7Y19538   4.237   4.305   7.526 -1.7896  0.5312  0.5254
  172SAPE   C3819539   4.224   4.482   7.645  0.1078 -0.1380  0.0685
  172SAPE   H8X19540   4.125   4.449   7.683 -0.4224  1.5184  0.2376
  172SAPE   H8Y19541   4.218   4.593   7.635  1.9811  0.1716  1.7491
  172SAPE   C3919542   4.324   4.465   7.760 -0.1952 -0.3680  0.4605
  172SAPE   H9X19543   4.424   4.509   7.739  1.0671 -2.4661  1.7140
  172SAPE   H9Y19544   4.344   4.357   7.779  1.1570 -0.3948 -1.0061
  172SAPE  C31019545   4.271   4.531   7.884 -0.0632  0.0324 -0.3646
  172SAPE  H10X19546   4.171   4.488   7.907 -0.2764  1.1694  1.0097
  172SAPE  H10Y19547   4.246   4.637   7.862 -1.5118  0.3198  2.2550
  172SAPE  C31119548   4.371   4.529   8.005 -0.0018 -0.7629  0.4298
  172SAPE  H11X19549   4.474   4.563   7.979 -0.3436 -1.2474 -1.7989
  172SAPE  H11Y19550   4.382   4.427   8.048 -0.6208 -0.7333  0.6618
  172SAPE  C31219551   4.329   4.637   8.112 -0.2405  0.6724  0.0232
  172SAPE  H12X19552   4.236   4.598   8.158 -0.0839  0.1461 -0.1012
  172SAPE  H12Y19553   4.306   4.738   8.071 -0.9040  0.7495  0.5625
  172SAPE  C31319554   4.441   4.654   8.226  0.2888  0.5256 -0.9087
  172SAPE  H13X19555   4.532   4.704   8.186  0.5047  1.1939  0.3881
  172SAPE  H13Y19556   4.457   4.552   8.267 -0.0324  0.4830 -0.8883
  172SAPE  C31419557   4.384   4.737   8.344  0.0387  0.2584 -0.4854
  172SAPE  H14X19558   4.276   4.724   8.366  0.2618  0.2243  0.6910
  172SAPE  H14Y19559   4.389   4.845   8.318 -0.5577  1.0761  2.4055
  172SAPE  C31519560   4.461   4.729   8.475 -0.3622  0.8236 -0.0543
  172SAPE  H15X19561   4.436   4.638   8.534  1.4319  0.2954 -0.0345
  172SAPE  H15Y19562   4.432   4.827   8.518 -0.5083  1.8099 -2.2689
  172SAPE  C31619563   4.619   4.725   8.460  0.5633  0.1510 -0.4207
  172SAPE  H16X19564   4.645   4.808   8.391 -0.0748  0.2432 -0.5596
  172SAPE  H16Y19565   4.642   4.636   8.399  2.0140  0.5998 -0.5636
  172SAPE  C31719566   4.700   4.730   8.585  0.4165  0.2220  0.1054
  172SAPE  H17X19567   4.689   4.649   8.661  0.5781  0.8524  0.8137
  172SAPE  H17Y19568   4.701   4.832   8.629 -2.6587  0.3132  0.1823
  172SAPE  C31819569   4.848   4.704   8.561  0.2088  0.0444  0.5511
  172SAPE  H18X19570   4.862   4.599   8.527  0.7319  0.6288 -1.1322
  172SAPE  H18Y19571   4.907   4.705   8.655  1.3440 -0.1936 -0.1396
  172SAPE  H18Z19572   4.891   4.772   8.484  1.8259 -1.0315  0.4682
  173SOPE     N19573   3.634   4.100  10.762 -0.0849 -0.2041 -0.5489
  173SOPE   HN119574   3.661   4.175  10.694 -0.3851 -0.4230 -0.9124
  173SOPE   HN219575   3.675   4.019  10.711  0.2483  0.7211 -1.8098
  173SOPE   HN319576   3.531   4.084  10.760 -0.3649  1.4436 -1.1554
  173SOPE   C1219577   3.695   4.133  10.895  0.1858 -0.8093  0.0530
  173SOPE  H12A19578   3.804   4.145  10.878 -0.4791  2.9205 -2.8157
  173SOPE  H12B19579   3.689   4.042  10.959 -1.7037 -0.8844 -0.1677
  173SOPE   C1119580   3.624   4.241  10.978  0.1665  0.5632 -0.0383
  173SOPE  H11A19581   3.644   4.340  10.931 -1.8341  0.7610 -0.5488
  173SOPE  H11B19582   3.684   4.246  11.071  1.0887 -0.1155 -0.5848
  173SOPE     P19583   3.380   4.346  10.978 -0.3585  0.6748  0.3212
  173SOPE   O1319584   3.418   4.451  11.076  0.7614 -0.3266  0.1547
  173SOPE   O1419585   3.243   4.286  10.993  0.4410 -0.0430  0.4602
  173SOPE   O1219586   3.482   4.229  10.996 -0.6879 -0.2191 -0.4852
  173SOPE   O1119587   3.414   4.388  10.825  0.0101 -0.5025 -0.1949
  173SOPE    C119588   3.306   4.372  10.734  0.7963  0.3854  0.0451
  173SOPE    HA19589   3.227   4.448  10.755 -2.3766 -2.5657 -0.1984
  173SOPE    HB19590   3.264   4.269  10.742  1.8044  0.0559  1.6316
  173SOPE    C219591   3.343   4.378  10.586  0.2935 -0.2400  0.9705
  173SOPE    HS19592   3.251   4.414  10.534  1.0314 -1.7074 -1.4734
  173SOPE   O2119593   3.387   4.257  10.527  0.1146 -0.0556  0.1431
  173SOPE   C2119594   3.284   4.183  10.481  0.0069 -0.5326 -0.4965
  173SOPE   O2219595   3.168   4.201  10.519  0.0158 -0.4115  0.1083
  173SOPE   C2219596   3.312   4.096  10.362 -0.0713  0.7429 -0.1270
  173SOPE   H2R19597   3.250   4.004  10.373 -1.1442  1.6942  2.6486
  173SOPE   H2S19598   3.418   4.065  10.352 -0.6221 -1.0979 -0.6197
  173SOPE    C319599   3.453   4.482  10.559  0.0657 -0.2715 -0.4555
  173SOPE    HX19600   3.550   4.438  10.591 -0.3719 -0.2830  0.9424
  173SOPE    HY19601   3.428   4.560  10.634 -0.3617 -0.5603 -0.2872
  173SOPE   O3119602   3.439   4.529  10.426  0.4559  0.3791 -0.0994
  173SOPE   C3119603   3.451   4.656  10.401  0.2689  0.6693 -0.0149
  173SOPE   O3219604   3.468   4.750  10.480 -0.5905  0.0913  0.2170
  173SOPE   C3219605   3.443   4.668  10.259 -0.3905 -0.1301  0.3951
  173SOPE   H2X19606   3.435   4.778  10.242 -2.1502 -0.5219 -1.6939
  173SOPE   H2Y19607   3.347   4.625  10.223  1.3462 -1.7751 -2.6397
  173SOPE   C2319608   3.270   4.170  10.233 -0.1788  0.5959  0.2434
  173SOPE   H3R19609   3.325   4.263  10.208  1.5343 -0.6942 -1.0371
  173SOPE   H3S19610   3.160   4.186  10.235 -0.1888  0.5067  0.7460
  173SOPE   C2419611   3.311   4.085  10.113  0.4459 -0.0905  0.3530
  173SOPE   H4R19612   3.417   4.112  10.093  0.3209  1.1380  1.2351
  173SOPE   H4S19613   3.303   3.976  10.136  3.4540 -0.7798 -1.3357
  173SOPE   C2519614   3.231   4.130   9.986 -0.2127 -0.3798 -0.5968
  173SOPE   H5R19615   3.134   4.170  10.022 -0.4412 -2.3903  1.1957
  173SOPE   H5S19616   3.287   4.214   9.939  1.4876 -1.3280 -0.3520
  173SOPE   C2619617   3.212   4.017   9.883  0.7392  0.4554  0.0593
  173SOPE   H6R19618   3.312   3.970   9.880  0.2982 -0.6144  1.1099
  173SOPE   H6S19619   3.133   3.943   9.909  1.8010 -0.1860  1.5711
  173SOPE   C2719620   3.170   4.068   9.744  0.3163 -0.6247 -0.0500
  173SOPE   H7R19621   3.067   4.106   9.759 -0.4545 -2.9588  0.9591
  173SOPE   H7S19622   3.230   4.158   9.718  1.4726 -2.3910 -4.3850
  173SOPE   C2819623   3.173   3.973   9.621 -0.2663  0.3197 -0.1556
  173SOPE   H8R19624   3.129   3.874   9.645 -0.9839  0.3688 -1.1966
  173SOPE   H8S19625   3.110   4.024   9.546 -0.7298  1.1427  0.7769
  173SOPE   C2919626   3.314   3.933   9.579 -0.7730 -0.1358  0.2857
  173SOPE   H9119627   3.388   3.897   9.652  0.5750 -3.5688 -2.4856
  173SOPE  C21019628   3.354   3.938   9.448  0.3119  0.1065 -0.4158
  173SOPE  H10119629   3.453   3.893   9.432 -0.2606 -2.2186  1.9659
  173SOPE  C21119630   3.275   3.969   9.325 -0.2330 -0.3661  0.3114
  173SOPE  H11R19631   3.339   4.026   9.254 -1.2965 -0.0874 -0.4603
  173SOPE  H11S19632   3.187   4.034   9.345  0.4640  0.6341  0.1953
  173SOPE  C21219633   3.234   3.831   9.253 -0.3576  0.0614  0.0177
  173SOPE  H12R19634   3.181   3.779   9.336  1.0061  1.8789  2.1418
  173SOPE  H12S19635   3.328   3.776   9.236 -0.9573 -1.4395  1.3014
  173SOPE  C21319636   3.149   3.850   9.128 -0.3468 -0.1794 -0.3948
  173SOPE  H13R19637   3.206   3.928   9.073 -0.1503 -0.2596 -0.3094
  173SOPE  H13S19638   3.054   3.896   9.161  0.0362  0.3731 -0.0365
  173SOPE  C21419639   3.107   3.717   9.056  0.1476  0.4081  0.3291
  173SOPE  H14R19640   3.046   3.648   9.118  0.4547  0.3903  0.6120
  173SOPE  H14S19641   3.191   3.651   9.029  1.0166  1.1007  1.2296
  173SOPE  C21519642   3.022   3.746   8.932  0.2667 -0.2438 -0.3529
  173SOPE  H15R19643   2.964   3.835   8.963  2.0210  0.5983  0.6863
  173SOPE  H15S19644   2.944   3.671   8.909  0.0692 -0.0463 -0.3290
  173SOPE  C21619645   3.101   3.769   8.805  0.6183 -0.0777  0.7344
  173SOPE  H16R19646   3.160   3.684   8.764  0.9533  0.8960 -0.8792
  173SOPE  H16S19647   3.176   3.846   8.832 -0.3175  1.2802 -0.4350
  173SOPE  C21719648   3.002   3.812   8.686  0.4121 -0.0882 -0.1940
  173SOPE  H17R19649   2.962   3.914   8.707 -0.3094 -0.3583 -0.2267
  173SOPE  H17S19650   2.922   3.735   8.679  0.1421  0.3014 -4.1363
  173SOPE  C21819651   3.082   3.801   8.546 -0.1483 -0.1673 -0.3056
  173SOPE  H18R19652   3.121   3.698   8.530  0.6274 -0.5174  3.2092
  173SOPE  H18S19653   3.168   3.871   8.553 -0.0864 -0.1374 -1.1806
  173SOPE  H18T19654   3.007   3.828   8.468  0.7906 -0.2945 -1.2804
  173SOPE   C3319655   3.568   4.600  10.185  0.2759  0.0545 -0.2101
  173SOPE   H3X19656   3.574   4.497  10.224 -0.4937  0.5934  1.4456
  173SOPE   H3Y19657   3.654   4.663  10.218  0.8229 -1.6228  1.7427
  173SOPE   C3419658   3.537   4.602  10.034 -0.0414 -0.5966  0.3518
  173SOPE   H4X19659   3.640   4.604   9.992  0.3751 -0.9197  1.3346
  173SOPE   H4Y19660   3.486   4.694   9.996 -1.9536 -2.2810 -1.4024
  173SOPE   C3519661   3.447   4.482   9.994 -0.4212  0.2413 -0.1052
  173SOPE   H5X19662   3.343   4.519  10.000  0.2706  2.5616 -1.2552
  173SOPE   H5Y19663   3.462   4.397  10.064 -0.6937  0.8111  0.6628
  173SOPE   C3619664   3.486   4.419   9.862  0.6633  0.0687 -0.9504
  173SOPE   H6X19665   3.430   4.324   9.851  0.8909 -0.1101 -0.5832
  173SOPE   H6Y19666   3.595   4.402   9.871  0.2931 -1.9481  0.5447
  173SOPE   C3719667   3.452   4.509   9.745 -0.5203  0.4138  0.7917
  173SOPE   H7X19668   3.514   4.601   9.756  2.4638 -1.3216 -0.3153
  173SOPE   H7Y19669   3.343   4.530   9.748 -0.8438 -1.0409  0.0851
  173SOPE   C3819670   3.495   4.430   9.614  0.0811  0.0437  0.2738
  173SOPE   H8X19671   3.433   4.342   9.585 -0.4922  0.2950  0.7150
  173SOPE   H8Y19672   3.599   4.396   9.633  0.0099 -1.9163 -2.2339
  173SOPE   C3919673   3.505   4.514   9.481  0.0261 -0.0886 -0.4988
  173SOPE   H9X19674   3.556   4.610   9.505 -2.2187  1.0347  0.0621
  173SOPE   H9Y19675   3.403   4.531   9.440  0.6115  1.8159 -1.2906
  173SOPE  C31019676   3.576   4.455   9.361  0.5278  0.9264  0.0381
  173SOPE  H10X19677   3.659   4.389   9.393 -0.5112 -1.1325 -1.3290
  173SOPE  H10Y19678   3.617   4.545   9.310  1.5664  0.0777 -0.6524
  173SOPE  C31119679   3.489   4.379   9.264  0.4795 -0.2774  0.1492
  173SOPE  H11X19680   3.419   4.457   9.227  0.1052  0.8533  2.9465
  173SOPE  H11Y19681   3.429   4.307   9.322 -0.9195 -1.9245 -3.1239
  173SOPE  C31219682   3.555   4.308   9.146  0.3845  0.6586  0.1365
  173SOPE  H12X19683   3.478   4.241   9.101  1.6847  0.9573 -2.8220
  173SOPE  H12Y19684   3.646   4.247   9.162 -0.8468 -0.8678  1.7151
  173SOPE  C31319685   3.571   4.394   9.024  0.7096 -0.3006  0.3704
  173SOPE  H13X19686   3.641   4.478   9.044  1.6084 -0.5619 -1.4677
  173SOPE  H13Y19687   3.474   4.445   9.006  0.2910 -1.4151 -0.6840
  173SOPE  C31419688   3.603   4.316   8.901 -0.8347  0.2767 -0.6884
  173SOPE  H14X19689   3.688   4.248   8.922 -0.3590  0.3647 -2.1900
  173SOPE  H14Y19690   3.652   4.391   8.835  2.4090  0.7912  2.0023
  173SOPE  C31519691   3.497   4.228   8.834 -0.5926 -0.0356 -0.0584
  173SOPE  H15X19692   3.487   4.135   8.894  0.7071  0.0637  0.3294
  173SOPE  H15Y19693   3.540   4.193   8.738  1.6602  0.1541  0.8265
  173SOPE  C31619694   3.355   4.294   8.814 -0.7936 -0.2825  0.3164
  173SOPE  H16X19695   3.371   4.398   8.780 -0.8345 -0.1008  0.8615
  173SOPE  H16Y19696   3.307   4.307   8.913 -1.4930  0.9868 -0.1717
  173SOPE  C31719697   3.270   4.219   8.703 -0.1693  0.0506 -0.6633
  173SOPE  H17X19698   3.169   4.264   8.712 -0.2366 -0.4142  1.4820
  173SOPE  H17Y19699   3.272   4.112   8.735  0.5500  0.7449  1.8502
  173SOPE  C31819700   3.331   4.215   8.566 -0.2216  0.2678  0.8010
  173SOPE  H18X19701   3.430   4.165   8.572 -1.6018 -2.5504  2.0163
  173SOPE  H18Y19702   3.349   4.320   8.535  0.1325 -0.4080 -1.4077
  173SOPE  H18Z19703   3.259   4.168   8.495 -0.1508  0.6167  0.4995
  174SOPE     N19704   5.359   3.260  10.649 -0.2288  0.5344  0.1759
  174SOPE   HN119705   5.429   3.320  10.600 -1.1013 -0.2517 -2.2107
  174SOPE   HN219706   5.311   3.336  10.702 -0.2560 -1.2439  2.8633
  174SOPE   HN319707   5.414   3.203  10.715  2.2596  2.9200  0.3152
  174SOPE   C1219708   5.286   3.190  10.540 -0.2372  0.3073 -0.3460
  174SOPE  H12A19709   5.249   3.256  10.459  1.2135 -0.6395 -1.8351
  174SOPE  H12B19710   5.206   3.129  10.588 -0.1394  0.1657 -0.3619
  174SOPE   C1119711   5.379   3.089  10.466  0.1020  0.6002  0.5425
  174SOPE  H11A19712   5.465   3.146  10.426  0.7849  1.4087  2.9986
  174SOPE  H11B19713   5.315   3.042  10.388 -1.1734  2.1319  0.6026
  174SOPE     P19714   5.553   2.903  10.529 -0.0727  0.1365 -0.2396
  174SOPE   O1319715   5.521   2.767  10.493  0.2413  0.6031 -0.9401
  174SOPE   O1419716   5.638   2.935  10.649 -0.3174 -0.2456  0.5084
  174SOPE   O1219717   5.419   2.980  10.557  0.2961  0.2617  1.5851
  174SOPE   O1119718   5.615   2.969  10.405 -0.2557  0.0874  0.1489
  174SOPE    C119719   5.729   2.922  10.334  0.0812 -0.1539  0.3861
  174SOPE    HA19720   5.697   2.840  10.266  1.6822 -1.0189  0.6158
  174SOPE    HB19721   5.804   2.882  10.405 -0.4033  0.0729  1.0361
  174SOPE    C219722   5.793   3.043  10.253  0.0736  0.1207 -0.0064
  174SOPE    HS19723   5.831   3.113  10.331  0.3796 -0.9858  0.8592
  174SOPE   O2119724   5.696   3.092  10.153  0.0063 -0.6118  0.1233
  174SOPE   C2119725   5.638   3.198  10.197  0.3183  0.5023  0.4497
  174SOPE   O2219726   5.668   3.271  10.294 -0.2548 -0.1530  0.7709
  174SOPE   C2219727   5.535   3.246  10.093 -0.2281 -0.4833 -0.2881
  174SOPE   H2R19728   5.463   3.164  10.073 -3.1327  1.2244  2.2254
  174SOPE   H2S19729   5.594   3.270  10.002 -0.0188  2.3144  0.4743
  174SOPE    C319730   5.926   2.992  10.182 -0.5269  0.8200 -0.6066
  174SOPE    HX19731   5.984   2.940  10.262  1.2300 -1.5852 -3.2540
  174SOPE    HY19732   5.990   3.080  10.157  0.1507  1.1523  1.9620
  174SOPE   O3119733   5.918   2.903  10.071 -0.6386  0.1325 -0.0096
  174SOPE   C3119734   6.028   2.839  10.031 -0.1167 -0.1439 -0.5164
  174SOPE   O3219735   6.144   2.875  10.063  0.5096  0.3261  0.1084
  174SOPE   C3219736   5.993   2.722   9.943  0.3026  0.0092 -0.9222
  174SOPE   H2X19737   5.887   2.738   9.912  0.4163  1.0975 -0.7836
  174SOPE   H2Y19738   5.995   2.629  10.005  0.8130  0.8495  0.3475
  174SOPE   C2319739   5.447   3.375  10.132 -0.9442 -0.0353  0.0715
  174SOPE   H3R19740   5.522   3.455  10.149 -1.0458  0.0782 -0.0128
  174SOPE   H3S19741   5.398   3.345  10.227  0.5722 -3.0440 -0.0134
  174SOPE   C2419742   5.355   3.417  10.022  0.4948 -0.1080  0.5652
  174SOPE   H4R19743   5.332   3.323   9.968 -0.4616  0.3106  0.2252
  174SOPE   H4S19744   5.265   3.461  10.069  0.7116  1.8136 -0.7055
  174SOPE   C2519745   5.416   3.526   9.931 -1.1666 -0.0474 -0.3632
  174SOPE   H5R19746   5.472   3.600   9.992 -0.6523  0.6828 -1.6787
  174SOPE   H5S19747   5.489   3.481   9.861 -1.4473 -1.4259  0.2009
  174SOPE   C2619748   5.313   3.607   9.854  0.4766  0.6200  0.3392
  174SOPE   H6R19749   5.214   3.556   9.857 -0.1442  1.4892 -2.4355
  174SOPE   H6S19750   5.302   3.704   9.907 -3.3109 -0.3412  1.6490
  174SOPE   C2719751   5.351   3.630   9.705 -0.6304 -0.1798 -0.3244
  174SOPE   H7R19752   5.450   3.680   9.702 -0.5948 -0.2333 -0.0731
  174SOPE   H7S19753   5.364   3.533   9.652 -1.1760 -0.9103  0.8463
  174SOPE   C2819754   5.252   3.720   9.623  0.0389 -0.1374  0.0890
  174SOPE   H8R19755   5.151   3.676   9.632 -0.0009 -0.1806 -0.5270
  174SOPE   H8S19756   5.251   3.816   9.679  0.5669  0.1771 -0.4253
  174SOPE   C2919757   5.299   3.744   9.482 -0.4448  0.8237 -0.2661
  174SOPE   H9119758   5.395   3.797   9.474 -0.5217  0.9744 -0.1911
  174SOPE  C21019759   5.248   3.691   9.369  0.0889 -0.3523  0.3235
  174SOPE  H10119760   5.284   3.724   9.270  0.5596  0.1711  0.6619
  174SOPE  C21119761   5.133   3.593   9.361  0.4750 -0.4447  0.0352
  174SOPE  H11R19762   5.130   3.537   9.457 -0.7639  2.0034  1.5327
  174SOPE  H11S19763   5.158   3.521   9.281  0.3439 -0.2788 -0.1551
  174SOPE  C21219764   5.004   3.657   9.355  1.0160  0.3751  0.4307
  174SOPE  H12R19765   5.003   3.726   9.269  1.7694 -1.7110 -1.3524
  174SOPE  H12S19766   4.983   3.722   9.443  1.2256 -0.3136  1.0018
  174SOPE  C21319767   4.882   3.561   9.320 -0.6456  0.8478  0.2634
  174SOPE  H13R19768   4.787   3.618   9.309  0.4028  2.5239 -0.5160
  174SOPE  H13S19769   4.887   3.483   9.399  0.7046  1.9474  1.3125
  174SOPE  C21419770   4.901   3.480   9.184 -0.0321  0.2256 -0.1599
  174SOPE  H14R19771   5.007   3.452   9.165  0.3042  0.2118  1.5651
  174SOPE  H14S19772   4.864   3.542   9.100  0.8625 -1.0341 -1.5455
  174SOPE  C21519773   4.822   3.349   9.178  0.3323 -0.0154 -0.1019
  174SOPE  H15R19774   4.715   3.377   9.194 -0.2674 -3.1958  2.3443
  174SOPE  H15S19775   4.848   3.293   9.270 -0.5960 -0.9667 -0.4039
  174SOPE  C21619776   4.842   3.260   9.056 -0.6339 -0.3818 -0.5728
  174SOPE  H16R19777   4.911   3.313   8.988 -1.2951 -1.7449 -2.3850
  174SOPE  H16S19778   4.748   3.234   9.002 -0.8602 -1.8419  0.4589
  174SOPE  C21719779   4.925   3.131   9.088  0.3780 -0.6587 -0.5450
  174SOPE  H17R19780   4.947   3.078   8.993  0.3201  1.9379 -2.1045
  174SOPE  H17S19781   4.867   3.068   9.159  1.7275  0.0831  1.2888
  174SOPE  C21819782   5.062   3.153   9.161  0.6340  0.4670 -1.3390
  174SOPE  H18R19783   5.061   3.205   9.259  0.3551 -2.2864  0.2199
  174SOPE  H18S19784   5.114   3.224   9.092  1.3855  1.0500 -0.1958
  174SOPE  H18T19785   5.108   3.054   9.180 -0.3520  0.0457 -1.0725
  174SOPE   C3319786   6.090   2.713   9.825 -0.1870  0.0139  0.1528
  174SOPE   H3X19787   6.173   2.647   9.857 -1.2945 -0.5042  2.0894
  174SOPE   H3Y19788   6.125   2.814   9.797 -0.4140  0.4307  1.3559
  174SOPE   C3419789   6.030   2.657   9.694  0.0932 -0.0348  0.2026
  174SOPE   H4X19790   5.953   2.729   9.659 -0.4941  1.4402  4.0236
  174SOPE   H4Y19791   5.975   2.565   9.723 -0.3762 -0.2427 -1.2393
  174SOPE   C3519792   6.141   2.626   9.596  0.2815 -1.0427 -0.2394
  174SOPE   H5X19793   6.206   2.543   9.631 -0.2692 -0.8699  1.2640
  174SOPE   H5Y19794   6.198   2.717   9.568 -0.9805 -1.0178 -3.0867
  174SOPE   C3619795   6.081   2.584   9.459  0.6493  0.7758 -0.1641
  174SOPE   H6X19796   6.015   2.667   9.425  0.3536 -0.0704 -1.7475
  174SOPE   H6Y19797   6.019   2.495   9.484 -0.0537  0.9780 -1.1593
  174SOPE   C3719798   6.189   2.547   9.357 -0.0317  0.3237 -0.6202
  174SOPE   H7X19799   6.231   2.448   9.385 -1.7246 -0.5239 -0.9385
  174SOPE   H7Y19800   6.275   2.616   9.369 -0.5535  1.0905 -1.2331
  174SOPE   C3819801   6.113   2.553   9.228 -0.2605  0.0987 -0.0506
  174SOPE   H8X19802   6.061   2.650   9.211  0.8857  0.7499  0.0774
  174SOPE   H8Y19803   6.033   2.478   9.210 -0.3368 -0.6123  2.7937
  174SOPE   C3919804   6.216   2.536   9.114 -0.2215  0.5750 -0.0617
  174SOPE   H9X19805   6.255   2.434   9.133  1.1880  1.0163 -0.4302
  174SOPE   H9Y19806   6.299   2.610   9.121  0.0783  0.2272  0.1051
  174SOPE  C31019807   6.145   2.543   8.976  0.1103  0.1511  0.2944
  174SOPE  H10X19808   6.078   2.632   8.977  0.1954  0.2595 -1.2921
  174SOPE  H10Y19809   6.075   2.457   8.974  0.6124 -0.2486 -0.5643
  174SOPE  C31119810   6.240   2.541   8.848 -0.7269  0.1812 -0.3741
  174SOPE  H11X19811   6.337   2.496   8.875 -2.1607 -1.5838  2.2919
  174SOPE  H11Y19812   6.273   2.646   8.836 -1.4268  0.3838 -0.5960
  174SOPE  C31219813   6.168   2.485   8.724 -0.2637  0.0047 -0.4303
  174SOPE  H12X19814   6.071   2.539   8.723 -0.3141 -0.0739 -0.0407
  174SOPE  H12Y19815   6.150   2.380   8.756 -0.9818  1.0001  2.8847
  174SOPE  C31319816   6.241   2.501   8.590  0.0025  1.2909 -0.1216
  174SOPE  H13X19817   6.344   2.459   8.595 -0.0611  1.2254  1.0168
  174SOPE  H13Y19818   6.253   2.608   8.562  0.1329  2.2467  3.1336
  174SOPE  C31419819   6.165   2.426   8.474  0.0436 -0.1828  0.3701
  174SOPE  H14X19820   6.105   2.502   8.419 -1.0524 -0.7747  0.7413
  174SOPE  H14Y19821   6.087   2.356   8.510  0.6377 -0.2918  1.4911
  174SOPE  C31519822   6.260   2.352   8.385 -0.0854 -0.0057  0.9327
  174SOPE  H15X19823   6.314   2.278   8.448 -1.5966 -0.5946  1.5648
  174SOPE  H15Y19824   6.324   2.426   8.332 -0.7669 -1.3737 -2.0155
  174SOPE  C31619825   6.202   2.278   8.267 -0.3288 -0.2882  0.3248
  174SOPE  H16X19826   6.164   2.347   8.188  1.6829 -1.6882 -2.0038
  174SOPE  H16Y19827   6.121   2.215   8.308 -0.2581  1.3344  3.1861
  174SOPE  C31719828   6.315   2.204   8.191 -0.1894  0.0026 -0.1273
  174SOPE  H17X19829   6.251   2.149   8.118 -1.2341 -0.8287  1.3775
  174SOPE  H17Y19830   6.356   2.123   8.255 -0.7277  0.9038  1.3888
  174SOPE  C31819831   6.413   2.295   8.113 -0.3532  0.5920 -0.9856
  174SOPE  H18X19832   6.443   2.384   8.172 -1.4134  0.1115  0.3347
  174SOPE  H18Y19833   6.368   2.333   8.019  0.9889  1.7288 -1.1917
  174SOPE  H18Z19834   6.504   2.237   8.089 -0.0838  0.9875 -0.9381
  175SOPE     N19835   5.902   2.156  10.449 -0.1211  0.1274 -0.3223
  175SOPE   HN119836   5.824   2.191  10.508  1.7531  2.1429  1.1317
  175SOPE   HN219837   5.908   2.053  10.442 -0.0537 -0.2257  3.3461
  175SOPE   HN319838   5.986   2.193  10.498 -0.5339  2.2690 -1.0900
  175SOPE   C1219839   5.885   2.220  10.319  0.3994 -0.7340  0.8671
  175SOPE  H12A19840   5.778   2.235  10.292  0.1421  0.3478  2.3889
  175SOPE  H12B19841   5.924   2.155  10.238 -0.1431  0.9584 -0.8407
  175SOPE   C1119842   5.969   2.344  10.318  0.4692  0.3015  0.0240
  175SOPE  H11A19843   5.923   2.419  10.386 -1.9598  0.1750 -1.3486
  175SOPE  H11B19844   5.961   2.385  10.215 -3.0302  1.2064  0.5237
  175SOPE     P19845   6.221   2.399  10.409  0.3392 -0.6797  0.2178
  175SOPE   O1319846   6.301   2.328  10.509  0.0537 -0.5313 -0.0953
  175SOPE   O1419847   6.171   2.534  10.438  0.3378 -0.1277  0.3120
  175SOPE   O1219848   6.108   2.301  10.350  0.4011  0.4577  0.1023
  175SOPE   O1119849   6.328   2.426  10.297  0.6110  0.1949  0.4266
  175SOPE    C119850   6.331   2.536  10.211 -0.0141  0.0610  0.4826
  175SOPE    HA19851   6.390   2.614  10.265 -1.7237  0.3530  2.0178
  175SOPE    HB19852   6.230   2.576  10.189  1.1064  2.8256  0.0188
  175SOPE    C219853   6.396   2.501  10.076 -0.1645  0.3082  0.3378
  175SOPE    HS19854   6.497   2.461  10.101 -1.1194 -0.7919  2.7048
  175SOPE   O2119855   6.391   2.619   9.994  0.0725 -0.1833 -0.3795
  175SOPE   C2119856   6.477   2.706  10.023  0.1331 -1.1785 -0.2311
  175SOPE   O2219857   6.569   2.686  10.108 -0.3443  0.5712 -0.1416
  175SOPE   C2219858   6.466   2.830   9.939  0.4881 -0.7011  0.4258
  175SOPE   H2R19859   6.458   2.912  10.013  3.0895 -0.3037  0.3734
  175SOPE   H2S19860   6.372   2.827   9.880  1.5276  2.1214 -1.5772
  175SOPE    C319861   6.322   2.382  10.005 -0.4847 -0.3112  0.1180
  175SOPE    HX19862   6.214   2.408  10.007 -0.0983  1.3507  0.7103
  175SOPE    HY19863   6.336   2.279  10.045 -0.0207 -0.2511  0.1120
  175SOPE   O3119864   6.354   2.377   9.865 -0.1070 -0.5941 -0.3516
  175SOPE   C3119865   6.458   2.308   9.831 -0.1712  0.7218  0.8458
  175SOPE   O3219866   6.530   2.241   9.904 -0.4367  0.5143  0.0117
  175SOPE   C3219867   6.477   2.319   9.680  0.4541 -0.6632  0.0919
  175SOPE   H2X19868   6.551   2.402   9.673 -1.0702  0.6253 -1.6244
  175SOPE   H2Y19869   6.383   2.348   9.629  0.3594 -1.5430 -0.2506
  175SOPE   C2319870   6.571   2.859   9.835 -0.5052 -0.4850 -1.2089
  175SOPE   H3R19871   6.583   2.773   9.766  0.4533 -0.2012 -1.4156
  175SOPE   H3S19872   6.668   2.872   9.888 -1.7037  0.1658  0.9732
  175SOPE   C2419873   6.537   2.988   9.762 -0.4541  0.5380 -0.3248
  175SOPE   H4R19874   6.430   2.985   9.732 -0.5347 -0.8280  0.0352
  175SOPE   H4S19875   6.553   3.079   9.823 -0.0336  1.0711 -1.2021
  175SOPE   C2519876   6.631   3.015   9.647 -0.6576 -0.1098 -0.5429
  175SOPE   H5R19877   6.727   3.055   9.686  0.0655 -0.3896 -1.9800
  175SOPE   H5S19878   6.645   2.918   9.595 -0.8399  0.0343 -0.8704
  175SOPE   C2619879   6.567   3.106   9.542  0.3406  0.5608  0.6376
  175SOPE   H6R19880   6.475   3.053   9.509 -0.0194  2.8096 -2.3221
  175SOPE   H6S19881   6.535   3.196   9.597 -1.6695 -0.9381  2.0762
  175SOPE   C2719882   6.670   3.141   9.430  0.9217  0.8852  0.2803
  175SOPE   H7R19883   6.736   3.224   9.462 -0.2576  0.8106  3.1909
  175SOPE   H7S19884   6.733   3.054   9.401  0.3223  0.3659  0.4918
  175SOPE   C2819885   6.598   3.178   9.298 -0.1486 -0.8898 -0.3133
  175SOPE   H8R19886   6.656   3.168   9.204  0.1167 -0.2319 -0.2241
  175SOPE   H8S19887   6.510   3.110   9.297  1.0039 -2.6242  2.3306
  175SOPE   C2919888   6.541   3.319   9.311 -0.0966 -0.2402  0.5693
  175SOPE   H9119889   6.503   3.350   9.409  1.4385  0.6184  0.9275
  175SOPE  C21019890   6.547   3.424   9.222 -0.0306  0.3339 -0.1754
  175SOPE  H10119891   6.496   3.518   9.249 -1.2336 -0.4953  0.5307
  175SOPE  C21119892   6.608   3.423   9.089  0.1867  0.5167  0.1060
  175SOPE  H11R19893   6.607   3.324   9.037  1.6754 -0.5309  1.9625
  175SOPE  H11S19894   6.715   3.443   9.106 -0.0637  1.3416  0.7430
  175SOPE  C21219895   6.558   3.534   8.998 -0.5458  0.3770  0.2704
  175SOPE  H12R19896   6.569   3.627   9.057  2.1506  1.3037 -1.4877
  175SOPE  H12S19897   6.455   3.508   8.967 -0.4490  0.1838  0.1056
  175SOPE  C21319898   6.627   3.567   8.870 -0.0186 -0.0289 -0.6037
  175SOPE  H13R19899   6.620   3.481   8.800  0.5072 -0.7425  0.1966
  175SOPE  H13S19900   6.734   3.569   8.898  0.1430 -2.7239 -0.7534
  175SOPE  C21419901   6.574   3.691   8.804  0.4198  0.1664 -0.0918
  175SOPE  H14R19902   6.582   3.773   8.879 -0.6634 -1.3202  1.7480
  175SOPE  H14S19903   6.464   3.676   8.791  0.3215  1.7850 -1.5663
  175SOPE  C21519904   6.633   3.727   8.671 -0.2167  0.7945  0.6534
  175SOPE  H15R19905   6.567   3.689   8.590  0.5255  2.2315 -0.6783
  175SOPE  H15S19906   6.734   3.680   8.667 -0.4930  0.1343  1.2759
  175SOPE  C21619907   6.655   3.878   8.647 -0.2627  0.2563 -0.5040
  175SOPE  H16R19908   6.743   3.903   8.710 -0.2870 -0.0274 -0.3592
  175SOPE  H16S19909   6.559   3.923   8.683 -0.5534 -0.4369 -0.4023
  175SOPE  C21719910   6.689   3.907   8.501 -0.3245 -0.5454 -0.2074
  175SOPE  H17R19911   6.688   4.018   8.495 -0.7941 -0.4894  0.8246
  175SOPE  H17S19912   6.606   3.867   8.438 -2.3247  1.1488  1.2311
  175SOPE  C21819913   6.826   3.862   8.458 -0.8762  0.2072  0.5941
  175SOPE  H18R19914   6.899   3.901   8.532 -0.2393  0.9100 -0.3857
  175SOPE  H18S19915   6.866   3.895   8.360  0.0213 -3.8717 -0.6268
  175SOPE  H18T19916   6.830   3.751   8.468 -0.5067  0.3059  1.7407
  175SOPE   C3319917   6.524   2.194   9.610 -0.3205  0.3721 -1.1252
  175SOPE   H3X19918   6.462   2.110   9.647  1.7158  0.0163  1.8992
  175SOPE   H3Y19919   6.632   2.175   9.632  0.0612  0.6055 -2.6848
  175SOPE   C3419920   6.505   2.214   9.461 -0.0251  0.1394  0.1032
  175SOPE   H4X19921   6.398   2.242   9.452  0.6055  2.4230 -0.9471
  175SOPE   H4Y19922   6.515   2.122   9.399  0.9353 -0.4762  1.1308
  175SOPE   C3519923   6.601   2.320   9.405  0.3377 -0.2253 -0.1884
  175SOPE   H5X19924   6.705   2.282   9.416 -0.0564 -2.4322 -2.9096
  175SOPE   H5Y19925   6.590   2.416   9.459  1.2612 -0.4496  0.4164
  175SOPE   C3619926   6.571   2.363   9.262  0.3195 -0.3967 -0.5057
  175SOPE   H6X19927   6.624   2.456   9.233 -1.8569  1.8845  2.1924
  175SOPE   H6Y19928   6.471   2.409   9.266  0.4857  0.0215 -1.0358
  175SOPE   C3719929   6.587   2.246   9.161  0.5839 -0.4000 -0.2109
  175SOPE   H7X19930   6.508   2.174   9.191 -1.7738 -0.1134 -4.8344
  175SOPE   H7Y19931   6.682   2.188   9.174 -0.6987 -2.2286  1.7845
  175SOPE   C3819932   6.566   2.293   9.009  0.0197  0.5262 -0.9776
  175SOPE   H8X19933   6.468   2.345   9.000 -0.3804 -0.4221 -2.5253
  175SOPE   H8Y19934   6.550   2.196   8.955  1.0944  0.2615 -0.8340
  175SOPE   C3919935   6.681   2.380   8.952 -0.2826  0.0564 -0.0321
  175SOPE   H9X19936   6.780   2.329   8.952 -0.4641 -0.2925  0.4741
  175SOPE   H9Y19937   6.698   2.468   9.018 -1.2692  0.0256  0.2784
  175SOPE  C31019938   6.650   2.420   8.806  0.7811  0.3838  0.0541
  175SOPE  H10X19939   6.540   2.430   8.790  0.7067 -0.9030 -0.3509
  175SOPE  H10Y19940   6.674   2.333   8.741  1.0886  0.6722 -0.2246
  175SOPE  C31119941   6.724   2.552   8.766  0.7089 -0.1311 -0.1241
  175SOPE  H11X19942   6.833   2.542   8.785  0.6656  0.3370  0.3789
  175SOPE  H11Y19943   6.693   2.633   8.836  0.8634  1.0270 -1.3447
  175SOPE  C31219944   6.686   2.608   8.632  0.2017  0.1196  0.2751
  175SOPE  H12X19945   6.740   2.704   8.615 -1.1796  0.6516 -1.4292
  175SOPE  H12Y19946   6.575   2.621   8.632  0.2275  0.8142 -1.9303
  175SOPE  C31319947   6.728   2.516   8.508  0.2673 -0.4770 -0.6222
  175SOPE  H13X19948   6.654   2.433   8.511 -1.4006  0.9840  1.6382
  175SOPE  H13Y19949   6.830   2.474   8.517 -0.7281 -2.9341  0.0614
  175SOPE  C31419950   6.713   2.590   8.374 -0.0819  0.3912  0.4099
  175SOPE  H14X19951   6.761   2.690   8.380  1.8231 -0.4260 -0.3447
  175SOPE  H14Y19952   6.603   2.596   8.361  0.0276 -0.7876 -1.3573
  175SOPE  C31519953   6.788   2.512   8.264 -0.3335 -0.4330 -0.2556
  175SOPE  H15X19954   6.898   2.522   8.279  0.2597 -1.4920 -3.1581
  175SOPE  H15Y19955   6.769   2.554   8.162  3.0201 -0.5169 -1.0499
  175SOPE  C31619956   6.765   2.355   8.271 -0.3914 -1.0458  0.7203
  175SOPE  H16X19957   6.662   2.332   8.303 -0.2777  0.3070  2.1613
  175SOPE  H16Y19958   6.839   2.322   8.347  0.3529  0.7547  0.8362
  175SOPE  C31719959   6.816   2.286   8.141 -0.0728  0.4022  1.0393
  175SOPE  H17X19960   6.736   2.302   8.064 -0.1309 -2.2277  0.4665
  175SOPE  H17Y19961   6.815   2.177   8.162  1.6950  0.3210  0.8543
  175SOPE  C31819962   6.945   2.347   8.085 -0.4374  0.7262  0.1499
  175SOPE  H18X19963   6.979   2.292   7.995  0.8928  2.5003 -0.4828
  175SOPE  H18Y19964   7.022   2.344   8.164 -2.0747 -5.1937  2.0685
  175SOPE  H18Z19965   6.931   2.453   8.054  2.9353  1.1060 -0.4006
  176SOPE     N19966   5.007   2.080  10.673  0.4850 -0.3148  0.9078
  176SOPE   HN119967   4.994   2.163  10.735  0.1275  1.4731 -1.4033
  176SOPE   HN219968   5.109   2.070  10.655  0.6463  2.4702 -0.2102
  176SOPE   HN319969   4.956   2.104  10.585  0.5343 -3.4785 -0.1223
  176SOPE   C1219970   4.963   1.943  10.715  0.1502  0.3806  0.3100
  176SOPE  H12A19971   4.853   1.931  10.706  0.1541 -0.8585  1.5423
  176SOPE  H12B19972   4.975   1.924  10.824 -0.7645 -0.7754  0.2250
  176SOPE   C1119973   5.051   1.836  10.635 -0.0786 -0.7197  0.0364
  176SOPE  H11A19974   5.034   1.853  10.527 -2.0475  1.4227  0.6045
  176SOPE  H11B19975   5.024   1.730  10.653  0.9460 -1.2552 -1.4115
  176SOPE     P19976   5.270   1.754  10.768 -0.0644  0.3181  0.1541
  176SOPE   O1319977   5.199   1.623  10.749  0.3064 -0.4529 -0.6472
  176SOPE   O1419978   5.268   1.815  10.900  0.3141  0.1476  0.1145
  176SOPE   O1219979   5.193   1.856  10.673  0.1566  0.0867 -1.0189
  176SOPE   O1119980   5.417   1.735  10.723  0.2035 -0.8885  0.1824
  176SOPE    C119981   5.486   1.831  10.638 -0.0723 -1.0302  0.0566
  176SOPE    HA19982   5.596   1.822  10.654  0.4000 -0.2001 -2.3381
  176SOPE    HB19983   5.459   1.934  10.670 -0.0011 -0.5004 -1.4781
  176SOPE    C219984   5.458   1.807  10.496 -0.7371  0.3767  0.8630
  176SOPE    HS19985   5.353   1.841  10.480 -0.9556 -0.5951  0.1688
  176SOPE   O2119986   5.483   1.668  10.464 -0.1523 -0.5287 -0.1438
  176SOPE   C2119987   5.373   1.600  10.439  0.2435 -0.2754  0.2476
  176SOPE   O2219988   5.258   1.642  10.428 -0.0733  0.3215 -0.3299
  176SOPE   C2219989   5.417   1.459  10.403 -0.1616  0.2339 -0.0451
  176SOPE   H2R19990   5.349   1.388  10.456  1.3472 -2.3976 -1.4045
  176SOPE   H2S19991   5.525   1.446  10.425  0.0305  1.7454 -0.0276
  176SOPE    C319992   5.552   1.900  10.408  0.2258  0.0059 -0.1423
  176SOPE    HX19993   5.658   1.878  10.429  0.1555  0.1488  0.3706
  176SOPE    HY19994   5.526   1.997  10.455  0.6832 -0.5295  1.2714
  176SOPE   O3119995   5.519   1.902  10.269 -0.1569  0.5292 -0.6769
  176SOPE   C3119996   5.623   1.936  10.198  0.5687  0.3635 -0.3768
  176SOPE   O3219997   5.732   1.974  10.242  0.1138 -0.3498 -0.5234
  176SOPE   C3219998   5.597   1.904  10.053  0.5411  0.2154 -0.4047
  176SOPE   H2X19999   5.502   1.847  10.041 -1.6076  3.4671 -0.1499
  176SOPE   H2Y20000   5.684   1.846  10.016  1.3152  1.5738 -0.7840
  176SOPE   C2320001   5.382   1.426  10.255  0.1685  0.2564  0.8487
  176SOPE   H3R20002   5.279   1.456  10.227  0.4077 -0.2099 -0.6682
  176SOPE   H3S20003   5.373   1.316  10.244 -3.6621  0.2921  2.2001
  176SOPE   C2420004   5.461   1.479  10.137 -0.1836  0.0637 -0.1624
  176SOPE   H4R20005   5.442   1.589  10.136  1.2996  0.3793 -2.7852
  176SOPE   H4S20006   5.571   1.463  10.145  0.1108  1.6219 -0.7122
  176SOPE   C2520007   5.409   1.417  10.003 -0.2826 -0.8961 -0.6818
  176SOPE   H5R20008   5.429   1.309  10.020  1.2005 -0.6138 -0.4244
  176SOPE   H5S20009   5.304   1.429   9.971  0.3183 -1.6486 -3.1635
  176SOPE   C2620010   5.505   1.451   9.886 -0.0750  0.2892  0.0712
  176SOPE   H6R20011   5.452   1.527   9.825  0.6981  0.4040 -0.4734
  176SOPE   H6S20012   5.597   1.493   9.932  0.5279 -1.4038  0.4770
  176SOPE   C2720013   5.539   1.322   9.797 -0.5130 -0.4883 -0.2347
  176SOPE   H7R20014   5.592   1.247   9.859  2.4994 -0.9017 -3.0206
  176SOPE   H7S20015   5.438   1.286   9.771  0.2537 -0.4459 -3.7955
  176SOPE   C2820016   5.610   1.352   9.665 -0.1305  0.3797 -0.5214
  176SOPE   H8R20017   5.538   1.401   9.596 -0.9452 -0.3726 -0.2272
  176SOPE   H8S20018   5.683   1.432   9.688 -0.3521  0.2326  0.7994
  176SOPE   C2920019   5.697   1.246   9.595 -0.1918  0.0264 -0.0911
  176SOPE   H9120020   5.775   1.195   9.654 -0.7633  0.6658  1.2496
  176SOPE  C21020021   5.684   1.186   9.474 -0.5964 -0.8506  0.1410
  176SOPE  H10120022   5.758   1.114   9.435  0.4425  1.0850 -1.6967
  176SOPE  C21120023   5.567   1.216   9.379  0.3669 -0.6132 -0.5194
  176SOPE  H11R20024   5.477   1.258   9.429 -0.7296  0.9359 -3.5604
  176SOPE  H11S20025   5.526   1.120   9.340 -0.5588  0.6046 -2.6889
  176SOPE  C21220026   5.609   1.298   9.258  0.2412  0.0396 -0.1937
  176SOPE  H12R20027   5.630   1.402   9.290  3.6436 -0.3877 -0.6974
  176SOPE  H12S20028   5.523   1.283   9.189  1.9506  0.5163 -2.5281
  176SOPE  C21320029   5.731   1.242   9.182  0.1098 -0.1342  0.0389
  176SOPE  H13R20030   5.819   1.223   9.246 -0.6688  0.9908  1.5285
  176SOPE  H13S20031   5.767   1.328   9.122 -0.6238  2.0748  2.5425
  176SOPE  C21420032   5.678   1.125   9.096 -0.1332 -0.2444 -0.2502
  176SOPE  H14R20033   5.610   1.163   9.017  0.6953 -1.3163 -1.5279
  176SOPE  H14S20034   5.618   1.065   9.168  4.0396 -0.3950  3.5757
  176SOPE  C21520035   5.788   1.047   9.030  0.0369 -0.3434 -0.5541
  176SOPE  H15R20036   5.751   0.952   8.986 -0.1101  0.5029 -2.3659
  176SOPE  H15S20037   5.863   0.996   9.094  1.1734  1.5880 -0.2753
  176SOPE  C21620038   5.844   1.120   8.916  0.2857  0.2490  0.5203
  176SOPE  H16R20039   5.867   1.224   8.949  0.4371  0.1333  0.7865
  176SOPE  H16S20040   5.765   1.131   8.839  1.9718  0.0451 -1.3267
  176SOPE  C21720041   5.973   1.054   8.860 -0.5233  0.0967 -0.4620
  176SOPE  H17R20042   5.966   0.943   8.865  2.8426 -0.1828  0.8588
  176SOPE  H17S20043   6.052   1.077   8.935 -0.6751 -2.7020  0.6856
  176SOPE  C21820044   6.005   1.099   8.718 -0.0168  0.1503 -0.0084
  176SOPE  H18R20045   6.099   1.047   8.688 -0.1001 -0.1994  0.3370
  176SOPE  H18S20046   6.025   1.209   8.714 -0.8369  0.2949 -0.2724
  176SOPE  H18T20047   5.923   1.088   8.645  0.6360 -0.8467 -0.6178
  176SOPE   C3320048   5.561   2.038   9.975  1.0102  0.2438 -0.3050
  176SOPE   H3X20049   5.637   2.119   9.984  1.4430 -0.0991 -0.7919
  176SOPE   H3Y20050   5.474   2.081  10.029 -1.1775 -1.1622 -2.4625
  176SOPE   C3420051   5.525   2.000   9.832 -0.8999 -0.2324  0.0798
  176SOPE   H4X20052   5.494   2.082   9.763  1.3984 -0.1943 -1.0248
  176SOPE   H4Y20053   5.442   1.926   9.836 -0.5058 -0.6506  0.5695
  176SOPE   C3520054   5.651   1.935   9.762  0.1614  0.2577  0.3059
  176SOPE   H5X20055   5.711   1.864   9.823  1.0205  1.9261  1.4551
  176SOPE   H5Y20056   5.725   2.017   9.753 -0.3943  0.7956  0.6036
  176SOPE   C3620057   5.619   1.875   9.621 -0.3273  0.2631  0.1385
  176SOPE   H6X20058   5.580   1.968   9.575 -0.7908  0.6580  1.2869
  176SOPE   H6Y20059   5.541   1.797   9.628 -0.6725  0.4006 -1.7718
  176SOPE   C3720060   5.736   1.830   9.529  0.4827  0.4363  0.2565
  176SOPE   H7X20061   5.785   1.739   9.569  2.5142 -0.6641 -4.1614
  176SOPE   H7Y20062   5.817   1.906   9.540  2.0107 -1.0720 -0.1361
  176SOPE   C3820063   5.708   1.805   9.377  0.6065  0.3809  0.0255
  176SOPE   H8X20064   5.674   1.901   9.333  1.5675  1.4437  1.5151
  176SOPE   H8Y20065   5.615   1.743   9.373 -0.6016  2.1500 -3.0025
  176SOPE   C3920066   5.824   1.734   9.309 -0.5353 -0.3476  0.7396
  176SOPE   H9X20067   5.850   1.649   9.375  1.9965  1.1134  1.7666
  176SOPE   H9Y20068   5.917   1.795   9.304  0.1073 -1.2625  1.2687
  176SOPE  C31020069   5.788   1.694   9.162  0.0168 -0.4425  0.1901
  176SOPE  H10X20070   5.783   1.786   9.100  0.0026 -1.9105 -2.1202
  176SOPE  H10Y20071   5.697   1.630   9.158  1.7197 -3.1327  1.5787
  176SOPE  C31120072   5.892   1.599   9.099  0.1407 -0.3794 -0.4589
  176SOPE  H11X20073   5.881   1.499   9.145 -1.2439  0.4639  1.1484
  176SOPE  H11Y20074   5.988   1.653   9.114 -0.0956  0.4446 -1.6978
  176SOPE  C31220075   5.884   1.568   8.937 -0.1558 -0.3804 -0.4603
  176SOPE  H12X20076   5.816   1.481   8.929  0.2994 -0.5994 -2.9691
  176SOPE  H12Y20077   5.984   1.536   8.899  0.2128  0.6942 -0.4331
  176SOPE  C31320078   5.848   1.683   8.848  0.0215 -0.3352  0.1215
  176SOPE  H13X20079   5.937   1.746   8.831 -0.3738  0.7093  1.6738
  176SOPE  H13Y20080   5.768   1.746   8.893  1.4172  1.3740  0.2991
  176SOPE  C31420081   5.819   1.623   8.704 -0.2462 -0.5262 -0.2373
  176SOPE  H14X20082   5.736   1.550   8.702 -1.3187  0.6270  0.6951
  176SOPE  H14Y20083   5.908   1.563   8.673 -0.8591 -1.2578 -0.6080
  176SOPE  C31520084   5.801   1.733   8.592 -0.6491 -0.7102  0.8908
  176SOPE  H15X20085   5.884   1.806   8.597 -0.7501 -0.5270  0.0369
  176SOPE  H15Y20086   5.713   1.797   8.611  0.1387  0.4143  0.8700
  176SOPE  C31620087   5.791   1.663   8.458  0.0920 -0.3051  0.8392
  176SOPE  H16X20088   5.695   1.609   8.443  0.8311 -1.4827  0.1428
  176SOPE  H16Y20089   5.870   1.585   8.463  1.4741  0.9550 -0.4017
  176SOPE  C31720090   5.825   1.762   8.343  0.4132 -0.0380  0.0909
  176SOPE  H17X20091   5.914   1.814   8.385  2.2494 -1.9964 -1.2109
  176SOPE  H17Y20092   5.739   1.833   8.336  0.2157 -0.4630 -2.6248
  176SOPE  C31820093   5.856   1.697   8.211  0.4911  0.2556 -0.0156
  176SOPE  H18X20094   5.776   1.624   8.189  0.4518  0.0199  0.8534
  176SOPE  H18Y20095   5.957   1.650   8.204 -0.1494 -0.9510 -5.5055
  176SOPE  H18Z20096   5.853   1.771   8.128  0.7479  1.7114  1.2258
  177SOPE     N20097   5.513   0.583  11.072 -0.2242  0.3124 -0.0076
  177SOPE   HN120098   5.478   0.674  11.034  0.8152  0.7799  0.1016
  177SOPE   HN220099   5.467   0.550  11.159 -1.9495 -1.8353 -1.6235
  177SOPE   HN320100   5.612   0.596  11.101 -0.1363 -1.4130  0.5900
  177SOPE   C1220101   5.510   0.490  10.966  1.0130 -0.6229  0.3367
  177SOPE  H12A20102   5.400   0.478  10.952  0.7263 -0.0556  1.9162
  177SOPE  H12B20103   5.555   0.394  11.002  1.0997 -0.1213  1.6379
  177SOPE   C1120104   5.569   0.555  10.838 -0.1449 -0.1122 -0.7266
  177SOPE  H11A20105   5.550   0.490  10.750 -3.1928  0.1635 -0.3713
  177SOPE  H11B20106   5.679   0.565  10.854 -0.5051  1.3765  1.2179
  177SOPE     P20107   5.604   0.790  10.736  0.0709  0.0870  0.8807
  177SOPE   O1320108   5.678   0.712  10.637 -0.3367 -0.8186  0.1390
  177SOPE   O1420109   5.688   0.856  10.835 -0.5914 -0.3566 -0.3684
  177SOPE   O1220110   5.510   0.681  10.810  0.3405 -0.5109 -0.2956
  177SOPE   O1120111   5.509   0.899  10.672 -0.9301  0.1386 -0.6704
  177SOPE    C120112   5.375   0.865  10.629 -0.2204  0.4029  0.1464
  177SOPE    HA20113   5.305   0.951  10.633  0.0132  0.7368 -1.8553
  177SOPE    HB20114   5.330   0.780  10.685 -2.2227  1.0304 -0.4153
  177SOPE    C220115   5.370   0.823  10.472  0.2581  0.0651 -0.3210
  177SOPE    HS20116   5.414   0.723  10.452 -0.6204 -0.2700 -0.6344
  177SOPE   O2120117   5.432   0.930  10.394  0.3589 -0.1257 -0.0085
  177SOPE   C2120118   5.534   0.886  10.318  0.1233 -0.0874 -0.4044
  177SOPE   O2220119   5.581   0.773  10.320 -0.6678 -0.0301  0.2143
  177SOPE   C2220120   5.557   0.997  10.214 -1.2423 -0.8547 -0.0415
  177SOPE   H2R20121   5.513   1.085  10.266 -0.4452 -1.5026  1.7794
  177SOPE   H2S20122   5.493   0.983  10.124 -0.4909 -1.3917 -0.5026
  177SOPE    C320123   5.222   0.795  10.427  0.4410  0.2722  0.2662
  177SOPE    HX20124   5.184   0.898  10.411  0.0570  0.0281 -0.4591
  177SOPE    HY20125   5.159   0.757  10.510 -1.0973  0.9260 -0.5673
  177SOPE   O3120126   5.204   0.726  10.300  0.0195 -0.3359  0.1090
  177SOPE   C3120127   5.167   0.598  10.308  0.3866  0.4235  0.1364
  177SOPE   O3220128   5.164   0.532  10.412 -0.3760 -0.2911  0.3551
  177SOPE   C3220129   5.127   0.546  10.161  0.0036  0.0781 -0.1074
  177SOPE   H2X20130   5.155   0.628  10.092 -1.1502  0.3382 -0.2710
  177SOPE   H2Y20131   5.019   0.521  10.155 -0.0758 -0.7599  2.9855
  177SOPE   C2320132   5.706   1.037  10.176 -0.1994 -0.4556 -0.2365
  177SOPE   H3R20133   5.771   1.032  10.266 -0.8610  0.6372  0.3261
  177SOPE   H3S20134   5.706   1.143  10.142 -0.4782 -1.5099 -3.8874
  177SOPE   C2420135   5.766   0.953  10.060  0.7870  0.5987 -0.2170
  177SOPE   H4R20136   5.768   0.848  10.096 -1.6059  1.4944  3.0043
  177SOPE   H4S20137   5.697   0.960   9.974  1.1363 -2.1243 -0.8276
  177SOPE   C2520138   5.899   1.019  10.017  0.0941  0.3460  0.0662
  177SOPE   H5R20139   5.881   1.128  10.005  0.9505  0.5189  0.3309
  177SOPE   H5S20140   5.981   1.014  10.091  1.0967  0.7918 -0.9674
  177SOPE   C2620141   5.941   0.953   9.882  0.9254  0.0970  0.4781
  177SOPE   H6R20142   5.984   0.851   9.894  2.9691  1.2223  4.8001
  177SOPE   H6S20143   5.848   0.949   9.821 -0.5357 -0.4596  2.6417
  177SOPE   C2720144   6.047   1.031   9.804  0.1172 -0.6849 -0.2736
  177SOPE   H7R20145   5.996   1.104   9.738 -1.2039 -2.5430 -1.4381
  177SOPE   H7S20146   6.122   1.080   9.869 -1.0245  0.4746  0.2017
  177SOPE   C2820147   6.132   0.937   9.721 -0.2250 -0.2039  0.9863
  177SOPE   H8R20148   6.218   1.003   9.696 -0.0479 -0.3249  1.2610
  177SOPE   H8S20149   6.193   0.857   9.769  2.6251  0.0312 -1.8918
  177SOPE   C2920150   6.054   0.880   9.600 -0.4006 -0.4397 -0.0814
  177SOPE   H9120151   5.997   0.791   9.630  1.0856 -1.8081 -1.1423
  177SOPE  C21020152   6.055   0.914   9.473 -0.3707 -0.2347 -0.4189
  177SOPE  H10120153   5.994   0.861   9.399  1.6725  0.6176 -2.8790
  177SOPE  C21120154   6.128   1.026   9.406  0.0577 -0.3801 -0.5654
  177SOPE  H11R20155   6.161   1.096   9.486  0.2898 -0.2585 -0.7691
  177SOPE  H11S20156   6.054   1.077   9.340  0.7379  1.3632 -0.0517
  177SOPE  C21220157   6.245   0.989   9.321  0.1691  0.1502 -0.2196
  177SOPE  H12R20158   6.320   0.923   9.371  1.0314  1.4064  0.1821
  177SOPE  H12S20159   6.293   1.081   9.282 -0.4815  0.9686  0.8513
  177SOPE  C21320160   6.210   0.897   9.192  0.2353  0.1209  0.4183
  177SOPE  H13R20161   6.128   0.942   9.132  0.7203 -0.1812 -0.4841
  177SOPE  H13S20162   6.188   0.796   9.233 -0.8688 -0.8735 -2.3914
  177SOPE  C21420163   6.334   0.894   9.099  0.0919 -0.0946 -0.6527
  177SOPE  H14R20164   6.417   0.874   9.170 -0.6093 -0.6967  0.0234
  177SOPE  H14S20165   6.339   0.995   9.054  1.9255 -0.9034 -2.3879
  177SOPE  C21520166   6.341   0.785   8.989  0.0795  0.6699 -0.6670
  177SOPE  H15R20167   6.262   0.717   9.026 -0.4122  2.0298  0.8840
  177SOPE  H15S20168   6.440   0.734   9.002 -0.0906  0.3164 -0.7289
  177SOPE  C21620169   6.331   0.841   8.843 -0.2443 -0.3102  0.6636
  177SOPE  H16R20170   6.430   0.881   8.811 -1.2114 -0.3561 -2.7763
  177SOPE  H16S20171   6.255   0.921   8.839 -1.2297 -1.2736 -1.2911
  177SOPE  C21720172   6.293   0.731   8.739 -0.1410  0.7650 -1.1410
  177SOPE  H17R20173   6.183   0.716   8.741  0.1205 -1.4137  0.1059
  177SOPE  H17S20174   6.344   0.634   8.760 -2.2502 -0.0516  0.6173
  177SOPE  C21820175   6.342   0.764   8.594  0.2059 -0.0135 -0.6910
  177SOPE  H18R20176   6.453   0.758   8.596  0.4779  3.0580  1.8800
  177SOPE  H18S20177   6.311   0.869   8.573 -1.0167 -0.5255 -1.5316
  177SOPE  H18T20178   6.300   0.693   8.520 -0.8973 -2.0062  1.7025
  177SOPE   C3320179   5.203   0.415  10.130  0.8055  0.4784  0.0968
  177SOPE   H3X20180   5.185   0.337  10.207 -1.7056  0.3809 -0.4943
  177SOPE   H3Y20181   5.313   0.423  10.114  1.3734 -2.0238  1.9872
  177SOPE   C3420182   5.133   0.347   9.998 -0.2303  0.4460 -0.0589
  177SOPE   H4X20183   5.133   0.424   9.918 -1.0678 -0.1828 -0.6828
  177SOPE   H4Y20184   5.024   0.328  10.012 -0.7697  0.6315 -3.2442
  177SOPE   C3520185   5.190   0.214   9.948  0.5869  0.7610  0.2789
  177SOPE   H5X20186   5.218   0.154  10.037  0.5206  2.9441  1.8636
  177SOPE   H5Y20187   5.283   0.247   9.896 -0.2382  1.5787 -0.7316
  177SOPE   C3620188   5.110   0.133   9.839  0.3793  0.3389 -0.0383
  177SOPE   H6X20189   5.000   0.151   9.845  0.3987  0.0632  2.0631
  177SOPE   H6Y20190   5.124   0.024   9.858  1.5755  0.1852 -1.6391
  177SOPE   C3720191   5.152   0.155   9.693  0.1897 -0.4128  0.1627
  177SOPE   H7X20192   5.254   0.113   9.677 -0.1582 -0.4373 -2.4045
  177SOPE   H7Y20193   5.160   0.265   9.679 -3.8964  0.1685  1.1872
  177SOPE   C3820194   5.064   0.099   9.586 -0.0107  0.3863  0.4187
  177SOPE   H8X20195   4.959   0.133   9.600 -0.1121 -0.0576  0.7402
  177SOPE   H8Y20196   5.068  -0.012   9.590  2.7671  0.4126 -0.1931
  177SOPE   C3920197   5.091   0.155   9.446 -1.2186 -0.6005 -0.4094
  177SOPE   H9X20198   5.078   0.265   9.453 -2.4566 -0.7884  0.5310
  177SOPE   H9Y20199   5.026   0.110   9.368 -1.3385  1.7261 -1.7337
  177SOPE  C31020200   5.244   0.125   9.417 -0.5565  0.6459 -0.0076
  177SOPE  H10X20201   5.263   0.022   9.453 -0.9168  0.5146 -0.1849
  177SOPE  H10Y20202   5.309   0.191   9.478 -2.1553  1.1044  1.2947
  177SOPE  C31120203   5.266   0.137   9.269 -0.4745 -0.6304  0.6049
  177SOPE  H11X20204   5.233   0.045   9.217 -1.5699  1.2298 -2.1730
  177SOPE  H11Y20205   5.374   0.145   9.246  0.0815 -2.0011  2.4064
  177SOPE  C31220206   5.199   0.267   9.199 -0.3758  0.7880 -0.3721
  177SOPE  H12X20207   5.225   0.354   9.262  0.7095 -2.0336  3.4188
  177SOPE  H12Y20208   5.091   0.254   9.176  0.3675 -2.9838 -2.7555
  177SOPE  C31320209   5.269   0.291   9.065 -0.7976  0.3405  0.2609
  177SOPE  H13X20210   5.254   0.202   9.000 -1.6922  0.8846 -0.3080
  177SOPE  H13Y20211   5.376   0.296   9.093 -0.5223 -0.4837 -0.5508
  177SOPE  C31420212   5.244   0.426   9.000  0.0506 -0.4612 -0.6134
  177SOPE  H14X20213   5.249   0.508   9.074  0.7431  2.2338 -3.4255
  177SOPE  H14Y20214   5.145   0.419   8.949  1.3847 -0.2732 -3.4367
  177SOPE  C31520215   5.338   0.445   8.884  0.4345  0.2269 -1.0179
  177SOPE  H15X20216   5.420   0.370   8.887  1.4305  1.3022  0.1827
  177SOPE  H15Y20217   5.397   0.539   8.883  1.8370 -0.6132 -2.6078
  177SOPE  C31620218   5.256   0.435   8.756 -0.4650 -0.3856  0.4618
  177SOPE  H16X20219   5.188   0.522   8.749 -0.0494 -0.1559 -1.2207
  177SOPE  H16Y20220   5.197   0.342   8.750  1.6168 -1.7730  0.4950
  177SOPE  C31720221   5.343   0.446   8.624 -0.5473 -0.6290 -0.0866
  177SOPE  H17X20222   5.440   0.394   8.639 -0.0204 -0.4939 -2.5878
  177SOPE  H17Y20223   5.365   0.552   8.600 -0.1120 -0.8495 -0.7021
  177SOPE  C31820224   5.273   0.395   8.504 -0.2592 -0.0979  0.6055
  177SOPE  H18X20225   5.178   0.449   8.483  0.4494  0.7722 -0.5044
  177SOPE  H18Y20226   5.258   0.285   8.505 -0.3346 -0.1109 -0.5017
  177SOPE  H18Z20227   5.336   0.410   8.414  0.0412 -0.2715  0.7838
  178SOPE     N20228   2.563   5.308  10.309  0.4928 -0.5761  0.0375
  178SOPE   HN120229   2.546   5.206  10.302 -1.6853 -0.5953  3.1464
  178SOPE   HN220230   2.512   5.331  10.397 -1.8700  0.7600 -1.5670
  178SOPE   HN320231   2.520   5.358  10.229 -1.5002 -0.7437  0.9221
  178SOPE   C1220232   2.713   5.343  10.319 -0.0056 -0.7367 -0.1753
  178SOPE  H12A20233   2.766   5.290  10.237  1.1631 -0.0541  0.1075
  178SOPE  H12B20234   2.753   5.293  10.410  1.1486  0.3298 -0.0606
  178SOPE   C1120235   2.749   5.498  10.327 -0.4356 -0.1585  0.2577
  178SOPE  H11A20236   2.712   5.544  10.233 -1.7453  1.8153  1.6604
  178SOPE  H11B20237   2.857   5.518  10.310 -0.1185 -2.8822 -1.5083
  178SOPE     P20238   2.755   5.636  10.562  0.2579 -0.0893 -0.6001
  178SOPE   O1320239   2.877   5.570  10.605 -0.0764  0.1431  0.1780
  178SOPE   O1420240   2.643   5.649  10.664 -0.2074  0.5114  0.2396
  178SOPE   O1220241   2.687   5.560  10.443 -0.4854 -1.0617  0.3158
  178SOPE   O1120242   2.782   5.775  10.498 -0.0093 -0.5399  0.6071
  178SOPE    C120243   2.678   5.878  10.504 -0.2796 -0.0068  0.2096
  178SOPE    HA20244   2.721   5.980  10.500  0.3607 -0.2848 -0.2625
  178SOPE    HB20245   2.608   5.876  10.589 -0.2329 -0.3916  0.2416
  178SOPE    C220246   2.583   5.859  10.383  0.1038  0.2350 -0.2946
  178SOPE    HS20247   2.535   5.759  10.389 -0.1070  0.3566  0.1451
  178SOPE   O2120248   2.665   5.861  10.263 -0.4006 -0.1625 -0.2282
  178SOPE   C2120249   2.602   5.828  10.155 -0.3456  0.0156  0.5320
  178SOPE   O2220250   2.485   5.784  10.144 -0.4834 -0.5201 -0.4463
  178SOPE   C2220251   2.700   5.833  10.043  0.1060 -0.2383  0.1528
  178SOPE   H2R20252   2.770   5.747  10.033  1.3296  0.8380 -0.9214
  178SOPE   H2S20253   2.767   5.921  10.055 -1.0965  0.5383  1.5289
  178SOPE    C320254   2.461   5.956  10.386 -0.6725 -0.3238 -0.1889
  178SOPE    HX20255   2.408   5.938  10.482 -3.4765  0.2185 -1.5228
  178SOPE    HY20256   2.386   5.928  10.309 -0.7690  0.3800 -0.3524
  178SOPE   O3120257   2.504   6.089  10.352 -0.7863  0.3055 -0.7695
  178SOPE   C3120258   2.497   6.165  10.464  0.3914  0.1277 -0.5415
  178SOPE   O3220259   2.467   6.129  10.576  0.0311 -0.7489  1.0734
  178SOPE   C3220260   2.521   6.315  10.434  0.2092  0.1913  0.2511
  178SOPE   H2X20261   2.628   6.342  10.444  0.9492 -1.9601 -1.1730
  178SOPE   H2Y20262   2.455   6.360  10.511 -2.4061 -0.9946 -1.1186
  178SOPE   C2320263   2.627   5.866   9.907  0.2211 -0.3130  0.2914
  178SOPE   H3R20264   2.589   5.970   9.919  1.9179  0.6060 -1.6318
  178SOPE   H3S20265   2.539   5.801   9.886 -0.2234 -0.1105  1.4825
  178SOPE   C2420266   2.727   5.854   9.781 -0.2467 -0.3554 -0.4858
  178SOPE   H4R20267   2.816   5.912   9.813 -0.9151 -0.0904  0.9957
  178SOPE   H4S20268   2.756   5.748   9.770  0.3875 -0.1900 -0.4319
  178SOPE   C2520269   2.646   5.915   9.659 -0.6672 -0.7922 -0.3082
  178SOPE   H5R20270   2.550   5.859   9.656 -0.7289 -0.6837 -0.3779
  178SOPE   H5S20271   2.628   6.020   9.689 -0.8266 -1.6062  2.7612
  178SOPE   C2620272   2.724   5.900   9.527 -0.4751  0.4674  0.4681
  178SOPE   H6R20273   2.822   5.951   9.538 -0.1005 -0.1857  0.1927
  178SOPE   H6S20274   2.746   5.794   9.500 -3.9138 -0.0798 -0.6542
  178SOPE   C2720275   2.643   5.956   9.406  0.3670  0.2967  0.2133
  178SOPE   H7R20276   2.546   5.902   9.399 -0.0543  1.0752 -0.0236
  178SOPE   H7S20277   2.610   6.056   9.441  0.5673  0.5698 -0.3623
  178SOPE   C2820278   2.725   5.976   9.274  0.7739  0.1879  0.1461
  178SOPE   H8R20279   2.661   6.027   9.199  0.8389 -2.2043 -1.6322
  178SOPE   H8S20280   2.815   6.038   9.295  1.5005 -1.6840  3.0794
  178SOPE   C2920281   2.765   5.843   9.221 -0.0601 -0.2672  0.6746
  178SOPE   H9120282   2.853   5.797   9.269  1.2459  1.3318 -0.0735
  178SOPE  C21020283   2.703   5.764   9.129 -0.0297  0.7442  0.2065
  178SOPE  H10120284   2.738   5.665   9.097 -0.1349  1.0753 -0.9758
  178SOPE  C21120285   2.583   5.802   9.057  0.6412 -0.2697  0.6354
  178SOPE  H11R20286   2.544   5.905   9.075 -0.5747 -0.8158  1.2465
  178SOPE  H11S20287   2.499   5.735   9.082  0.0408 -1.1083 -3.0997
  178SOPE  C21220288   2.580   5.775   8.900 -0.2937 -1.2645 -0.9082
  178SOPE  H12R20289   2.610   5.864   8.841 -1.0738 -0.7759 -0.5846
  178SOPE  H12S20290   2.473   5.758   8.874 -0.2093 -1.5663 -1.0725
  178SOPE  C21320291   2.660   5.656   8.857  0.7806 -0.0445 -0.1219
  178SOPE  H13R20292   2.627   5.563   8.909  1.3722  0.2739  0.8434
  178SOPE  H13S20293   2.766   5.672   8.886  0.6516 -0.6472  0.7429
  178SOPE  C21420294   2.645   5.638   8.706 -0.0443 -0.6077 -0.2000
  178SOPE  H14R20295   2.675   5.736   8.664  0.9533 -1.8355 -2.5901
  178SOPE  H14S20296   2.535   5.629   8.688 -0.1736  1.2199 -0.4710
  178SOPE  C21520297   2.730   5.528   8.650 -0.3931 -0.0018  0.5394
  178SOPE  H15R20298   2.709   5.431   8.700  0.4566 -0.9003 -0.7517
  178SOPE  H15S20299   2.831   5.560   8.683  0.0978  0.3866 -1.2239
  178SOPE  C21620300   2.729   5.511   8.503 -0.8904  0.1067 -0.1654
  178SOPE  H16R20301   2.752   5.603   8.444 -1.1334  0.3126  0.0555
  178SOPE  H16S20302   2.632   5.469   8.468 -1.4521 -0.7852  2.3091
  178SOPE  C21720303   2.829   5.403   8.460  0.1955 -0.6690 -0.0789
  178SOPE  H17R20304   2.788   5.305   8.496  0.4203  0.0683  2.4064
  178SOPE  H17S20305   2.924   5.421   8.515  0.0368 -0.1294  0.0228
  178SOPE  C21820306   2.865   5.407   8.309 -0.3769 -0.3716  0.1797
  178SOPE  H18R20307   2.894   5.510   8.279 -0.1732 -0.7597 -1.0397
  178SOPE  H18S20308   2.779   5.372   8.247 -2.1861  0.3102  2.1825
  178SOPE  H18T20309   2.953   5.347   8.278  0.7886  0.9432  0.8548
  178SOPE   C3320310   2.449   6.353  10.305  0.5108  0.3236  0.4358
  178SOPE   H3X20311   2.340   6.336  10.305  0.3069  1.5208  0.1874
  178SOPE   H3Y20312   2.491   6.290  10.224  0.0217 -0.8238  1.0565
  178SOPE   C3420313   2.466   6.498  10.267 -0.0608  0.5517 -0.4189
  178SOPE   H4X20314   2.573   6.517  10.246 -0.2714  0.2749 -1.8958
  178SOPE   H4Y20315   2.444   6.559  10.357  1.7816 -0.3689  0.7151
  178SOPE   C3520316   2.375   6.541  10.156 -0.0335 -0.1600 -0.5195
  178SOPE   H5X20317   2.347   6.646  10.180  2.8674  0.2642  1.6396
  178SOPE   H5Y20318   2.281   6.483  10.166 -0.4549  0.7865  1.5017
  178SOPE   C3620319   2.440   6.547  10.013  1.2779  0.1051  0.8346
  178SOPE   H6X20320   2.469   6.441   9.993  2.2821  0.7060 -1.1561
  178SOPE   H6Y20321   2.524   6.618  10.019  1.4162 -0.1435  2.2104
  178SOPE   C3720322   2.341   6.584   9.900 -0.5008 -0.2780 -0.0940
  178SOPE   H7X20323   2.299   6.686   9.904 -0.8206 -0.3932 -0.4259
  178SOPE   H7Y20324   2.253   6.518   9.916  0.3017 -1.0121  1.5544
  178SOPE   C3820325   2.406   6.553   9.766  0.1897 -0.4487  0.4285
  178SOPE   H8X20326   2.427   6.444   9.754  1.4543 -0.1713  0.0012
  178SOPE   H8Y20327   2.504   6.604   9.779  0.2125 -0.5317  0.5808
  178SOPE   C3920328   2.342   6.614   9.635 -0.2085  0.5452 -1.0367
  178SOPE   H9X20329   2.319   6.720   9.659 -0.3147 -0.0764  2.0173
  178SOPE   H9Y20330   2.252   6.553   9.613  1.5752 -2.4224 -0.6649
  178SOPE  C31020331   2.438   6.598   9.517  0.0228 -0.1804  0.2763
  178SOPE  H10X20332   2.463   6.492   9.494  3.2091  0.6116 -0.3756
  178SOPE  H10Y20333   2.537   6.644   9.534 -2.0054  4.5350  0.8793
  178SOPE  C31120334   2.389   6.656   9.391 -0.1694 -0.5202 -0.2845
  178SOPE  H11X20335   2.463   6.656   9.309  0.9574 -0.9062  0.6989
  178SOPE  H11Y20336   2.356   6.759   9.418  1.1049 -0.1823  0.0779
  178SOPE  C31220337   2.265   6.581   9.334 -0.6511  0.3705 -0.2562
  178SOPE  H12X20338   2.175   6.578   9.399 -2.3854  0.8033 -2.5147
  178SOPE  H12Y20339   2.292   6.476   9.307  1.6728  0.7155  0.4574
  178SOPE  C31320340   2.206   6.641   9.209 -0.2113  0.0514 -0.6247
  178SOPE  H13X20341   2.179   6.747   9.228  1.3707  0.4286 -0.2903
  178SOPE  H13Y20342   2.104   6.603   9.187 -0.9007  1.8852 -0.7208
  178SOPE  C31420343   2.296   6.635   9.081  0.3779  0.7085 -0.3914
  178SOPE  H14X20344   2.318   6.527   9.068  2.2206  0.9915  0.1438
  178SOPE  H14Y20345   2.396   6.683   9.092  0.5528  0.3504 -0.3930
  178SOPE  C31520346   2.231   6.698   8.961  0.1956 -0.7508 -0.0412
  178SOPE  H15X20347   2.298   6.695   8.873 -0.5044 -1.0128 -0.5733
  178SOPE  H15Y20348   2.220   6.803   8.995 -0.6428 -0.8211 -0.0744
  178SOPE  C31620349   2.088   6.650   8.932  0.5867 -0.1366  0.2421
  178SOPE  H16X20350   2.036   6.719   8.862  1.6355 -0.2908 -0.7159
  178SOPE  H16Y20351   2.018   6.646   9.018 -1.0420 -2.1746 -1.0678
  178SOPE  C31720352   2.079   6.507   8.860  0.2612  0.1161  0.5415
  178SOPE  H17X20353   1.999   6.440   8.898  0.3363 -0.4467 -0.2773
  178SOPE  H17Y20354   2.168   6.443   8.881 -0.5569 -0.8479  1.1676
  178SOPE  C31820355   2.041   6.520   8.714  0.4029 -0.0111 -0.3727
  178SOPE  H18X20356   1.953   6.587   8.712 -0.7515 -1.3640  1.5994
  178SOPE  H18Y20357   2.007   6.422   8.675 -2.0269  0.6450 -0.0515
  178SOPE  H18Z20358   2.120   6.567   8.652  0.0604  1.3099  0.1532
  179SOPE     N20359   2.052   0.249   6.474  0.1548  0.7890  0.4521
  179SOPE   HN120360   2.107   0.338   6.469  0.7087  0.3782 -1.5487
  179SOPE   HN220361   2.119   0.173   6.453  1.1144  2.0916 -1.6527
  179SOPE   HN320362   1.987   0.244   6.393  3.0734  1.2550 -2.1286
  179SOPE   C1220363   1.986   0.239   6.608 -0.1372  0.4809  0.0673
  179SOPE  H12A20364   2.065   0.248   6.686  0.9383 -1.0521 -0.7742
  179SOPE  H12B20365   1.924   0.147   6.606 -2.2676  1.8457  0.3071
  179SOPE   C1120366   1.891   0.360   6.617  0.2082 -0.3254 -0.4826
  179SOPE  H11A20367   1.943   0.455   6.594  0.1982  0.2112  1.5193
  179SOPE  H11B20368   1.865   0.366   6.725 -0.9751  3.3453 -0.8286
  179SOPE     P20369   1.643   0.284   6.560  0.1375 -0.2405 -0.1420
  179SOPE   O1320370   1.669   0.141   6.577 -0.4680  0.1595 -0.4482
  179SOPE   O1420371   1.553   0.317   6.451  0.9834 -0.2397 -0.2242
  179SOPE   O1220372   1.782   0.342   6.530  0.2897 -0.2166  0.0457
  179SOPE   O1120373   1.596   0.360   6.691 -0.2115  0.2573 -0.0906
  179SOPE    C120374   1.593   0.505   6.679  0.4615  0.1805 -0.4549
  179SOPE    HA20375   1.515   0.545   6.612  1.1594  1.4407 -0.5591
  179SOPE    HB20376   1.687   0.541   6.631 -0.4797 -0.2895 -2.8013
  179SOPE    C220377   1.581   0.575   6.816 -0.2828  0.4393 -0.5373
  179SOPE    HS20378   1.551   0.681   6.803  0.4295  0.4687 -2.1033
  179SOPE   O2120379   1.707   0.568   6.888 -0.3917 -0.8405 -0.4371
  179SOPE   C2120380   1.796   0.654   6.837  0.3454 -0.2143 -0.1816
  179SOPE   O2220381   1.769   0.748   6.766 -0.0232  0.2346  0.1948
  179SOPE   C2220382   1.939   0.621   6.875  0.0158  0.0243  0.5075
  179SOPE   H2R20383   2.009   0.705   6.855 -0.5921  0.2694 -0.7020
  179SOPE   H2S20384   1.966   0.536   6.809  1.1163  1.5959 -1.1805
  179SOPE    C320385   1.470   0.506   6.896  0.3433  0.3155 -0.8238
  179SOPE    HX20386   1.472   0.395   6.889 -1.8861  0.1677 -0.0296
  179SOPE    HY20387   1.380   0.536   6.839 -1.0495  1.7673  1.9444
  179SOPE   O3120388   1.456   0.565   7.024 -0.5884  0.3605  0.3795
  179SOPE   C3120389   1.510   0.488   7.119 -0.3710 -0.5260  1.0041
  179SOPE   O3220390   1.575   0.384   7.107  1.0131  0.2405  0.0564
  179SOPE   C3220391   1.456   0.547   7.249 -0.9259  0.1956  0.2039
  179SOPE   H2X20392   1.345   0.541   7.255 -0.9591  0.0230 -0.4816
  179SOPE   H2Y20393   1.480   0.656   7.253 -0.2934  0.0215  1.8715
  179SOPE   C2320394   1.941   0.572   7.025  0.4220 -1.0199  1.1098
  179SOPE   H3R20395   2.046   0.537   7.042 -0.0728 -1.4742  3.5639
  179SOPE   H3S20396   1.876   0.486   7.053  0.0459  0.2721  4.6922
  179SOPE   C2420397   1.899   0.682   7.124 -0.1225  0.1099  0.1395
  179SOPE   H4R20398   1.961   0.772   7.106 -1.5791  1.2250  0.4658
  179SOPE   H4S20399   1.802   0.723   7.087 -0.5309 -0.4755  0.5336
  179SOPE   C2520400   1.910   0.653   7.273 -0.6996 -0.5202 -0.3015
  179SOPE   H5R20401   1.819   0.596   7.299  0.2031 -1.4774  0.8909
  179SOPE   H5S20402   1.990   0.577   7.289 -0.5776 -0.0085  1.7413
  179SOPE   C2620403   1.932   0.784   7.361 -0.2097  0.2600  0.3722
  179SOPE   H6R20404   2.007   0.849   7.311 -0.1685  0.7623  1.0624
  179SOPE   H6S20405   1.828   0.823   7.361 -0.6443 -0.8380 -0.7942
  179SOPE   C2720406   1.976   0.743   7.506  0.4412  0.3283 -0.0785
  179SOPE   H7R20407   1.899   0.671   7.540 -0.3307  0.1840 -2.0435
  179SOPE   H7S20408   2.075   0.692   7.508  3.2608  5.1277  0.1423
  179SOPE   C2820409   1.973   0.857   7.609  0.5243 -0.5877 -0.4100
  179SOPE   H8R20410   1.882   0.920   7.596  1.9319  2.2023  2.0303
  179SOPE   H8S20411   1.973   0.804   7.707 -2.8251  1.1961  0.7411
  179SOPE   C2920412   2.078   0.962   7.591 -0.3409 -0.5384 -1.4411
  179SOPE   H9120413   2.151   0.956   7.509  0.1162 -0.7309 -1.0218
  179SOPE  C21020414   2.107   1.062   7.680 -0.5296 -0.1560 -0.2817
  179SOPE  H10120415   2.191   1.131   7.664 -0.0899 -0.6891 -0.2816
  179SOPE  C21120416   2.027   1.063   7.814  0.5010  0.1941 -0.2808
  179SOPE  H11R20417   1.970   0.969   7.830  0.5245 -0.1911 -2.2299
  179SOPE  H11S20418   1.944   1.136   7.811 -0.5360 -0.9440 -2.5277
  179SOPE  C21220419   2.112   1.090   7.937 -0.6256  0.5436 -0.0973
  179SOPE  H12R20420   2.177   1.180   7.923  1.9725 -1.0773  0.7236
  179SOPE  H12S20421   2.178   1.002   7.919 -1.0378  0.8950 -3.9910
  179SOPE  C21320422   2.053   1.115   8.074  0.0511 -0.6542  0.3211
  179SOPE  H13R20423   2.034   1.019   8.125  1.2164  0.5373  3.1737
  179SOPE  H13S20424   1.961   1.175   8.057  0.9815  0.7308 -0.0291
  179SOPE  C21420425   2.146   1.195   8.170  0.1442  0.0454 -0.0666
  179SOPE  H14R20426   2.174   1.298   8.141  0.6396 -0.5582 -1.8302
  179SOPE  H14S20427   2.245   1.146   8.177  1.1404  1.9815 -0.1058
  179SOPE  C21520428   2.085   1.219   8.313  0.3620  0.4223  0.4239
  179SOPE  H15R20429   2.035   1.127   8.350 -1.6415  1.2968  0.0510
  179SOPE  H15S20430   2.015   1.306   8.309 -2.1866 -1.5293 -0.3760
  179SOPE  C21620431   2.200   1.245   8.417  1.0923  0.4059 -0.3476
  179SOPE  H16R20432   2.203   1.354   8.437  0.1021  0.2130  1.0462
  179SOPE  H16S20433   2.304   1.233   8.380  0.9019 -0.9815 -0.4804
  179SOPE  C21720434   2.189   1.164   8.555 -0.1672  0.2262  0.2546
  179SOPE  H17R20435   2.285   1.108   8.552  0.4041  1.1456  0.9553
  179SOPE  H17S20436   2.107   1.089   8.563  0.8588 -1.0762 -0.9527
  179SOPE  C21820437   2.197   1.252   8.675 -0.1169  0.1089  0.0691
  179SOPE  H18R20438   2.258   1.344   8.662 -2.9621  1.9955 -0.7536
  179SOPE  H18S20439   2.230   1.192   8.763  1.1333  0.9770  0.2121
  179SOPE  H18T20440   2.097   1.294   8.699  1.5543  2.9958  2.6698
  179SOPE   C3320441   1.516   0.472   7.372  1.0467  0.8067 -0.5365
  179SOPE   H3X20442   1.620   0.438   7.352  0.7307  0.1009 -1.0386
  179SOPE   H3Y20443   1.449   0.385   7.391  2.6512  0.0309  2.2518
  179SOPE   C3420444   1.528   0.568   7.490  0.1533 -0.3788  0.2210
  179SOPE   H4X20445   1.428   0.593   7.531 -0.3909 -0.2761 -1.1034
  179SOPE   H4Y20446   1.560   0.657   7.432 -1.3893 -0.2036 -0.4242
  179SOPE   C3520447   1.640   0.550   7.585  0.5240  0.0537  0.3843
  179SOPE   H5X20448   1.731   0.593   7.538  2.0756 -2.8392  0.4792
  179SOPE   H5Y20449   1.656   0.442   7.606 -0.7477 -0.8789 -2.8237
  179SOPE   C3620450   1.607   0.619   7.713 -0.5558  0.3361 -0.2285
  179SOPE   H6X20451   1.529   0.557   7.762  0.8604 -0.5272  0.9909
  179SOPE   H6Y20452   1.559   0.716   7.687 -0.9508 -0.0808 -1.1114
  179SOPE   C3720453   1.730   0.618   7.800  0.1933 -0.1035  0.1687
  179SOPE   H7X20454   1.808   0.663   7.735  0.6483 -2.3392 -0.9444
  179SOPE   H7Y20455   1.765   0.514   7.815  1.1808 -0.1649 -2.1538
  179SOPE   C3820456   1.717   0.696   7.932 -0.5606  0.0568 -0.3341
  179SOPE   H8X20457   1.645   0.647   8.000 -1.2421  1.1329 -0.2477
  179SOPE   H8Y20458   1.677   0.797   7.909  0.7899  1.1999  2.0446
  179SOPE   C3920459   1.848   0.707   8.004  0.1509  0.2844 -0.6746
  179SOPE   H9X20460   1.912   0.780   7.949 -1.0030  3.5286  1.9577
  179SOPE   H9Y20461   1.902   0.611   7.992 -1.7555 -0.8747 -0.2581
  179SOPE  C31020462   1.827   0.749   8.151 -0.0712 -0.5383 -0.0865
  179SOPE  H10X20463   1.737   0.700   8.194  0.6590 -0.7954  1.1963
  179SOPE  H10Y20464   1.827   0.860   8.144  2.3416 -0.6053 -3.6350
  179SOPE  C31120465   1.941   0.715   8.250  0.6204 -0.5481 -1.0107
  179SOPE  H11X20466   2.034   0.752   8.203 -1.5754  3.1006 -2.9369
  179SOPE  H11Y20467   1.949   0.608   8.281  0.4804 -0.7248 -1.5707
  179SOPE  C31220468   1.930   0.812   8.378  0.1140  0.1027 -0.1493
  179SOPE  H12X20469   1.856   0.893   8.358 -1.0936 -0.1940  2.6561
  179SOPE  H12Y20470   2.032   0.849   8.402  0.2480 -0.0884 -0.4222
  179SOPE  C31320471   1.883   0.740   8.498 -0.0739 -0.2834 -1.7589
  179SOPE  H13X20472   1.905   0.806   8.585  0.5113 -0.9357 -1.4010
  179SOPE  H13Y20473   1.934   0.643   8.519 -1.1310 -0.8897 -1.9373
  179SOPE  C31420474   1.734   0.708   8.490  0.4492 -0.0535  0.6110
  179SOPE  H14X20475   1.720   0.637   8.406  0.4363 -0.0141  0.5801
  179SOPE  H14Y20476   1.669   0.795   8.470  0.2625  0.5041  3.2180
  179SOPE  C31520477   1.664   0.649   8.616  0.4654  0.3456  0.2258
  179SOPE  H15X20478   1.717   0.704   8.697  2.6960 -1.5237  0.1436
  179SOPE  H15Y20479   1.687   0.542   8.630  0.1517  0.2474  0.0056
  179SOPE  C31620480   1.514   0.674   8.622  0.0576 -0.4997  0.1089
  179SOPE  H16X20481   1.450   0.609   8.558 -0.8830  0.4348  0.0851
  179SOPE  H16Y20482   1.499   0.782   8.601  1.3383 -0.0329  1.4098
  179SOPE  C31720483   1.454   0.662   8.763  0.0999  0.3175 -0.2461
  179SOPE  H17X20484   1.507   0.713   8.846 -1.2866  0.3299  0.6641
  179SOPE  H17Y20485   1.438   0.561   8.805  0.6640  0.3169 -0.0235
  179SOPE  C31820486   1.313   0.717   8.754 -0.1707  0.9737 -0.2751
  179SOPE  H18X20487   1.286   0.718   8.646 -0.4025 -0.9287 -0.2791
  179SOPE  H18Y20488   1.301   0.821   8.790  0.4255  1.0109 -0.1675
  179SOPE  H18Z20489   1.249   0.646   8.811 -1.3580  2.5993  0.4999
  180SOPE     N20490   1.270   0.277   6.483 -0.2629 -0.0423 -0.1002
  180SOPE   HN120491   1.371   0.273   6.508 -0.2715  2.3421  0.5808
  180SOPE   HN220492   1.236   0.350   6.548  0.0651 -1.3451  1.5903
  180SOPE   HN320493   1.221   0.188   6.503  0.4832 -0.0663  1.8552
  180SOPE   C1220494   1.241   0.305   6.336 -0.3020 -0.0405 -0.4693
  180SOPE  H12A20495   1.139   0.271   6.307 -0.8655  1.1751  0.0262
  180SOPE  H12B20496   1.311   0.236   6.284 -0.8577 -1.0912  0.1416
  180SOPE   C1120497   1.287   0.450   6.296 -0.0705 -0.3201 -0.0081
  180SOPE  H11A20498   1.287   0.472   6.187 -0.1341 -0.0681  0.0440
  180SOPE  H11B20499   1.393   0.460   6.325 -0.5026  2.1904  0.9100
  180SOPE     P20500   1.077   0.596   6.344 -0.6342 -0.3812 -0.1728
  180SOPE   O1320501   0.993   0.535   6.447  0.6656  0.1552 -0.7430
  180SOPE   O1420502   1.048   0.574   6.203  0.4496  0.4788  0.5395
  180SOPE   O1220503   1.227   0.550   6.375  0.5414  0.1252 -0.3667
  180SOPE   O1120504   1.071   0.749   6.370  0.1732  0.1593  0.3366
  180SOPE    C120505   1.180   0.838   6.354 -0.2469 -0.0383  0.4964
  180SOPE    HA20506   1.143   0.928   6.300  1.4725 -0.8781 -2.3256
  180SOPE    HB20507   1.245   0.813   6.267  0.8618  0.7905  1.0676
  180SOPE    C220508   1.264   0.850   6.483  0.6213 -0.5394 -0.1467
  180SOPE    HS20509   1.281   0.746   6.516  0.2417  0.0954  2.2523
  180SOPE   O2120510   1.186   0.914   6.586  0.0109  0.1666 -0.2681
  180SOPE   C2120511   1.152   0.839   6.692 -0.5277  0.4122 -0.4177
  180SOPE   O2220512   1.197   0.733   6.722 -0.0126  0.3966 -0.3000
  180SOPE   C2220513   1.041   0.920   6.766  0.5755  0.3899 -0.6234
  180SOPE   H2R20514   0.955   0.932   6.696 -1.0423 -1.1188  0.9880
  180SOPE   H2S20515   1.076   1.024   6.785 -0.3736  0.8267 -1.1815
  180SOPE    C320516   1.395   0.930   6.468 -0.9145  0.3172  0.1685
  180SOPE    HX20517   1.358   1.026   6.425 -1.1922  1.5175  2.8717
  180SOPE    HY20518   1.466   0.878   6.400  0.3242  1.4870  0.5127
  180SOPE   O3120519   1.457   0.948   6.593 -0.1156 -0.7298  0.0846
  180SOPE   C3120520   1.494   1.068   6.633  0.1031 -0.0148  0.4403
  180SOPE   O3220521   1.477   1.179   6.583  0.2951 -0.1720  0.6082
  180SOPE   C3220522   1.565   1.050   6.764 -0.6475  0.0664  0.2151
  180SOPE   H2X20523   1.585   1.152   6.803  0.7504  0.3447 -1.1840
  180SOPE   H2Y20524   1.655   0.995   6.732  0.0775  2.3455 -2.0421
  180SOPE   C2320525   0.990   0.852   6.901  0.6964 -0.2838  0.1740
  180SOPE   H3R20526   0.976   0.747   6.868  0.7330 -0.6044  1.1665
  180SOPE   H3S20527   0.883   0.879   6.919  0.8865  0.3900  0.3449
  180SOPE   C2420528   1.084   0.861   7.019 -0.8081 -0.4105  1.0158
  180SOPE   H4R20529   1.164   0.784   7.012 -1.2375 -0.7293 -2.0824
  180SOPE   H4S20530   1.134   0.960   7.014 -1.1038 -0.3187 -0.8218
  180SOPE   C2520531   1.019   0.865   7.158  0.4633  0.4782  0.5183
  180SOPE   H5R20532   0.947   0.949   7.165 -2.6452 -1.9611  0.4169
  180SOPE   H5S20533   0.951   0.778   7.175  1.6056 -0.2380  1.6424
  180SOPE   C2620534   1.119   0.882   7.271  0.6767  0.6813  0.0559
  180SOPE   H6R20535   1.181   0.791   7.291 -0.1049  0.5283  2.0623
  180SOPE   H6S20536   1.185   0.965   7.240  1.5790 -0.4704 -1.2338
  180SOPE   C2720537   1.054   0.912   7.407  0.0256  0.4223 -0.3818
  180SOPE   H7R20538   0.999   1.008   7.408 -0.3052  0.2490  1.8126
  180SOPE   H7S20539   0.986   0.828   7.433 -0.4488  0.0790 -2.5541
  180SOPE   C2820540   1.160   0.938   7.513  0.5815  0.3713  0.1638
  180SOPE   H8R20541   1.219   0.844   7.515  0.2344  0.1560  1.3312
  180SOPE   H8S20542   1.233   1.016   7.483  0.0015  0.1918 -1.8876
  180SOPE   C2920543   1.104   0.971   7.649 -0.2919  1.1309  0.0283
  180SOPE   H9120544   1.036   1.057   7.654 -1.1984  0.4163  0.1527
  180SOPE  C21020545   1.134   0.912   7.766  0.0695  0.4511  0.7445
  180SOPE  H10120546   1.077   0.946   7.853  0.1852  0.4494  0.8218
  180SOPE  C21120547   1.223   0.787   7.780 -0.0543  0.0232 -0.3809
  180SOPE  H11R20548   1.328   0.809   7.752  0.1600 -0.9519 -0.3696
  180SOPE  H11S20549   1.187   0.706   7.714 -2.1537 -0.5884  1.3680
  180SOPE  C21220550   1.235   0.728   7.930 -0.1014 -0.0079  0.7029
  180SOPE  H12R20551   1.289   0.631   7.920  0.0477  0.1512 -0.0617
  180SOPE  H12S20552   1.132   0.713   7.970  0.5675 -2.5604  1.7032
  180SOPE  C21320553   1.331   0.814   8.020  1.0904 -0.0182  0.3838
  180SOPE  H13R20554   1.292   0.917   8.003  0.9621 -0.3186 -1.3386
  180SOPE  H13S20555   1.437   0.801   7.990  1.1480 -2.5687  1.4255
  180SOPE  C21420556   1.323   0.786   8.168 -0.1880 -0.5315  0.2959
  180SOPE  H14R20557   1.377   0.873   8.211 -0.9239  1.4127 -2.4568
  180SOPE  H14S20558   1.381   0.699   8.205 -0.0007 -0.3404  0.4541
  180SOPE  C21520559   1.177   0.781   8.218  0.0429  0.4186  0.0835
  180SOPE  H15R20560   1.123   0.686   8.198  0.3887  0.2949 -0.2909
  180SOPE  H15S20561   1.123   0.867   8.173  2.1434  2.1091  0.6171
  180SOPE  C21620562   1.164   0.793   8.372  0.3000  0.9894 -0.1632
  180SOPE  H16R20563   1.198   0.891   8.411 -0.3575  0.6223  1.4053
  180SOPE  H16S20564   1.234   0.721   8.421 -1.3060 -1.1853 -0.8691
  180SOPE  C21720565   1.018   0.768   8.416 -0.3092  0.1284  0.0397
  180SOPE  H17R20566   0.994   0.662   8.396  1.6909 -0.5004  0.7265
  180SOPE  H17S20567   0.960   0.838   8.353 -1.1203 -1.8501 -1.4858
  180SOPE  C21820568   0.982   0.789   8.561 -0.1907  0.0002 -0.2463
  180SOPE  H18R20569   0.995   0.897   8.584  3.1820 -0.1553 -0.9519
  180SOPE  H18S20570   1.052   0.729   8.623 -0.5074 -0.2564 -0.1339
  180SOPE  H18T20571   0.883   0.750   8.593 -0.7105  1.2427 -0.2904
  180SOPE   C3320572   1.482   0.982   6.873  0.7481  0.0413 -0.0854
  180SOPE   H3X20573   1.452   0.877   6.852  0.9007  0.0772 -0.4909
  180SOPE   H3Y20574   1.391   1.043   6.890 -1.2063 -2.9016  0.8235
  180SOPE   C3420575   1.570   0.966   7.000 -0.1399 -0.0722  0.0860
  180SOPE   H4X20576   1.632   1.059   7.007 -0.7999  0.3728  0.1178
  180SOPE   H4Y20577   1.637   0.878   6.996  0.4889  0.4382 -1.2181
  180SOPE   C3520578   1.482   0.951   7.120  0.4686 -0.4736 -0.5251
  180SOPE   H5X20579   1.419   0.863   7.093  1.6075 -1.5359  0.1838
  180SOPE   H5Y20580   1.407   1.029   7.142 -0.0185 -1.1126  0.1122
  180SOPE   C3620581   1.575   0.916   7.238 -0.6586  0.9466 -0.8603
  180SOPE   H6X20582   1.664   0.980   7.226 -1.0945  1.8240  0.3963
  180SOPE   H6Y20583   1.607   0.810   7.232  1.5928  1.6607 -2.3108
  180SOPE   C3720584   1.503   0.943   7.375 -0.1428  1.0540  0.3513
  180SOPE   H7X20585   1.433   0.859   7.392 -2.0572  2.2459 -1.1461
  180SOPE   H7Y20586   1.440   1.035   7.367  0.2891  1.3297  0.0723
  180SOPE   C3820587   1.606   0.960   7.492  0.4206 -0.2416 -0.2823
  180SOPE   H8X20588   1.688   1.026   7.456  0.0083  0.2657 -0.3128
  180SOPE   H8Y20589   1.652   0.860   7.506 -1.1916 -1.5336 -3.2438
  180SOPE   C3920590   1.547   1.013   7.623 -0.5863  0.3620 -0.4320
  180SOPE   H9X20591   1.461   0.948   7.651 -2.8046  1.5433 -3.8843
  180SOPE   H9Y20592   1.501   1.111   7.598  0.4390  0.4323 -2.1998
  180SOPE  C31020593   1.640   1.029   7.745 -0.1917 -0.1211  0.2709
  180SOPE  H10X20594   1.704   1.115   7.716 -1.7597  1.1361  0.4433
  180SOPE  H10Y20595   1.705   0.939   7.743  0.4377  0.3303 -0.4506
  180SOPE  C31120596   1.560   1.055   7.876 -1.1222  0.0995 -0.2444
  180SOPE  H11X20597   1.532   0.955   7.915  2.4243 -0.9583 -0.0344
  180SOPE  H11Y20598   1.474   1.123   7.858 -1.1257 -0.3726 -2.2752
  180SOPE  C31220599   1.649   1.128   7.984 -0.3966 -0.3234 -0.1924
  180SOPE  H12X20600   1.662   1.236   7.963  1.4695 -0.4607  0.1097
  180SOPE  H12Y20601   1.751   1.083   7.979  0.5991  1.8537 -0.5804
  180SOPE  C31320602   1.596   1.094   8.125 -0.0967  0.6671 -0.5155
  180SOPE  H13X20603   1.558   0.991   8.143 -1.3904  1.2968  0.4782
  180SOPE  H13Y20604   1.498   1.145   8.137 -0.9351 -1.2277  1.3757
  180SOPE  C31420605   1.688   1.128   8.241  0.0572  0.1887  0.9411
  180SOPE  H14X20606   1.755   1.210   8.209 -0.2120 -0.0067 -0.1603
  180SOPE  H14Y20607   1.756   1.039   8.240 -0.4651 -0.2170 -0.1629
  180SOPE  C31520608   1.637   1.145   8.385  0.4533 -0.6922  0.5620
  180SOPE  H15X20609   1.576   1.057   8.414 -1.6606  0.7466  0.7187
  180SOPE  H15Y20610   1.572   1.234   8.395 -1.4709 -2.0632  0.8544
  180SOPE  C31620611   1.744   1.161   8.484  0.4689 -0.2532 -0.5730
  180SOPE  H16X20612   1.788   1.262   8.471 -2.9848  1.5873  0.7961
  180SOPE  H16Y20613   1.819   1.082   8.463  1.2369  0.4788 -0.6690
  180SOPE  C31720614   1.696   1.149   8.628  0.4708  0.4446 -0.4297
  180SOPE  H17X20615   1.632   1.059   8.643  0.4369  0.9031  2.7747
  180SOPE  H17Y20616   1.627   1.228   8.664  0.0100 -1.2988  2.8862
  180SOPE  C31820617   1.810   1.146   8.732  0.1958  0.0617  0.3894
  180SOPE  H18X20618   1.757   1.136   8.828 -3.4207 -2.5359 -1.6370
  180SOPE  H18Y20619   1.870   1.240   8.724 -2.0286  1.6309  1.1316
  180SOPE  H18Z20620   1.861   1.048   8.720 -0.3459 -0.0435 -1.4429
  181SOPE     N20621   0.099   4.652   5.526 -0.5465  0.0220  0.0187
  181SOPE   HN120622   0.083   4.748   5.489 -1.8515 -0.5123 -0.8800
  181SOPE   HN220623   0.132   4.644   5.624 -1.5947 -0.6032  0.3328
  181SOPE   HN320624   0.183   4.627   5.470  0.0184 -1.4974  1.4512
  181SOPE   C1220625  -0.010   4.554   5.506  0.2384 -0.6611 -0.1810
  181SOPE  H12A20626   0.013   4.482   5.425  0.2047 -0.2796 -0.5374
  181SOPE  H12B20627  -0.096   4.616   5.473 -0.4591  0.3145  3.0580
  181SOPE   C1120628  -0.040   4.501   5.643 -0.5638  0.4366  0.0631
  181SOPE  H11A20629   0.057   4.455   5.674  0.4714  2.4988  0.0719
  181SOPE  H11B20630  -0.114   4.424   5.613  0.6500 -0.3554 -1.0267
  181SOPE     P20631  -0.174   4.531   5.854 -0.2121  0.6397 -0.1317
  181SOPE   O1320632  -0.297   4.463   5.818  0.1894  0.3580 -0.2770
  181SOPE   O1420633  -0.179   4.636   5.959  0.1657  0.2363 -0.3145
  181SOPE   O1220634  -0.094   4.594   5.735  0.0380  0.1001  0.7455
  181SOPE   O1120635  -0.074   4.422   5.902 -0.6321 -0.4540  0.2811
  181SOPE    C120636   0.061   4.456   5.949  0.2215  0.0788 -0.5969
  181SOPE    HA20637   0.069   4.567   5.953  0.7663  0.0533 -0.9048
  181SOPE    HB20638   0.134   4.420   5.874 -0.2809 -1.3416 -0.4419
  181SOPE    C220639   0.081   4.391   6.082 -0.1588 -0.4409 -0.0277
  181SOPE    HS20640   0.074   4.281   6.070  0.3856 -0.3841 -1.0105
  181SOPE   O2120641  -0.037   4.438   6.162 -0.2472 -0.3161  0.2278
  181SOPE   C2120642  -0.128   4.349   6.196  0.2484 -1.1672  0.8092
  181SOPE   O2220643  -0.130   4.231   6.168 -0.3638 -0.4272  0.5779
  181SOPE   C2220644  -0.230   4.419   6.285  0.1699 -0.0793  0.1848
  181SOPE   H2R20645  -0.310   4.464   6.221 -1.5168 -1.6941  1.0520
  181SOPE   H2S20646  -0.192   4.498   6.352  0.3135 -0.6017  0.7252
  181SOPE    C320647   0.215   4.423   6.160 -0.1298  0.3148  0.2017
  181SOPE    HX20648   0.222   4.533   6.150 -2.4282  0.5923  1.0945
  181SOPE    HY20649   0.309   4.374   6.126 -0.5261 -3.3636  3.6560
  181SOPE   O3120650   0.212   4.393   6.305 -0.0788 -0.5197  0.0539
  181SOPE   C3120651   0.227   4.268   6.337 -0.5010  0.0359 -0.1343
  181SOPE   O3220652   0.244   4.173   6.257  0.4506 -0.1719  0.2365
  181SOPE   C3220653   0.220   4.254   6.489 -0.6910  0.3676 -0.2697
  181SOPE   H2X20654   0.196   4.147   6.507 -2.2329  0.8932  1.0208
  181SOPE   H2Y20655   0.128   4.308   6.520  0.1144  1.5918  0.0417
  181SOPE   C2320656  -0.306   4.329   6.386 -0.1980  0.8958 -0.2366
  181SOPE   H3R20657  -0.352   4.247   6.327  1.3977  0.1192 -0.4488
  181SOPE   H3S20658  -0.389   4.386   6.434  0.0132 -0.7666  2.3105
  181SOPE   C2420659  -0.230   4.265   6.500 -0.7210  0.1175  0.7001
  181SOPE   H4R20660  -0.303   4.202   6.555 -1.0839 -0.0846  0.0068
  181SOPE   H4S20661  -0.146   4.199   6.468 -0.3729  0.8174  0.1200
  181SOPE   C2520662  -0.152   4.360   6.590 -0.2648 -0.4954 -0.7652
  181SOPE   H5R20663  -0.070   4.408   6.532  0.9079 -2.5466 -0.9190
  181SOPE   H5S20664  -0.218   4.445   6.619  0.5192  0.1720 -0.8941
  181SOPE   C2620665  -0.092   4.285   6.717 -0.1477 -0.2838  0.2451
  181SOPE   H6R20666  -0.009   4.219   6.683  0.7267 -1.0669  3.5560
  181SOPE   H6S20667  -0.039   4.362   6.778  1.0528 -0.3432 -0.6917
  181SOPE   C2720668  -0.197   4.215   6.811 -0.2204  0.3165  0.5116
  181SOPE   H7R20669  -0.248   4.135   6.753  2.7528  0.0410 -1.9738
  181SOPE   H7S20670  -0.145   4.160   6.892  1.0790  0.9422  0.1261
  181SOPE   C2820671  -0.311   4.302   6.858 -0.6024  0.3433 -0.8148
  181SOPE   H8R20672  -0.265   4.384   6.916 -0.2817 -0.3607 -0.0482
  181SOPE   H8S20673  -0.364   4.331   6.765  0.0279 -0.4300 -1.4296
  181SOPE   C2920674  -0.402   4.218   6.943 -0.3405  0.1439  0.8107
  181SOPE   H9120675  -0.500   4.186   6.902 -0.5073 -0.1822  1.4509
  181SOPE  C21020676  -0.383   4.188   7.073 -0.0664 -0.6168 -0.4632
  181SOPE  H10120677  -0.460   4.131   7.127 -0.3053  1.5974  1.7500
  181SOPE  C21120678  -0.276   4.230   7.158 -0.1173 -0.5500 -0.1176
  181SOPE  H11R20679  -0.205   4.286   7.094 -0.0146 -0.5501 -0.0048
  181SOPE  H11S20680  -0.218   4.143   7.195  0.8107  0.7490  1.6777
  181SOPE  C21220681  -0.323   4.321   7.279 -0.6959  0.4570  0.2729
  181SOPE  H12R20682  -0.378   4.270   7.361  2.3292  0.8445  2.7558
  181SOPE  H12S20683  -0.394   4.394   7.234 -1.4611 -0.0551  0.6399
  181SOPE  C21320684  -0.209   4.398   7.348 -0.4466  0.1558 -0.9520
  181SOPE  H13R20685  -0.153   4.462   7.276 -0.6907  3.0178  1.2043
  181SOPE  H13S20686  -0.140   4.324   7.393 -1.6178 -1.4949 -1.7557
  181SOPE  C21420687  -0.251   4.499   7.451  0.1721 -0.7327  0.2131
  181SOPE  H14R20688  -0.322   4.574   7.410  2.0240  0.4991 -0.8485
  181SOPE  H14S20689  -0.167   4.566   7.478 -1.1443  1.0944 -0.0407
  181SOPE  C21520690  -0.312   4.427   7.577  0.3203  0.5945  0.0408
  181SOPE  H15R20691  -0.247   4.338   7.593  1.0190  1.2697  1.0833
  181SOPE  H15S20692  -0.414   4.393   7.549 -0.4534  3.5593 -1.0653
  181SOPE  C21620693  -0.326   4.518   7.696 -0.3758  0.1007  0.1849
  181SOPE  H16R20694  -0.399   4.601   7.684 -1.3415 -0.8996 -1.1416
  181SOPE  H16S20695  -0.222   4.556   7.706  0.7683 -1.9361 -2.8227
  181SOPE  C21720696  -0.359   4.438   7.823 -0.5972 -0.2371  0.0044
  181SOPE  H17R20697  -0.454   4.385   7.800 -0.2984 -1.8286  2.1290
  181SOPE  H17S20698  -0.379   4.508   7.907  1.0322 -0.5800  0.7247
  181SOPE  C21820699  -0.255   4.341   7.879 -0.0195  0.2413  0.0658
  181SOPE  H18R20700  -0.211   4.277   7.800  3.2914  2.4409 -0.0958
  181SOPE  H18S20701  -0.295   4.282   7.964 -0.4057 -2.1909 -1.6952
  181SOPE  H18T20702  -0.174   4.412   7.906  0.1611  0.7924 -1.7570
  181SOPE   C3320703   0.329   4.314   6.580  0.2479  0.2234 -0.2197
  181SOPE   H3X20704   0.341   4.419   6.545 -1.3563  0.0512 -1.4126
  181SOPE   H3Y20705   0.427   4.264   6.565 -0.5681 -1.8153  0.8691
  181SOPE   C3420706   0.305   4.306   6.732  0.8654 -0.1000  0.1026
  181SOPE   H4X20707   0.213   4.363   6.757 -0.4931 -1.6932 -1.0402
  181SOPE   H4Y20708   0.398   4.347   6.776 -0.0873  0.8751  1.2996
  181SOPE   C3520709   0.287   4.164   6.794 -0.2673 -0.3119  0.0992
  181SOPE   H5X20710   0.368   4.111   6.740 -1.0967 -0.7097 -0.7766
  181SOPE   H5Y20711   0.188   4.115   6.784 -0.8533  0.7621  0.4580
  181SOPE   C3620712   0.330   4.172   6.940 -0.9306  0.2463 -0.1054
  181SOPE   H6X20713   0.432   4.215   6.948 -0.5615 -0.5670 -0.3608
  181SOPE   H6Y20714   0.352   4.073   6.984  0.4668  2.1038  3.9488
  181SOPE   C3720715   0.227   4.248   7.022 -0.1538  0.0975 -0.5608
  181SOPE   H7X20716   0.121   4.224   7.003 -0.2249 -0.0491 -0.0109
  181SOPE   H7Y20717   0.231   4.355   6.992  1.9129 -0.2404 -1.6853
  181SOPE   C3820718   0.256   4.252   7.175 -0.1934 -0.0879 -0.0258
  181SOPE   H8X20719   0.364   4.276   7.183 -0.5635  1.7618 -0.1955
  181SOPE   H8Y20720   0.227   4.149   7.206  2.1642 -0.8316 -0.1419
  181SOPE   C3920721   0.174   4.359   7.247  0.8056 -0.3844 -0.0536
  181SOPE   H9X20722   0.067   4.355   7.218  0.7785  0.5145 -0.0927
  181SOPE   H9Y20723   0.213   4.461   7.229  1.7558 -0.0917  3.0882
  181SOPE  C31020724   0.183   4.339   7.399 -0.5102  0.0032 -0.0733
  181SOPE  H10X20725   0.291   4.322   7.418 -0.2274 -0.4362 -1.8963
  181SOPE  H10Y20726   0.149   4.236   7.423  1.1275 -1.0976 -2.1635
  181SOPE  C31120727   0.141   4.456   7.488  0.4493 -0.3152 -0.4486
  181SOPE  H11X20728   0.041   4.481   7.448 -0.7703 -0.9150  2.0511
  181SOPE  H11Y20729   0.224   4.528   7.472 -0.3659  1.1288  1.4166
  181SOPE  C31220730   0.146   4.416   7.631  0.0185  0.5822 -0.5272
  181SOPE  H12X20731   0.240   4.366   7.663 -1.7060 -1.6598  1.4101
  181SOPE  H12Y20732   0.071   4.341   7.663  0.6846  0.1353  0.0190
  181SOPE  C31320733   0.130   4.539   7.724 -0.6579  0.0441  0.4354
  181SOPE  H13X20734   0.036   4.591   7.694  0.7762  1.5283 -1.7967
  181SOPE  H13Y20735   0.211   4.611   7.697 -0.7351 -0.2129 -0.5117
  181SOPE  C31420736   0.142   4.514   7.874 -1.0405  0.5279 -0.1680
  181SOPE  H14X20737   0.239   4.469   7.904 -0.7054  1.0652 -0.4234
  181SOPE  H14Y20738   0.062   4.443   7.903  0.3414  0.1686  3.2575
  181SOPE  C31520739   0.110   4.638   7.950 -0.1486  0.0866  0.0417
  181SOPE  H15X20740   0.008   4.669   7.917 -0.7074 -0.8655  0.8292
  181SOPE  H15Y20741   0.186   4.714   7.922  0.2461 -0.3924 -0.1852
  181SOPE  C31620742   0.095   4.622   8.097  0.7322 -0.4192  0.0088
  181SOPE  H16X20743   0.190   4.602   8.151 -0.5620 -2.2550  1.7680
  181SOPE  H16Y20744   0.026   4.544   8.135  0.1139  0.5692  0.9740
  181SOPE  C31720745   0.032   4.751   8.157  0.6178 -0.6708 -0.0484
  181SOPE  H17X20746   0.082   4.844   8.120 -2.6111  1.9926  1.6933
  181SOPE  H17Y20747   0.052   4.746   8.266  0.7290  0.2323 -0.0177
  181SOPE  C31820748  -0.121   4.780   8.124 -0.5307 -0.1760 -0.0797
  181SOPE  H18X20749  -0.145   4.887   8.143 -0.3682 -0.4003  1.5784
  181SOPE  H18Y20750  -0.185   4.717   8.190  0.5501 -0.6087  0.5795
  181SOPE  H18Z20751  -0.149   4.774   8.017  0.5114  1.5989 -0.5103
  182SOPE     N20752   0.101   0.259   5.982  0.6794 -0.2519  0.8934
  182SOPE   HN120753   0.079   0.338   6.047  0.8710  0.5742 -0.0157
  182SOPE   HN220754   0.052   0.269   5.891  0.6521 -1.3475  0.7777
  182SOPE   HN320755   0.055   0.175   6.023 -2.2238  0.6749 -0.2153
  182SOPE   C1220756   0.248   0.226   5.978  0.1392 -0.4732 -0.4404
  182SOPE  H12A20757   0.263   0.163   5.888  1.2405 -0.7979 -0.0562
  182SOPE  H12B20758   0.276   0.167   6.068  1.5181  2.1101  0.9704
  182SOPE   C1120759   0.344   0.350   5.966 -0.2784 -0.7978  0.4460
  182SOPE  H11A20760   0.296   0.435   5.912 -1.7253 -0.8128  1.6492
  182SOPE  H11B20761   0.434   0.327   5.904 -0.9874  0.0678 -0.9753
  182SOPE     P20762   0.474   0.333   6.193  0.1343 -0.4698  0.0694
  182SOPE   O1320763   0.555   0.435   6.259 -0.5833 -0.2965  0.1838
  182SOPE   O1420764   0.549   0.238   6.117 -0.2176  0.3218  0.5553
  182SOPE   O1220765   0.372   0.405   6.099  0.1977 -0.4504  0.5335
  182SOPE   O1120766   0.397   0.252   6.298  0.0831 -0.6206 -0.0412
  182SOPE    C120767   0.275   0.306   6.352 -0.4126  0.2778  0.3163
  182SOPE    HA20768   0.245   0.241   6.437  0.0987  0.8396  0.9340
  182SOPE    HB20769   0.195   0.294   6.276 -0.0037  0.2074 -0.1097
  182SOPE    C220770   0.270   0.452   6.401  0.1177  0.8152  0.2917
  182SOPE    HS20771   0.327   0.516   6.330 -1.7548 -0.5982 -2.6943
  182SOPE   O2120772   0.337   0.451   6.526 -0.0262 -0.5985  0.2023
  182SOPE   C2120773   0.358   0.570   6.585  0.0099  0.3611  0.2643
  182SOPE   O2220774   0.345   0.676   6.532  0.5387 -0.4051  0.1514
  182SOPE   C2220775   0.420   0.551   6.726 -0.0275  0.2205  0.2670
  182SOPE   H2R20776   0.463   0.651   6.747  1.3626 -0.7581  2.3702
  182SOPE   H2S20777   0.506   0.482   6.715 -0.5608 -0.3083 -0.7746
  182SOPE    C320778   0.126   0.503   6.410  0.3245  0.3933 -0.0743
  182SOPE    HX20779   0.098   0.522   6.304 -0.8086 -0.7727 -0.0022
  182SOPE    HY20780   0.114   0.595   6.470  0.4586  0.1044  0.3990
  182SOPE   O3120781   0.045   0.395   6.459 -0.2140 -0.8718 -0.4746
  182SOPE   C3120782  -0.012   0.419   6.578 -0.2883  0.5627  0.1038
  182SOPE   O3220783   0.019   0.513   6.650  0.1357  0.0966 -0.6974
  182SOPE   C3220784  -0.099   0.297   6.616 -0.4249  0.1953 -0.5942
  182SOPE   H2X20785  -0.036   0.205   6.614 -3.9209 -2.4185 -0.0096
  182SOPE   H2Y20786  -0.159   0.292   6.523  0.7016 -0.9405 -1.3033
  182SOPE   C2320787   0.310   0.513   6.823 -0.1284  0.4694  0.0351
  182SOPE   H3R20788   0.265   0.414   6.804  0.9535  0.1037 -0.7332
  182SOPE   H3S20789   0.236   0.593   6.842 -0.5902 -0.7955  5.1495
  182SOPE   C2420790   0.368   0.489   6.965  0.0811 -0.1309  0.2976
  182SOPE   H4R20791   0.290   0.432   7.020  2.0559 -2.4094  0.8985
  182SOPE   H4S20792   0.461   0.429   6.962  0.5005  0.5602 -0.7881
  182SOPE   C2520793   0.409   0.617   7.036  0.6485 -0.5846  0.4214
  182SOPE   H5R20794   0.483   0.672   6.975  0.4356  1.8407  2.2119
  182SOPE   H5S20795   0.320   0.683   7.047  1.3948  0.3701  0.9436
  182SOPE   C2620796   0.476   0.593   7.176 -0.0403  0.0409  0.3762
  182SOPE   H6R20797   0.429   0.511   7.234  0.2019  0.9831  1.9295
  182SOPE   H6S20798   0.577   0.550   7.153 -0.9848 -2.4246  0.5353
  182SOPE   C2720799   0.486   0.725   7.249  0.1249 -0.0342 -0.2214
  182SOPE   H7R20800   0.523   0.799   7.174 -0.4839  1.1227  0.5744
  182SOPE   H7S20801   0.389   0.762   7.290 -0.4015  1.5154 -2.6478
  182SOPE   C2820802   0.593   0.729   7.374 -0.1882  0.1770  0.3235
  182SOPE   H8R20803   0.686   0.674   7.346  2.0674  2.9007  1.9273
  182SOPE   H8S20804   0.625   0.835   7.383 -0.2045 -0.0184  3.5297
  182SOPE   C2920805   0.538   0.671   7.506  0.2332 -0.1115 -0.0112
  182SOPE   H9120806   0.480   0.578   7.497  0.3719 -0.4773  2.1943
  182SOPE  C21020807   0.555   0.717   7.629  0.6555  0.3388  0.3432
  182SOPE  H10120808   0.505   0.671   7.715  0.2280 -0.4722 -0.3202
  182SOPE  C21120809   0.632   0.835   7.662 -0.1110 -0.0637 -0.3230
  182SOPE  H11R20810   0.558   0.906   7.705 -1.0750 -1.7424  0.8737
  182SOPE  H11S20811   0.661   0.892   7.571 -1.0441  0.7582 -0.1210
  182SOPE  C21220812   0.745   0.804   7.760  0.4199 -0.3531  0.4135
  182SOPE  H12R20813   0.795   0.900   7.787 -0.3061 -0.4372  2.2202
  182SOPE  H12S20814   0.822   0.735   7.721 -1.2546 -0.1486 -3.8118
  182SOPE  C21320815   0.702   0.748   7.900 -0.4067  0.5912 -1.1654
  182SOPE  H13R20816   0.793   0.742   7.964 -1.1692  2.7065  0.2404
  182SOPE  H13S20817   0.666   0.645   7.879 -0.7905  0.5357 -0.2886
  182SOPE  C21420818   0.584   0.816   7.972  0.3046  0.2914  0.3014
  182SOPE  H14R20819   0.489   0.786   7.924 -0.1848 -2.3150  2.6303
  182SOPE  H14S20820   0.584   0.927   7.967 -1.5760  0.3906  1.6097
  182SOPE  C21520821   0.570   0.755   8.114 -1.2611  0.7319 -0.0470
  182SOPE  H15R20822   0.561   0.645   8.101  0.7765  0.4182  0.8866
  182SOPE  H15S20823   0.474   0.797   8.150 -1.5758  0.6263 -0.7311
  182SOPE  C21620824   0.679   0.778   8.217 -0.3871  0.7430 -0.1139
  182SOPE  H16R20825   0.707   0.885   8.211  2.9448 -0.0342 -0.3843
  182SOPE  H16S20826   0.759   0.702   8.201 -3.1662 -2.1485 -1.2916
  182SOPE  C21720827   0.621   0.742   8.353  0.8166  0.5652 -0.4145
  182SOPE  H17R20828   0.683   0.670   8.411 -2.1885 -0.5049  1.7227
  182SOPE  H17S20829   0.522   0.692   8.341 -0.1392  1.6145  2.3437
  182SOPE  C21820830   0.584   0.870   8.435 -0.1305 -0.6106 -0.0169
  182SOPE  H18R20831   0.521   0.833   8.518  2.4120 -0.9715  1.8570
  182SOPE  H18S20832   0.522   0.949   8.387 -2.6746 -2.0092  0.7958
  182SOPE  H18T20833   0.678   0.903   8.485 -0.0895  0.2120 -0.6219
  182SOPE   C3320834  -0.170   0.303   6.762  0.5072 -0.1595 -0.1849
  182SOPE   H3X20835  -0.225   0.209   6.787  1.1989 -0.1980  1.2652
  182SOPE   H3Y20836  -0.226   0.397   6.776 -0.3318 -0.5037 -1.0934
  182SOPE   C3420837  -0.079   0.301   6.880  0.4109  0.7208  0.1245
  182SOPE   H4X20838   0.006   0.370   6.867  1.2396  0.4150  3.1160
  182SOPE   H4Y20839  -0.025   0.204   6.879 -2.6570 -1.2565  3.2959
  182SOPE   C3520840  -0.147   0.315   7.018 -0.4366 -0.0739  0.3116
  182SOPE   H5X20841  -0.254   0.290   7.001 -0.8474  0.1277  2.3048
  182SOPE   H5Y20842  -0.148   0.420   7.056 -0.3696 -0.1746  0.5931
  182SOPE   C3620843  -0.094   0.238   7.134  0.3546 -0.2617 -0.2709
  182SOPE   H6X20844   0.006   0.269   7.171  1.9604 -2.9319 -1.9359
  182SOPE   H6Y20845  -0.082   0.131   7.106  2.0820  0.1020 -1.0657
  182SOPE   C3720846  -0.186   0.264   7.253 -0.2116  0.4200 -0.3749
  182SOPE   H7X20847  -0.284   0.223   7.222 -0.8187  1.6289 -0.1370
  182SOPE   H7Y20848  -0.209   0.373   7.251  1.4592  0.7996 -2.0099
  182SOPE   C3820849  -0.144   0.194   7.382  0.3632 -0.1266 -0.0941
  182SOPE   H8X20850  -0.051   0.246   7.415 -0.0249 -0.6688  1.9946
  182SOPE   H8Y20851  -0.119   0.088   7.360 -2.6099 -0.6551 -1.4199
  182SOPE   C3920852  -0.247   0.197   7.492  0.0902  0.1275 -0.9604
  182SOPE   H9X20853  -0.330   0.127   7.463 -0.0008  0.4814 -1.5797
  182SOPE   H9Y20854  -0.289   0.298   7.507 -0.7737 -0.5075  1.2624
  182SOPE  C31020855  -0.188   0.146   7.623  0.5901  0.1983  0.2494
  182SOPE  H10X20856  -0.083   0.182   7.624  0.7935 -0.4014  0.7264
  182SOPE  H10Y20857  -0.180   0.036   7.617 -1.8391 -0.1770  2.1039
  182SOPE  C31120858  -0.257   0.182   7.757 -0.1899 -0.5145  0.6965
  182SOPE  H11X20859  -0.361   0.142   7.761  0.2938 -2.0014 -0.6104
  182SOPE  H11Y20860  -0.257   0.291   7.777 -1.9310 -0.5631  1.0883
  182SOPE  C31220861  -0.196   0.105   7.871 -0.5977 -0.1775 -0.1823
  182SOPE  H12X20862  -0.085   0.117   7.874 -0.6996  0.6317  0.7552
  182SOPE  H12Y20863  -0.204  -0.005   7.879 -0.3063 -0.3000 -1.3869
  182SOPE  C31320864  -0.246   0.158   8.006 -0.7629  0.5985 -1.0858
  182SOPE  H13X20865  -0.352   0.128   8.021 -0.2578  0.4244  4.2244
  182SOPE  H13Y20866  -0.236   0.269   8.007 -1.9433  0.7458  1.0008
  182SOPE  C31420867  -0.154   0.112   8.112 -0.8182  0.3289  0.0957
  182SOPE  H14X20868  -0.049   0.146   8.096 -0.5055 -1.6410 -2.8081
  182SOPE  H14Y20869  -0.154   0.001   8.108 -1.2187  0.3717 -2.4579
  182SOPE  C31520870  -0.192   0.171   8.248 -0.0508 -0.1538 -0.2769
  182SOPE  H15X20871  -0.293   0.128   8.269 -0.6155  1.5624  0.7486
  182SOPE  H15Y20872  -0.195   0.281   8.234 -0.2198 -0.2104 -0.6959
  182SOPE  C31620873  -0.103   0.124   8.359  0.4521 -0.8020  0.5988
  182SOPE  H16X20874  -0.003   0.172   8.360  0.5586 -0.9970 -0.2178
  182SOPE  H16Y20875  -0.079   0.016   8.360 -0.5930 -1.0507  1.7660
  182SOPE  C31720876  -0.176   0.151   8.492 -0.0367 -0.1868  0.0588
  182SOPE  H17X20877  -0.259   0.076   8.487  0.9885 -1.3978  0.6327
  182SOPE  H17Y20878  -0.226   0.250   8.496  0.8766  0.2414  1.3655
  182SOPE  C31820879  -0.100   0.147   8.620  0.0616 -0.3959  0.0713
  182SOPE  H18X20880  -0.010   0.212   8.628 -0.3579  0.6968 -2.8447
  182SOPE  H18Y20881  -0.065   0.045   8.647 -0.2966 -0.3344  0.7881
  182SOPE  H18Z20882  -0.160   0.170   8.710  0.7659 -4.4277  1.8198
  183SOPE     N20883   2.953   4.877   6.824  0.2231 -0.0298 -0.3563
  183SOPE   HN120884   2.856   4.886   6.861  0.0894 -1.3270 -0.3449
  183SOPE   HN220885   2.945   4.853   6.723  0.8664 -0.1996 -0.3691
  183SOPE   HN320886   3.000   4.800   6.877 -0.0701 -0.2717 -0.4467
  183SOPE   C1220887   3.028   5.013   6.818 -0.0431  0.0355  0.1291
  183SOPE  H12A20888   3.128   4.998   6.773 -0.8653 -3.0710 -0.9132
  183SOPE  H12B20889   3.042   5.049   6.922  1.8859  0.6216 -0.2859
  183SOPE   C1120890   2.957   5.114   6.733 -0.3155 -0.1071 -0.6287
  183SOPE  H11A20891   3.014   5.209   6.724  0.3831 -0.6301 -2.0804
  183SOPE  H11B20892   2.860   5.135   6.781 -0.0583  1.9863 -0.9380
  183SOPE     P20893   2.828   5.078   6.513 -0.4516  0.7196  0.2748
  183SOPE   O1320894   2.822   4.973   6.411 -1.1627  0.4453  0.0805
  183SOPE   O1420895   2.827   5.215   6.476 -0.0461 -0.2400  0.3584
  183SOPE   O1220896   2.954   5.061   6.598  0.2629 -0.1986 -0.1622
  183SOPE   O1120897   2.715   5.056   6.617 -0.0651 -0.0705  0.8556
  183SOPE    C120898   2.578   5.087   6.591 -0.1076  0.0349  0.4764
  183SOPE    HA20899   2.538   5.011   6.521  0.4241  1.2324 -1.1932
  183SOPE    HB20900   2.562   5.189   6.549 -1.4864 -0.0088  0.8657
  183SOPE    C220901   2.494   5.094   6.721  0.1145 -0.0384 -0.4991
  183SOPE    HS20902   2.386   5.114   6.707  0.2132  2.4210  1.5403
  183SOPE   O2120903   2.555   5.194   6.804  0.2275  0.0775  0.1260
  183SOPE   C2120904   2.530   5.318   6.777  0.6622 -0.3088  0.3931
  183SOPE   O2220905   2.444   5.354   6.692  0.5695 -0.7076  0.7549
  183SOPE   C2220906   2.622   5.419   6.851 -0.2299  0.4839 -0.4309
  183SOPE   H2R20907   2.596   5.526   6.839  1.3816  1.0334  0.5924
  183SOPE   H2S20908   2.723   5.401   6.810  0.1397 -1.3245  1.0756
  183SOPE    C320909   2.501   4.954   6.793 -0.3501  0.2786 -0.3077
  183SOPE    HX20910   2.593   4.900   6.764 -0.4265 -0.6029  1.0028
  183SOPE    HY20911   2.417   4.895   6.749 -1.0539  0.0725  1.2319
  183SOPE   O3120912   2.493   4.963   6.938 -0.1388  0.2666 -0.3434
  183SOPE   C3120913   2.598   4.946   7.007 -0.6500  0.9378 -0.0370
  183SOPE   O3220914   2.715   4.934   6.968  0.2911  0.1709 -0.2038
  183SOPE   C3220915   2.578   4.931   7.158  0.1309 -0.0381 -0.0609
  183SOPE   H2X20916   2.669   4.891   7.208 -0.8127 -3.1577 -0.6516
  183SOPE   H2Y20917   2.505   4.848   7.168 -0.5781  0.3763 -1.6018
  183SOPE   C2320918   2.611   5.379   7.006 -0.4018 -0.2564  0.0141
  183SOPE   H3R20919   2.702   5.404   7.064  0.3658 -2.6146 -0.0918
  183SOPE   H3S20920   2.588   5.273   7.030 -0.2188  0.0441  1.5752
  183SOPE   C2420921   2.508   5.479   7.078  0.3084  0.6907 -0.3771
  183SOPE   H4R20922   2.546   5.583   7.088  0.3284  1.0335 -3.2696
  183SOPE   H4S20923   2.416   5.479   7.016 -0.4092 -0.7372  0.6125
  183SOPE   C2520924   2.478   5.420   7.221  0.3582 -0.5649  0.6288
  183SOPE   H5R20925   2.410   5.333   7.214  0.1561 -0.3060 -1.3693
  183SOPE   H5S20926   2.566   5.386   7.279 -0.4578  1.7548  3.4763
  183SOPE   C2620927   2.391   5.511   7.313  0.1526 -0.0697 -0.4148
  183SOPE   H6R20928   2.307   5.565   7.264 -1.6708 -0.0913  2.4553
  183SOPE   H6S20929   2.359   5.440   7.392  2.4855 -1.6621 -0.8110
  183SOPE   C2720930   2.466   5.627   7.373  0.1516 -0.2789 -0.6655
  183SOPE   H7R20931   2.561   5.592   7.418 -0.2728 -1.8382 -0.9359
  183SOPE   H7S20932   2.504   5.685   7.287 -0.7612  0.7705 -0.3808
  183SOPE   C2820933   2.391   5.708   7.481 -0.5076  0.4254  0.2668
  183SOPE   H8R20934   2.476   5.767   7.522  0.2141 -0.0186 -0.5616
  183SOPE   H8S20935   2.323   5.784   7.438 -1.5835 -0.4212  0.4281
  183SOPE   C2920936   2.334   5.631   7.600 -0.5806 -0.4314 -0.7165
  183SOPE   H9120937   2.396   5.553   7.647  0.7235  2.4521  2.9253
  183SOPE  C21020938   2.213   5.654   7.657  0.7249  0.8475 -0.8626
  183SOPE  H10120939   2.186   5.594   7.744 -1.5860  0.8056 -1.5415
  183SOPE  C21120940   2.115   5.761   7.624  0.3581 -0.8325 -0.8426
  183SOPE  H11R20941   2.043   5.733   7.545 -0.8276  3.9667 -1.7459
  183SOPE  H11S20942   2.170   5.851   7.587  0.0179 -0.5461 -0.6558
  183SOPE  C21220943   2.030   5.798   7.747  0.8621  0.6777 -0.1637
  183SOPE  H12R20944   1.974   5.705   7.767  1.7769 -0.0843 -0.9864
  183SOPE  H12S20945   1.952   5.862   7.701  0.4461 -0.8567 -1.7129
  183SOPE  C21320946   2.110   5.868   7.859  0.3415  0.2590 -0.6981
  183SOPE  H13R20947   2.161   5.951   7.804  0.4586 -0.6450 -2.0049
  183SOPE  H13S20948   2.184   5.794   7.898  1.4801  1.1528 -1.1058
  183SOPE  C21420949   2.020   5.922   7.965  0.0718 -0.3380 -0.3458
  183SOPE  H14R20950   1.971   5.847   8.031 -3.2235  1.1807 -0.8379
  183SOPE  H14S20951   1.938   5.977   7.914 -0.5037  0.6895  1.5597
  183SOPE  C21520952   2.081   6.034   8.061 -0.5570 -0.3022 -0.4339
  183SOPE  H15R20953   2.120   6.111   7.991 -0.8329 -0.0275 -0.2905
  183SOPE  H15S20954   2.165   5.993   8.120 -0.0635 -0.0185 -0.9300
  183SOPE  C21620955   1.990   6.102   8.165 -0.3236  0.1582  0.0788
  183SOPE  H16R20956   1.931   6.031   8.226 -0.5701  0.6805  0.4554
  183SOPE  H16S20957   1.918   6.170   8.115 -1.1352  1.4470  2.8046
  183SOPE  C21720958   2.061   6.196   8.257  0.5044 -0.2979 -0.2251
  183SOPE  H17R20959   2.095   6.289   8.206  0.8228  0.5535  1.4649
  183SOPE  H17S20960   2.159   6.153   8.288 -0.0563 -1.2182  0.3225
  183SOPE  C21820961   1.982   6.230   8.379  0.6721  0.1047 -0.6004
  183SOPE  H18R20962   1.886   6.283   8.360 -0.4137 -1.4792  0.3052
  183SOPE  H18S20963   2.042   6.301   8.440  0.0031 -0.4320  0.7142
  183SOPE  H18T20964   1.962   6.139   8.439  0.2047 -0.5041 -1.6456
  183SOPE   C3320965   2.518   5.055   7.229  0.0619  0.1996 -0.3291
  183SOPE   H3X20966   2.423   5.098   7.191 -1.1109 -0.6499  1.4897
  183SOPE   H3Y20967   2.603   5.126   7.228  1.2351 -1.1221  0.6354
  183SOPE   C3420968   2.495   5.029   7.381 -0.5035  0.2371 -0.5917
  183SOPE   H4X20969   2.590   5.001   7.431 -1.9045 -1.1577  1.4639
  183SOPE   H4Y20970   2.431   4.939   7.393 -0.1066  0.2555  2.5244
  183SOPE   C3520971   2.434   5.146   7.456  0.3936  0.2312  0.8908
  183SOPE   H5X20972   2.342   5.196   7.418  0.8711 -0.6211 -1.5134
  183SOPE   H5Y20973   2.506   5.230   7.455  0.4291  0.2134  1.4548
  183SOPE   C3620974   2.408   5.101   7.598 -0.0682 -0.9832 -0.6646
  183SOPE   H6X20975   2.510   5.087   7.640 -0.7215 -0.0154  1.3448
  183SOPE   H6Y20976   2.352   5.006   7.608 -0.3156 -0.8346 -0.6244
  183SOPE   C3720977   2.344   5.214   7.674  0.3685  0.6781 -0.0816
  183SOPE   H7X20978   2.235   5.218   7.650  0.1200  1.7760  1.1256
  183SOPE   H7Y20979   2.383   5.309   7.632  2.2188 -0.5088 -1.1813
  183SOPE   C3820980   2.365   5.183   7.829 -0.0152  0.2788 -0.1188
  183SOPE   H8X20981   2.474   5.171   7.844 -0.4522 -0.9828  2.7396
  183SOPE   H8Y20982   2.304   5.092   7.849  2.4891 -1.4029  0.3678
  183SOPE   C3920983   2.317   5.297   7.921  0.1875 -0.0878  0.6610
  183SOPE   H9X20984   2.250   5.267   8.005 -3.4798  0.7199 -1.7375
  183SOPE   H9Y20985   2.252   5.366   7.862 -0.6734 -1.4704 -0.0496
  183SOPE  C31020986   2.428   5.395   7.961 -0.3563 -0.1424 -0.2676
  183SOPE  H10X20987   2.462   5.450   7.871 -0.7936  0.3426 -0.1468
  183SOPE  H10Y20988   2.505   5.326   8.001 -2.2612 -2.4322 -0.3050
  183SOPE  C31120989   2.396   5.503   8.068  0.3892  0.2253  0.6173
  183SOPE  H11X20990   2.329   5.453   8.142  0.6375  1.6887  1.8867
  183SOPE  H11Y20991   2.340   5.588   8.025  1.9645  1.9505  1.8276
  183SOPE  C31220992   2.523   5.546   8.132  0.0872  0.4864  0.1759
  183SOPE  H12X20993   2.604   5.575   8.062  1.1192 -0.1104  1.0826
  183SOPE  H12Y20994   2.575   5.459   8.178 -1.1010 -0.0979  0.4545
  183SOPE  C31320995   2.492   5.649   8.242  0.2227  0.9734  0.2359
  183SOPE  H13X20996   2.590   5.689   8.276  1.5548 -1.5664 -0.2791
  183SOPE  H13Y20997   2.457   5.606   8.339 -1.2762  1.3626 -0.1106
  183SOPE  C31420998   2.402   5.765   8.208 -0.1871  0.2541  0.6853
  183SOPE  H14X20999   2.298   5.729   8.190  0.3222  0.0460 -2.3113
  183SOPE  H14Y21000   2.447   5.817   8.121 -2.6514  2.2877  0.4873
  183SOPE  C31521001   2.387   5.875   8.314  0.0427  0.2531 -0.2678
  183SOPE  H15X21002   2.353   5.825   8.407 -0.1378  1.7843  0.5215
  183SOPE  H15Y21003   2.300   5.943   8.309 -0.2327  0.0933  1.7661
  183SOPE  C31621004   2.516   5.956   8.341 -0.4439 -0.1856 -0.5464
  183SOPE  H16X21005   2.553   6.009   8.251  0.1750  0.8707  0.3024
  183SOPE  H16Y21006   2.595   5.884   8.371  0.8719  0.7030 -1.7692
  183SOPE  C31721007   2.497   6.063   8.448 -0.0019 -0.8280 -0.3399
  183SOPE  H17X21008   2.497   6.022   8.552 -0.0600 -2.2265 -0.8770
  183SOPE  H17Y21009   2.394   6.102   8.434 -0.1440 -1.4826 -1.2454
  183SOPE  C31821010   2.579   6.185   8.424  0.7406 -0.1475  0.0856
  183SOPE  H18X21011   2.549   6.256   8.504  0.0053 -1.5602  1.1062
  183SOPE  H18Y21012   2.566   6.234   8.325  1.9798 -1.2862 -0.6745
  183SOPE  H18Z21013   2.687   6.164   8.432  1.0956  0.8745 -1.5346
  184SOPE     N21014   2.733   4.704   6.336  0.5568  0.5440 -0.3345
  184SOPE   HN121015   2.778   4.757   6.413 -2.8965  1.8701  0.9662
  184SOPE   HN221016   2.643   4.754   6.321  1.9411  3.8764  1.4332
  184SOPE   HN321017   2.733   4.604   6.363 -1.0080  0.5189 -0.3443
  184SOPE   C1221018   2.815   4.701   6.212 -0.0426 -0.1156  0.5315
  184SOPE  H12A21019   2.920   4.669   6.231 -0.8137 -2.1971  1.6557
  184SOPE  H12B21020   2.820   4.801   6.163  1.9923 -0.4364 -0.0040
  184SOPE   C1121021   2.755   4.596   6.118  0.0823 -0.2166  0.4089
  184SOPE  H11A21022   2.813   4.588   6.023 -0.1320 -0.1226  0.2697
  184SOPE  H11B21023   2.656   4.639   6.093 -0.6267 -0.1379  3.1041
  184SOPE     P21024   2.824   4.342   6.144  0.2085 -0.1343 -0.3546
  184SOPE   O1321025   2.965   4.343   6.201  0.4665 -0.2060  0.4735
  184SOPE   O1421026   2.814   4.329   5.996  0.2100  0.1081 -0.3567
  184SOPE   O1221027   2.744   4.472   6.185  0.4249 -0.1807  0.3585
  184SOPE   O1121028   2.725   4.246   6.214 -0.3895  0.1312 -0.3368
  184SOPE    C121029   2.585   4.248   6.195  0.6748  0.4057  0.2052
  184SOPE    HA21030   2.535   4.150   6.211 -1.1832  1.1621 -0.6186
  184SOPE    HB21031   2.550   4.284   6.096 -0.5022  0.5474  0.6461
  184SOPE    C221032   2.507   4.334   6.300 -0.0818  0.0617  0.4374
  184SOPE    HS21033   2.531   4.440   6.277  2.1356 -0.9637 -2.6683
  184SOPE   O2121034   2.543   4.286   6.430  0.3544 -0.4314  0.2000
  184SOPE   C2121035   2.599   4.371   6.514 -0.1249  0.3924  0.8763
  184SOPE   O2221036   2.627   4.487   6.490 -0.0292  0.1305  0.1772
  184SOPE   C2221037   2.620   4.305   6.649  0.1875  0.5621  0.2377
  184SOPE   H2R21038   2.702   4.230   6.646 -1.5846 -1.4424  0.0192
  184SOPE   H2S21039   2.524   4.261   6.681  0.0657  1.1191  0.6586
  184SOPE    C321040   2.351   4.316   6.291  0.5936 -0.3494  0.1539
  184SOPE    HX21041   2.315   4.216   6.323 -1.6481  0.3232 -0.0828
  184SOPE    HY21042   2.325   4.331   6.185  0.6954 -0.8843  0.0517
  184SOPE   O3121043   2.286   4.424   6.364  0.1250  0.0647  0.5623
  184SOPE   C3121044   2.229   4.399   6.476  0.3581  0.0471 -0.5525
  184SOPE   O3221045   2.213   4.289   6.534  0.8378 -0.3460  0.1441
  184SOPE   C3221046   2.168   4.530   6.515 -0.3166 -0.4027 -0.7161
  184SOPE   H2X21047   2.063   4.540   6.481 -0.3693 -1.1269 -0.7834
  184SOPE   H2Y21048   2.229   4.612   6.471 -0.1633 -0.6432 -0.9585
  184SOPE   C2321049   2.666   4.403   6.755  0.0783 -0.1485  0.1654
  184SOPE   H3R21050   2.604   4.495   6.760  0.9353  0.4365  0.1463
  184SOPE   H3S21051   2.764   4.447   6.728  0.1408 -0.3109  0.1222
  184SOPE   C2421052   2.678   4.336   6.893 -0.4229  0.6660  0.1275
  184SOPE   H4R21053   2.574   4.307   6.921 -0.0992  0.8580  1.5905
  184SOPE   H4S21054   2.738   4.244   6.875 -1.3558 -0.0338  0.4881
  184SOPE   C2521055   2.741   4.426   7.001 -0.4449  0.7580 -0.1491
  184SOPE   H5R21056   2.847   4.454   6.983 -0.4641  1.5612  0.8482
  184SOPE   H5S21057   2.683   4.521   6.996  0.2271  1.2580  1.0688
  184SOPE   C2621058   2.739   4.390   7.151  0.1092 -0.4022 -0.2040
  184SOPE   H6R21059   2.633   4.399   7.183  0.8010  0.2606  2.1053
  184SOPE   H6S21060   2.763   4.282   7.161  0.9466 -0.1830  0.2424
  184SOPE   C2721061   2.833   4.488   7.228  0.0196  0.0710 -0.7176
  184SOPE   H7R21062   2.938   4.472   7.194  0.4491  0.7827  0.2209
  184SOPE   H7S21063   2.794   4.589   7.207  3.5752  1.9590  0.8149
  184SOPE   C2821064   2.827   4.475   7.386  0.0600 -0.0528  0.2121
  184SOPE   H8R21065   2.733   4.519   7.425  0.4839  0.3256  0.8198
  184SOPE   H8S21066   2.824   4.367   7.410 -1.4728 -0.2838 -0.8714
  184SOPE   C2921067   2.939   4.544   7.464  0.1636 -0.2523  0.2573
  184SOPE   H9121068   3.026   4.479   7.478  0.1082 -0.9366 -2.1508
  184SOPE  C21021069   2.940   4.647   7.544  0.7167 -0.3699  0.7727
  184SOPE  H10121070   3.032   4.671   7.599  0.5193  0.5972  0.6886
  184SOPE  C21121071   2.826   4.744   7.575 -0.2645 -0.7435  0.2039
  184SOPE  H11R21072   2.738   4.764   7.511  1.4166  2.5886 -1.3585
  184SOPE  H11S21073   2.879   4.840   7.598  0.6152 -1.7450  2.7644
  184SOPE  C21221074   2.789   4.720   7.724  0.2890 -0.4090 -0.1326
  184SOPE  H12R21075   2.877   4.699   7.790 -0.7395  0.1110  1.4554
  184SOPE  H12S21076   2.733   4.624   7.729  2.3115 -1.6607  0.0750
  184SOPE  C21321077   2.727   4.838   7.793  0.2823 -0.3722  0.1363
  184SOPE  H13R21078   2.638   4.875   7.737  1.8244  0.2816 -2.0189
  184SOPE  H13S21079   2.789   4.931   7.795 -1.6495  0.9744  0.1317
  184SOPE  C21421080   2.682   4.808   7.937 -0.4191 -0.7124  0.0615
  184SOPE  H14R21081   2.772   4.763   7.985  0.2037  0.8455  0.4147
  184SOPE  H14S21082   2.612   4.722   7.932 -1.7112  0.2183  1.2924
  184SOPE  C21521083   2.629   4.925   8.023  0.6380 -0.3135  0.7540
  184SOPE  H15R21084   2.537   4.957   7.970  1.0231 -1.5357 -0.7086
  184SOPE  H15S21085   2.701   5.010   8.016 -0.7796  0.7784 -4.0575
  184SOPE  C21621086   2.616   4.894   8.170  0.2841 -0.3043  0.5723
  184SOPE  H16R21087   2.720   4.873   8.203  0.5464  0.5905  0.3483
  184SOPE  H16S21088   2.557   4.801   8.189 -0.6152  0.3284  0.9300
  184SOPE  C21721089   2.544   5.004   8.257 -0.2205 -0.2320 -0.9054
  184SOPE  H17R21090   2.553   4.958   8.358  3.5371  3.0640  0.4911
  184SOPE  H17S21091   2.435   4.993   8.236 -0.2883 -0.1380 -0.6103
  184SOPE  C21821092   2.593   5.144   8.260 -0.3795  0.3682 -0.3077
  184SOPE  H18R21093   2.582   5.189   8.158 -0.2000  2.0020  0.3596
  184SOPE  H18S21094   2.698   5.158   8.293  0.1170 -1.5904 -0.9491
  184SOPE  H18T21095   2.528   5.209   8.322  0.8780  1.1152  0.2897
  184SOPE   C3321096   2.177   4.550   6.675  0.7494 -0.1856  0.0787
  184SOPE   H3X21097   2.165   4.446   6.711 -2.2832 -1.1192 -3.0563
  184SOPE   H3Y21098   2.090   4.613   6.706  1.0600 -0.5469  1.7847
  184SOPE   C3421099   2.301   4.625   6.732  0.4901 -0.3497  0.0544
  184SOPE   H4X21100   2.305   4.712   6.663  0.2448 -2.1061 -2.2537
  184SOPE   H4Y21101   2.390   4.561   6.717 -0.5162 -1.2999 -2.3476
  184SOPE   C3521102   2.270   4.680   6.872 -0.2462 -0.1250  0.1039
  184SOPE   H5X21103   2.169   4.725   6.874  0.7683  2.3315  2.0248
  184SOPE   H5Y21104   2.344   4.760   6.898  1.0215 -1.1309 -0.3012
  184SOPE   C3621105   2.292   4.570   6.976  0.6732  0.1785  0.5622
  184SOPE   H6X21106   2.395   4.528   6.982  1.3813  1.9566  2.0265
  184SOPE   H6Y21107   2.229   4.482   6.953  4.7852 -2.6211 -1.2800
  184SOPE   C3721108   2.259   4.622   7.122 -0.3913 -0.4388 -0.6565
  184SOPE   H7X21109   2.154   4.658   7.129  0.0361  0.5936  1.3882
  184SOPE   H7Y21110   2.316   4.716   7.137  0.9633 -1.5637  2.0803
  184SOPE   C3821111   2.286   4.517   7.229 -0.4344 -0.3613 -0.3759
  184SOPE   H8X21112   2.385   4.472   7.206 -0.8103 -2.6534  2.0042
  184SOPE   H8Y21113   2.218   4.430   7.224  0.5596 -1.3818  2.2065
  184SOPE   C3921114   2.299   4.590   7.361 -0.2056 -0.4439  0.0408
  184SOPE   H9X21115   2.198   4.625   7.392  0.4729  0.9338  0.7296
  184SOPE   H9Y21116   2.362   4.681   7.353  1.8348 -1.7787  0.1774
  184SOPE  C31021117   2.374   4.514   7.462  0.6315  0.8909  0.4612
  184SOPE  H10X21118   2.463   4.464   7.418 -1.1591 -0.1060 -2.3380
  184SOPE  H10Y21119   2.309   4.428   7.489  0.0958  0.5796 -1.5782
  184SOPE  C31121120   2.400   4.592   7.586 -0.8382 -0.6125 -0.6104
  184SOPE  H11X21121   2.471   4.675   7.563 -0.6940 -0.2988  0.8763
  184SOPE  H11Y21122   2.448   4.524   7.659 -1.2947 -0.0298  0.2517
  184SOPE  C31221123   2.277   4.649   7.665 -0.6123  0.5118  0.7772
  184SOPE  H12X21124   2.204   4.567   7.685 -0.6090  0.6715  1.4727
  184SOPE  H12Y21125   2.227   4.731   7.610  0.8389  0.4973 -0.6030
  184SOPE  C31321126   2.317   4.705   7.803  0.2784  0.0423  0.0882
  184SOPE  H13X21127   2.372   4.799   7.778 -0.7075  0.0222 -2.4470
  184SOPE  H13Y21128   2.383   4.636   7.860 -0.5227 -1.7642 -1.0932
  184SOPE  C31421129   2.190   4.729   7.889  0.3535 -0.0683 -0.0256
  184SOPE  H14X21130   2.139   4.632   7.908  1.4064 -1.3495 -3.0559
  184SOPE  H14Y21131   2.124   4.791   7.824 -3.2571 -3.5190 -0.0508
  184SOPE  C31521132   2.225   4.818   8.007  0.7237 -0.5731  0.5503
  184SOPE  H15X21133   2.297   4.885   7.956  2.5287 -4.0697 -1.9201
  184SOPE  H15Y21134   2.279   4.762   8.086  1.8605  0.8904  0.8639
  184SOPE  C31621135   2.100   4.884   8.065 -0.2613  0.4927 -0.1717
  184SOPE  H16X21136   2.030   4.797   8.074  0.4092  0.1673  3.4338
  184SOPE  H16Y21137   2.056   4.956   7.993 -0.4191  0.7342  0.1613
  184SOPE  C31721138   2.127   4.948   8.201  0.1270  0.4008  0.1085
  184SOPE  H17X21139   2.050   5.028   8.213 -3.0190 -2.3161 -0.5050
  184SOPE  H17Y21140   2.223   5.003   8.190  1.1664 -1.3410  0.1337
  184SOPE  C31821141   2.120   4.849   8.317 -0.0481  0.2249  0.2477
  184SOPE  H18X21142   2.202   4.776   8.304 -1.2222 -0.8171 -1.8344
  184SOPE  H18Y21143   2.028   4.787   8.317  0.5884 -0.7797 -1.5793
  184SOPE  H18Z21144   2.135   4.896   8.417 -0.0581  0.1667  0.2763
  185SAPI   C1221145   5.638   3.331  11.082 -0.1581 -0.0743  0.4064
  185SAPI    H221146   5.587   3.413  11.136 -0.1462  1.2714 -1.4970
  185SAPI    O221147   5.773   3.377  11.080  0.2799  0.0471 -0.1526
  185SAPI   HO221148   5.783   3.460  11.128 -2.9688  0.1337  0.6795
  185SAPI   C1321149   5.616   3.206  11.166 -0.2091  0.2643 -0.4877
  185SAPI    H321150   5.510   3.173  11.157  0.0481 -1.1957  1.2822
  185SAPI    O321151   5.633   3.227  11.305  0.1364  0.0853 -0.0925
  185SAPI   HO321152   5.718   3.270  11.310  0.8927 -1.4654  2.1499
  185SAPI   C1421153   5.705   3.096  11.107  0.1325 -0.3404  0.1390
  185SAPI    H421154   5.813   3.122  11.120  0.1597  0.6246 -1.7147
  185SAPI    O421155   5.688   2.969  11.178  0.4912 -0.9009 -0.1314
  185SAPI   HO421156   5.757   2.905  11.157 -0.7177 -2.0513 -0.7734
  185SAPI   C1521157   5.673   3.079  10.961  0.3771  0.6752 -0.0955
  185SAPI    H521158   5.571   3.036  10.952  1.0145 -0.9610  0.1412
  185SAPI    O521159   5.757   2.976  10.900 -0.0706  0.1007 -0.2795
  185SAPI   HO521160   5.723   2.968  10.810 -1.9213  1.9905  0.1705
  185SAPI   C1621161   5.673   3.203  10.875 -0.2440 -0.2364 -0.4338
  185SAPI    H621162   5.777   3.242  10.871 -1.0523  2.3296  1.2625
  185SAPI    O621163   5.621   3.177  10.752  0.4417  0.3156  0.8724
  185SAPI   HO621164   5.645   3.091  10.717 -1.7573 -0.0697  0.1438
  185SAPI   C1121165   5.585   3.310  10.944  0.6839  0.0177 -0.7177
  185SAPI    H121166   5.479   3.279  10.954  0.5551  0.6515 -0.0316
  185SAPI     P21167   5.489   3.552  10.880 -0.6899  0.2154  0.0655
  185SAPI   O1321168   5.546   3.670  10.804  0.8847 -0.1294 -0.0044
  185SAPI   O1421169   5.449   3.569  11.024 -0.6026 -0.1547  0.2577
  185SAPI   O1221170   5.592   3.427  10.870  0.4977  0.0666 -0.3111
  185SAPI   O1121171   5.369   3.503  10.795  0.1064  0.4458  0.5858
  185SAPI    C121172   5.248   3.583  10.803  0.4014  0.3900 -0.4644
  185SAPI    HA21173   5.175   3.523  10.860 -0.1267  1.1768 -0.2889
  185SAPI    HB21174   5.269   3.684  10.845  1.6937 -0.5680  1.3124
  185SAPI    C221175   5.184   3.605  10.658 -0.7942 -0.0110 -0.0359
  185SAPI    HS21176   5.159   3.501  10.629  1.1307 -0.3241 -0.7158
  185SAPI   O2121177   5.284   3.661  10.567 -0.0645  0.0781 -0.1958
  185SAPI   C2121178   5.299   3.599  10.450  0.7504 -0.1135 -0.6184
  185SAPI   O2221179   5.231   3.502  10.412  0.3424  0.2271 -0.3081
  185SAPI   C2221180   5.392   3.676  10.367  0.0993  0.3608  0.2866
  185SAPI   H2R21181   5.484   3.687  10.428 -0.4725  0.0942  1.2155
  185SAPI   H2S21182   5.415   3.609  10.281 -0.7897 -0.1730  0.4516
  185SAPI    C321183   5.050   3.690  10.665 -0.3076  0.2945 -0.2107
  185SAPI    HX21184   5.096   3.783  10.703  2.0600 -1.4548  1.4977
  185SAPI    HY21185   4.981   3.647  10.741 -1.5297  1.5241 -0.5781
  185SAPI   O3121186   4.994   3.724  10.536  0.0394  0.2570  0.0374
  185SAPI   C3121187   4.880   3.654  10.508  0.3596 -0.5710 -0.3193
  185SAPI   O3221188   4.805   3.610  10.589  0.4631 -0.1101 -0.1035
  185SAPI   C3221189   4.866   3.666  10.352  0.6697  0.2136  0.0716
  185SAPI   H2X21190   4.948   3.615  10.298  1.5278 -0.8780  2.2754
  185SAPI   H2Y21191   4.874   3.774  10.327  0.6393  0.0892 -0.4948
  185SAPI   C2321192   5.332   3.806  10.320 -0.2872 -0.1535  0.0844
  185SAPI   H3R21193   5.418   3.876  10.315 -0.7522  0.6529  2.1959
  185SAPI   H3S21194   5.270   3.847  10.403 -0.6094  1.7753 -1.0581
  185SAPI   C2421195   5.262   3.788  10.181 -0.5079 -0.1707  0.3410
  185SAPI   H4R21196   5.183   3.710  10.192 -0.6234 -0.4279 -1.9638
  185SAPI   H4S21197   5.345   3.747  10.120 -2.1606 -1.4825 -1.1292
  185SAPI   C2521198   5.218   3.930  10.139  0.1299  0.3318 -0.2778
  185SAPI   H5R21199   5.263   4.018  10.188  1.3033  0.3715 -1.4024
  185SAPI   C2621200   5.114   3.968  10.062  0.1893 -0.0319 -0.1439
  185SAPI   H6R21201   5.097   4.075  10.040 -1.9555 -0.7538 -2.5041
  185SAPI   C2721202   5.030   3.872   9.985 -1.1335 -0.4760  0.2989
  185SAPI   H7R21203   5.023   3.774  10.037 -2.2580 -0.8769 -0.5412
  185SAPI   H7S21204   5.090   3.846   9.896  2.3960  1.9146  1.7529
  185SAPI   C2821205   4.889   3.909   9.946 -1.2549  0.4304 -0.2473
  185SAPI   H8R21206   4.837   3.949  10.035  0.3787  0.2164  0.8394
  185SAPI   C2921207   4.830   3.894   9.825  0.0235 -0.7094  0.3098
  185SAPI   H9R21208   4.723   3.917   9.820  0.4107  1.0252 -2.4701
  185SAPI  C21021209   4.899   3.841   9.704  0.2853  0.0991  0.4304
  185SAPI  H10R21210   4.993   3.787   9.729 -0.0674 -0.2275  1.0741
  185SAPI  H10S21211   4.929   3.924   9.636 -0.1980 -0.1959 -0.1514
  185SAPI  C21121212   4.807   3.742   9.631  0.2807 -0.3179  0.1274
  185SAPI  H11R21213   4.729   3.785   9.566  1.4350  0.6490 -0.6445
  185SAPI  C21221214   4.803   3.608   9.660 -0.1034 -0.0031  0.3253
  185SAPI  H12R21215   4.738   3.542   9.600  0.1608 -0.8934  0.9986
  185SAPI  C21321216   4.888   3.536   9.760 -0.6496 -0.2058 -0.5296
  185SAPI  H13R21217   4.897   3.610   9.842 -0.5837 -0.0725 -0.6560
  185SAPI  H13S21218   4.988   3.533   9.712  0.2957  2.3559  1.0934
  185SAPI  C21421219   4.837   3.406   9.821 -0.2828  0.2596 -0.6799
  185SAPI  H14R21220   4.788   3.405   9.919  1.4911 -0.1862  0.2493
  185SAPI  C21521221   4.867   3.282   9.780 -0.3340  0.7739  0.6460
  185SAPI  H15R21222   4.847   3.192   9.840 -1.1962  0.0474 -0.6908
  185SAPI  C21621223   4.944   3.253   9.652  0.2997  0.3520  0.7426
  185SAPI  H16R21224   4.939   3.335   9.577  1.4236 -1.6389 -1.6704
  185SAPI  H16S21225   4.907   3.158   9.607  2.4114  0.0169 -0.4310
  185SAPI  C21721226   5.097   3.234   9.681  0.4975  0.3548  0.3285
  185SAPI  H17R21227   5.126   3.153   9.752 -0.0428 -0.6862 -0.6169
  185SAPI  H17S21228   5.132   3.324   9.736 -2.8385  1.2237  1.2306
  185SAPI  C21821229   5.172   3.215   9.551  0.4508 -0.0937 -0.7572
  185SAPI  H18R21230   5.150   3.294   9.475  2.6565 -0.9425 -2.3916
  185SAPI  H18S21231   5.142   3.112   9.522  1.1203 -1.0300  1.7032
  185SAPI  C21921232   5.324   3.216   9.578  0.7882  0.5289 -0.5537
  185SAPI  H19R21233   5.328   3.147   9.666 -1.6120 -2.8967 -2.8698
  185SAPI  H19S21234   5.371   3.312   9.608 -1.8859  1.9901 -0.7918
  185SAPI  C22021235   5.408   3.166   9.455 -0.3754 -0.0441 -0.3595
  185SAPI  H20R21236   5.504   3.135   9.501 -1.2347 -0.4456  1.2451
  185SAPI  H20S21237   5.425   3.255   9.391 -0.0047 -0.3096 -0.6303
  185SAPI  H20T21238   5.357   3.085   9.399 -1.4785 -0.0464  0.6166
  185SAPI   C3321239   4.745   3.578  10.299 -0.4371 -0.4966 -0.0663
  185SAPI   H3X21240   4.650   3.594  10.353 -0.9427 -0.6051 -0.8961
  185SAPI   H3Y21241   4.769   3.470  10.311 -1.6041 -0.6667  0.8739
  185SAPI   C3421242   4.725   3.598  10.146  0.2882 -0.4173  0.0635
  185SAPI   H4X21243   4.811   3.561  10.086  2.5597  2.1437  1.5139
  185SAPI   H4Y21244   4.723   3.709  10.143 -1.1173 -0.3579  1.8221
  185SAPI   C3521245   4.601   3.547  10.080  0.3287 -0.4292 -0.3389
  185SAPI   H5X21246   4.619   3.560   9.971  4.8648  0.2538  0.2646
  185SAPI   H5Y21247   4.526   3.615  10.126  1.2620  0.3255  0.1237
  185SAPI   C3621248   4.575   3.401  10.114 -0.3054  0.0848 -0.2648
  185SAPI   H6X21249   4.567   3.391  10.224  0.5127  1.5790 -0.0347
  185SAPI   H6Y21250   4.665   3.343  10.083  1.2084  0.9831  2.1465
  185SAPI   C3721251   4.456   3.342  10.039  0.4634 -0.5754 -0.5793
  185SAPI   H7X21252   4.357   3.381  10.071  0.8567  0.5478 -0.6694
  185SAPI   H7Y21253   4.459   3.234  10.064 -1.3766 -0.5002  0.0940
  185SAPI   C3821254   4.460   3.348   9.889  0.9610  0.7668 -0.1200
  185SAPI   H8X21255   4.567   3.343   9.860  0.3152 -0.4338 -2.5556
  185SAPI   H8Y21256   4.428   3.450   9.857  2.8881  1.4906  0.1662
  185SAPI   C3921257   4.352   3.260   9.806 -0.4383 -0.0369 -0.1913
  185SAPI   H9X21258   4.341   3.163   9.858 -0.1195  1.5153  3.0328
  185SAPI   H9Y21259   4.402   3.241   9.709 -0.5210 -0.3284 -0.1763
  185SAPI  C31021260   4.211   3.313   9.790  0.2791 -0.4079 -0.1967
  185SAPI  H10X21261   4.220   3.414   9.743 -0.5522 -0.7126 -1.0433
  185SAPI  H10Y21262   4.168   3.331   9.891 -1.7339 -2.1979 -0.6743
  185SAPI  C31121263   4.124   3.216   9.709 -0.4696  0.5369 -0.5660
  185SAPI  H11X21264   4.018   3.244   9.726 -0.9673 -0.9721 -0.9992
  185SAPI  H11Y21265   4.130   3.108   9.733  1.0448  0.5584 -0.7451
  185SAPI  C31221266   4.146   3.230   9.555  0.9403 -0.0363 -0.2021
  185SAPI  H12X21267   4.249   3.205   9.521  0.6752 -0.9185 -0.3709
  185SAPI  H12Y21268   4.141   3.332   9.512 -2.6410  0.3054  0.6960
  185SAPI  C31321269   4.045   3.149   9.480  0.5396 -0.0833  0.4210
  185SAPI  H13X21270   3.942   3.184   9.498  0.4515  1.8362 -2.9827
  185SAPI  H13Y21271   4.047   3.045   9.518  2.1208  0.3349  1.5972
  185SAPI  C31421272   4.084   3.144   9.327  0.4408  0.6707 -0.2621
  185SAPI  H14X21273   4.181   3.091   9.314  0.5223  0.9567 -0.8772
  185SAPI  H14Y21274   4.095   3.243   9.277  3.7598 -0.4812 -2.1103
  185SAPI  C31521275   3.977   3.071   9.254 -0.0846 -0.1479 -0.4207
  185SAPI  H15X21276   3.877   3.118   9.261 -0.2596 -0.4657 -0.7600
  185SAPI  H15Y21277   3.978   2.977   9.313  0.3192  1.0550  1.5620
  185SAPI  C31621278   4.021   3.038   9.106  0.3339 -0.4604 -0.1413
  185SAPI  H16X21279   3.968   2.943   9.082 -1.3700  0.7541 -1.4441
  185SAPI  H16Y21280   4.131   3.021   9.103  0.1968 -1.3831 -0.3863
  185SAPI  C31721281   3.985   3.134   8.991  0.2159 -0.0213  0.2274
  185SAPI  H17X21282   4.063   3.142   8.912 -0.7607  1.9537 -0.5922
  185SAPI  H17Y21283   3.986   3.236   9.034  0.0128  1.1552 -2.3526
  185SAPI  C31821284   3.859   3.093   8.929  0.3643 -0.3829 -0.1105
  185SAPI  H18X21285   3.869   2.983   8.923 -1.3064 -0.7582  2.3910
  185SAPI  H18Y21286   3.834   3.137   8.830 -1.8710  1.3721  1.1374
  185SAPI  H18Z21287   3.763   3.112   8.982  0.0232  0.2638 -0.9295
  186SAPI   C1221288   0.449   6.208  10.820 -0.6931  0.4594  0.1157
  186SAPI    H221289   0.353   6.194  10.766  0.0783 -1.5175 -0.8510
  186SAPI    O221290   0.418   6.289  10.938 -0.6377 -0.3050 -0.2339
  186SAPI   HO221291   0.443   6.381  10.923  2.6314 -0.8461  1.0606
  186SAPI   C1321292   0.477   6.063  10.863  0.2549  0.3196 -0.0959
  186SAPI    H321293   0.506   6.014  10.767  3.2906  2.9492 -0.6627
  186SAPI    O321294   0.365   5.988  10.903 -0.6732 -0.4832 -0.4399
  186SAPI   HO321295   0.401   5.900  10.890  0.0547  0.0403 -2.1420
  186SAPI   C1421296   0.597   6.057  10.965  1.0057  0.2968 -0.3407
  186SAPI    H421297   0.572   6.115  11.056  0.4096  1.1570 -1.0396
  186SAPI    O421298   0.631   5.925  11.010 -0.2446 -0.6436  0.1551
  186SAPI   HO421299   0.688   5.937  11.087  0.5653 -2.5998 -0.0737
  186SAPI   C1521300   0.716   6.124  10.895 -0.3167 -0.1327 -0.4173
  186SAPI    H521301   0.771   6.059  10.824  1.6655  0.9228  0.0528
  186SAPI    O521302   0.816   6.139  10.997 -0.7351  0.1193  0.2177
  186SAPI   HO521303   0.903   6.106  10.969 -1.0027 -0.0688 -0.4259
  186SAPI   C1621304   0.683   6.263  10.832 -0.4582 -0.9666  0.3672
  186SAPI    H621305   0.650   6.333  10.911  3.2753  0.8768  0.5557
  186SAPI    O621306   0.798   6.335  10.780 -0.3245  0.2437 -0.2135
  186SAPI   HO621307   0.773   6.365  10.693  0.7655 -0.1358 -0.6691
  186SAPI   C1121308   0.566   6.253  10.737 -0.1666 -0.4685  0.2036
  186SAPI    H121309   0.592   6.185  10.653  0.1930  1.0182 -0.9172
  186SAPI     P21310   0.588   6.445  10.553 -0.2179  0.1392  0.3275
  186SAPI   O1321311   0.730   6.417  10.534  0.2818  0.2091 -0.7922
  186SAPI   O1421312   0.545   6.582  10.537  0.1689 -0.0725 -0.0285
  186SAPI   O1221313   0.529   6.385  10.689  0.0779  0.0806  0.2234
  186SAPI   O1121314   0.506   6.364  10.447  0.0972 -0.4387 -0.2288
  186SAPI    C121315   0.361   6.367  10.466 -0.0783 -0.2937  0.3740
  186SAPI    HA21316   0.326   6.304  10.551  1.9784  0.6584  2.0043
  186SAPI    HB21317   0.325   6.466  10.502 -1.5166 -1.0903  1.2332
  186SAPI    C221318   0.298   6.334  10.332 -0.4220 -0.0609 -0.5206
  186SAPI    HS21319   0.187   6.349  10.329 -0.3723  0.3089 -2.9692
  186SAPI   O2121320   0.335   6.195  10.302 -0.2666 -0.1526 -0.6946
  186SAPI   C2121321   0.257   6.140  10.217  0.0347 -0.0778  0.6880
  186SAPI   O2221322   0.149   6.181  10.182  0.5411 -0.0116  0.0241
  186SAPI   C2221323   0.334   6.018  10.162  0.1388  0.0376  0.5907
  186SAPI   H2R21324   0.429   6.062  10.123 -1.1661  0.6207 -2.1979
  186SAPI   H2S21325   0.345   5.946  10.245 -2.1627  0.2012  1.1045
  186SAPI    C321326   0.348   6.429  10.224  0.3257 -0.1303  0.0549
  186SAPI    HX21327   0.458   6.436  10.234  0.5791 -1.8327 -0.9806
  186SAPI    HY21328   0.308   6.526  10.260  1.4400  0.0146  0.9582
  186SAPI   O3121329   0.315   6.385  10.089 -0.6632  0.4384  0.0325
  186SAPI   C3121330   0.238   6.465  10.015 -0.1011  0.4743  0.5496
  186SAPI   O3221331   0.208   6.578  10.043  0.3857  0.8402  0.3180
  186SAPI   C3221332   0.196   6.394   9.885  0.0624  0.1241  0.3565
  186SAPI   H2X21333   0.085   6.391   9.885  0.0544  0.2375  0.8718
  186SAPI   H2Y21334   0.235   6.292   9.869  0.1307  0.1589  0.2989
  186SAPI   C2321335   0.273   5.955  10.033 -0.0151 -0.0284  0.6004
  186SAPI   H3R21336   0.171   5.994  10.014 -0.3006 -0.4762  1.1663
  186SAPI   H3S21337   0.262   5.847  10.057 -1.6599  0.0454  0.3197
  186SAPI   C2421338   0.358   5.966   9.904  0.1845 -0.6186 -0.5507
  186SAPI   H4R21339   0.466   5.948   9.924  0.3337  0.9916  0.2808
  186SAPI   H4S21340   0.341   6.073   9.880 -1.2492 -0.8656 -0.6812
  186SAPI   C2521341   0.301   5.888   9.787 -0.7568 -0.0227  0.0262
  186SAPI   H5R21342   0.247   5.797   9.817 -0.7237 -0.1541 -0.3130
  186SAPI   C2621343   0.284   5.920   9.661 -0.7510  0.1573  0.3412
  186SAPI   H6R21344   0.259   5.841   9.589  0.2936 -0.7671  0.9696
  186SAPI   C2721345   0.326   6.043   9.592 -0.0280 -0.7485 -1.1601
  186SAPI   H7R21346   0.409   6.095   9.645 -1.7704  0.8051  0.1619
  186SAPI   H7S21347   0.246   6.118   9.605  0.7855  0.2255 -1.6456
  186SAPI   C2821348   0.358   6.028   9.444  0.1234  0.1442  0.2917
  186SAPI   H8R21349   0.465   6.030   9.419  0.4165  0.4810  1.5234
  186SAPI   C2921350   0.279   6.019   9.334  0.2378 -0.3654 -0.1526
  186SAPI   H9R21351   0.325   6.009   9.234  2.5999  0.8415  0.7200
  186SAPI  C21021352   0.127   6.021   9.340 -0.4713 -0.9546 -0.3227
  186SAPI  H10R21353   0.089   6.124   9.320 -0.7833 -1.2644 -1.3979
  186SAPI  H10S21354   0.091   6.000   9.443 -0.5277 -0.5090 -0.2486
  186SAPI  C21121355   0.060   5.925   9.244 -0.1593 -0.8314 -0.3447
  186SAPI  H11R21356   0.023   5.832   9.290  2.0118 -1.3798  0.4078
  186SAPI  C21221357   0.049   5.944   9.106  0.2420  0.1731  0.1143
  186SAPI  H12R21358  -0.004   5.864   9.052  0.4346 -0.1708  0.4366
  186SAPI  C21321359   0.099   6.061   9.026 -0.6351  0.4499 -0.2060
  186SAPI  H13R21360   0.132   6.139   9.099  1.5338 -0.0415 -0.5959
  186SAPI  H13S21361   0.007   6.101   8.979 -0.3353 -0.5166 -1.6537
  186SAPI  C21421362   0.208   6.010   8.932  0.7322 -0.8527 -0.8936
  186SAPI  H14R21363   0.273   5.924   8.953  0.5068 -1.3761 -2.2552
  186SAPI  C21521364   0.222   6.068   8.809 -0.3582 -0.4316  0.4088
  186SAPI  H15R21365   0.310   6.037   8.750  0.8987 -0.0403  1.9959
  186SAPI  C21621366   0.137   6.178   8.745  0.3803 -0.3485  0.0614
  186SAPI  H16R21367   0.193   6.273   8.736 -0.1488 -0.0722 -0.3851
  186SAPI  H16S21368   0.045   6.202   8.802  0.8746  0.9766  0.3379
  186SAPI  C21721369   0.075   6.141   8.607 -0.3127  0.1614  0.1350
  186SAPI  H17R21370   0.144   6.139   8.520 -1.3040  0.5769 -0.6776
  186SAPI  H17S21371   0.006   6.221   8.573 -1.3065 -0.4895  0.5789
  186SAPI  C21821372  -0.015   6.011   8.607  0.3458  0.3952 -0.6081
  186SAPI  H18R21373  -0.079   6.016   8.697  0.9590 -3.3236  0.1788
  186SAPI  H18S21374   0.058   5.928   8.611 -1.1612 -0.8979  1.8712
  186SAPI  C21921375  -0.105   6.010   8.483 -0.2458 -0.0848  0.0518
  186SAPI  H19R21376  -0.150   6.108   8.459 -2.6363 -1.1660 -0.1165
  186SAPI  H19S21377  -0.196   5.947   8.488  0.0957 -0.8310 -2.0627
  186SAPI  C22021378  -0.029   5.959   8.356  0.1902 -0.0226  0.1861
  186SAPI  H20R21379  -0.094   5.922   8.274  1.3127 -2.7343  0.4038
  186SAPI  H20S21380   0.038   5.872   8.370  1.6203  0.6264 -2.0041
  186SAPI  H20T21381   0.028   6.045   8.313 -0.0376 -0.3703 -0.8417
  186SAPI   C3321382   0.245   6.487   9.772 -1.3107 -0.5284 -0.1042
  186SAPI   H3X21383   0.350   6.521   9.785 -0.9464 -0.8890 -1.8500
  186SAPI   H3Y21384   0.186   6.582   9.770 -1.6555 -0.7528 -0.9861
  186SAPI   C3421385   0.225   6.427   9.636 -0.4427 -0.3537  0.4990
  186SAPI   H4X21386   0.121   6.435   9.599 -0.4411  0.8769  0.7273
  186SAPI   H4Y21387   0.270   6.325   9.645 -1.0950 -0.8998 -1.8064
  186SAPI   C3521388   0.316   6.484   9.522 -0.6766 -0.1913 -0.4059
  186SAPI   H5X21389   0.421   6.461   9.551 -0.6361  1.1748  0.6556
  186SAPI   H5Y21390   0.306   6.595   9.520  2.6100  0.2210 -2.6050
  186SAPI   C3621391   0.269   6.435   9.388 -0.4967 -0.4048  0.6008
  186SAPI   H6X21392   0.161   6.460   9.377  0.0173  1.3992 -0.9278
  186SAPI   H6Y21393   0.290   6.328   9.370  3.2527  0.1272  0.8841
  186SAPI   C3721394   0.353   6.508   9.284  0.4955 -0.5644 -0.2125
  186SAPI   H7X21395   0.460   6.476   9.287  0.4922 -0.5886 -0.3456
  186SAPI   H7Y21396   0.360   6.617   9.300  0.4001 -0.8204  1.8643
  186SAPI   C3821397   0.289   6.485   9.144 -0.3505  0.3072 -1.1175
  186SAPI   H8X21398   0.181   6.459   9.150 -0.0470 -0.7820  0.0667
  186SAPI   H8Y21399   0.336   6.396   9.098  1.1680  0.7532 -0.4708
  186SAPI   C3921400   0.313   6.599   9.050  0.5761  1.1956  1.1448
  186SAPI   H9X21401   0.421   6.620   9.036  0.7599 -0.5543 -0.5279
  186SAPI   H9Y21402   0.275   6.697   9.086  0.0065  1.2915  0.3096
  186SAPI  C31021403   0.260   6.565   8.906  0.6237 -0.0896  0.1794
  186SAPI  H10X21404   0.149   6.565   8.903  0.5860  2.0670 -0.3654
  186SAPI  H10Y21405   0.299   6.464   8.880 -0.6439 -0.3565 -0.8098
  186SAPI  C31121406   0.320   6.662   8.801 -0.1937  0.7575 -0.6280
  186SAPI  H11X21407   0.431   6.667   8.807  0.1013  1.7507 -4.2268
  186SAPI  H11Y21408   0.278   6.760   8.834  1.9613  0.2877  4.4279
  186SAPI  C31221409   0.308   6.626   8.654 -0.6066 -0.0048  0.5341
  186SAPI  H12X21410   0.348   6.522   8.647  1.9439  0.9409 -0.2326
  186SAPI  H12Y21411   0.373   6.700   8.601 -2.7246  1.2445 -0.4484
  186SAPI  C31321412   0.161   6.620   8.608 -0.6205 -0.6466 -1.1382
  186SAPI  H13X21413   0.126   6.724   8.628  1.5859  0.0337 -0.5106
  186SAPI  H13Y21414   0.094   6.550   8.662 -0.9782 -0.0378 -0.7711
  186SAPI  C31421415   0.160   6.588   8.456  0.1418  0.1817 -0.1547
  186SAPI  H14X21416   0.242   6.514   8.440 -0.4121 -0.4637 -0.0494
  186SAPI  H14Y21417   0.189   6.681   8.402  1.3109 -0.9500 -1.5809
  186SAPI  C31521418   0.018   6.536   8.415 -0.2494  0.5347  0.4089
  186SAPI  H15X21419  -0.054   6.618   8.433 -0.6305 -0.1173  2.0282
  186SAPI  H15Y21420   0.002   6.449   8.482 -1.8737  0.7124  0.2920
  186SAPI  C31621421   0.013   6.477   8.278  0.0131  0.2476 -0.3067
  186SAPI  H16X21422  -0.029   6.374   8.281  0.7151 -0.1475 -2.2153
  186SAPI  H16Y21423   0.118   6.458   8.248  0.5496 -1.1851  2.2220
  186SAPI  C31721424  -0.061   6.568   8.173  0.6628  0.3337  0.0963
  186SAPI  H17X21425  -0.011   6.666   8.155  1.9548 -0.1896  0.6543
  186SAPI  H17Y21426  -0.166   6.585   8.202  1.2736 -0.1075  2.9053
  186SAPI  C31821427  -0.071   6.494   8.037 -0.0757 -0.0352 -0.4665
  186SAPI  H18X21428  -0.132   6.540   7.957 -2.1045 -0.1440  0.9460
  186SAPI  H18Y21429  -0.134   6.404   8.054  0.7192 -0.6144 -0.5253
  186SAPI  H18Z21430   0.023   6.454   7.994 -1.4494 -0.6065 -3.1050
  187SAPI   C1221431   2.488   0.358   6.163  0.0678  0.8438  0.2879
  187SAPI    H221432   2.416   0.293   6.110  1.2091  0.5061 -0.8929
  187SAPI    O221433   2.618   0.325   6.121 -0.8011  0.0911 -0.8402
  187SAPI   HO221434   2.623   0.280   6.036 -0.0810 -1.1508 -0.1603
  187SAPI   C1321435   2.440   0.496   6.124  0.0366  0.4010  0.6396
  187SAPI    H321436   2.335   0.501   6.158 -0.4938 -0.6997 -0.7259
  187SAPI    O321437   2.454   0.509   5.978  0.2866  0.1395 -0.0686
  187SAPI   HO321438   2.394   0.582   5.957 -1.1702 -1.3604 -1.3963
  187SAPI   C1421439   2.527   0.590   6.197 -0.9610 -0.0218 -0.4595
  187SAPI    H421440   2.635   0.578   6.174 -0.9274  1.1045 -0.9231
  187SAPI    O421441   2.485   0.721   6.158  0.1607  0.1134  0.3956
  187SAPI   HO421442   2.390   0.728   6.169  0.0796 -0.0019 -0.1829
  187SAPI   C1521443   2.512   0.565   6.350  0.2649 -0.6087 -0.5001
  187SAPI    H521444   2.406   0.588   6.374  0.2233 -0.0226 -1.2197
  187SAPI    O521445   2.585   0.656   6.432  0.2241 -0.2273  0.0240
  187SAPI   HO521446   2.552   0.623   6.516  0.6148 -1.9344 -0.4511
  187SAPI   C1621447   2.547   0.419   6.396  0.4370 -0.7539 -0.4597
  187SAPI    H621448   2.655   0.398   6.384  0.4060 -1.3776  0.2982
  187SAPI    O621449   2.514   0.406   6.537  0.0733 -0.3850 -0.0216
  187SAPI   HO621450   2.522   0.313   6.563 -0.2327  0.1310  2.1691
  187SAPI   C1121451   2.469   0.328   6.310  0.2022 -0.0136  0.0941
  187SAPI    H121452   2.363   0.348   6.337 -0.0617 -0.0873 -0.8659
  187SAPI     P21453   2.411   0.091   6.437  0.1403  0.0202  0.0972
  187SAPI   O1321454   2.468  -0.051   6.433 -0.7832  0.0543 -0.2563
  187SAPI   O1421455   2.263   0.098   6.414  0.1572  0.3167 -0.4099
  187SAPI   O1221456   2.498   0.186   6.334  0.3540 -0.1482  0.3726
  187SAPI   O1121457   2.438   0.164   6.576 -0.2285 -0.5397 -0.0305
  187SAPI    C121458   2.382   0.107   6.694  0.6347 -0.1329  0.5213
  187SAPI    HA21459   2.274   0.130   6.693  0.9683  2.2942  3.3162
  187SAPI    HB21460   2.395  -0.003   6.694 -2.5304 -0.5971 -0.8801
  187SAPI    C221461   2.447   0.159   6.824  0.8404  0.1633 -0.6617
  187SAPI    HS21462   2.507   0.248   6.794 -0.1068  1.7785  1.9199
  187SAPI   O2121463   2.523   0.054   6.893  0.3392  0.0441 -0.7398
  187SAPI   C2121464   2.650   0.063   6.851  0.2251  0.2664 -0.4081
  187SAPI   O2221465   2.693   0.130   6.768 -0.4236 -0.2887  0.2748
  187SAPI   C2221466   2.734  -0.030   6.934  0.4682 -0.3910 -0.1230
  187SAPI   H2R21467   2.743  -0.126   6.879  1.8684 -0.9360  1.0096
  187SAPI   H2S21468   2.838   0.005   6.949  0.1620 -0.0722  1.4282
  187SAPI    C321469   2.338   0.202   6.921 -0.4809 -0.0993  0.5188
  187SAPI    HX21470   2.273   0.114   6.936  2.4836 -2.5735 -0.0924
  187SAPI    HY21471   2.284   0.283   6.867  0.9535 -0.7167 -2.0141
  187SAPI   O3121472   2.394   0.253   7.047  0.2849 -0.3150 -0.0144
  187SAPI   C3121473   2.299   0.269   7.129  0.1309  0.3796  0.1399
  187SAPI   O3221474   2.175   0.261   7.108  0.1731  0.4392 -0.1621
  187SAPI   C3221475   2.358   0.300   7.269 -0.5369 -1.0416  0.2363
  187SAPI   H2X21476   2.398   0.403   7.259 -0.4621 -1.2372 -1.8211
  187SAPI   H2Y21477   2.428   0.217   7.294 -1.4311 -1.0871  2.9838
  187SAPI   C2321478   2.684  -0.071   7.080  0.0194 -0.2096  0.7859
  187SAPI   H3R21479   2.751  -0.152   7.117  0.9924 -1.2732 -2.8785
  187SAPI   H3S21480   2.586  -0.123   7.082 -0.3218  0.4462  2.3281
  187SAPI   C2421481   2.671   0.050   7.178  1.0608  0.4292  0.3236
  187SAPI   H4R21482   2.589   0.001   7.235  1.3573 -1.4403 -0.7578
  187SAPI   H4S21483   2.625   0.130   7.116 -0.8623 -0.4941  0.4787
  187SAPI   C2521484   2.793   0.080   7.251 -0.2022  0.1539 -0.4802
  187SAPI   H5R21485   2.884   0.061   7.193  0.6308  0.6500  0.6146
  187SAPI   C2621486   2.803   0.110   7.380 -0.3081  0.3161  0.4149
  187SAPI   H6R21487   2.896   0.111   7.438 -0.0729 -1.4445  0.0969
  187SAPI   C2721488   2.697   0.126   7.480 -0.0388 -0.4201 -0.3036
  187SAPI   H7R21489   2.738   0.075   7.570 -0.9076 -2.4338 -0.9973
  187SAPI   H7S21490   2.602   0.077   7.449 -0.2029  1.6399 -3.5330
  187SAPI   C2821491   2.661   0.271   7.514 -0.8825 -0.1104 -0.3306
  187SAPI   H8R21492   2.661   0.337   7.426  1.3274 -1.2793 -1.2851
  187SAPI   C2921493   2.646   0.319   7.638  0.8015  0.0907  0.3619
  187SAPI   H9R21494   2.606   0.421   7.636  0.9414  0.1923 -2.9616
  187SAPI  C21021495   2.666   0.255   7.775  0.3182  0.0185 -0.3994
  187SAPI  H10R21496   2.720   0.323   7.844 -2.2525  1.4735  0.3096
  187SAPI  H10S21497   2.723   0.160   7.768  0.8454  0.1295  1.8096
  187SAPI  C21121498   2.536   0.212   7.836 -0.0364  0.1569  0.6990
  187SAPI  H11R21499   2.483   0.144   7.767  0.7505  0.8134 -0.5916
  187SAPI  C21221500   2.480   0.236   7.956 -0.0487 -0.3555  0.1309
  187SAPI  H12R21501   2.376   0.203   7.975 -0.1355 -0.7543 -0.9518
  187SAPI  C21321502   2.548   0.318   8.067  0.1276 -0.8416  1.2199
  187SAPI  H13R21503   2.470   0.368   8.127  0.2893  2.1916 -0.8890
  187SAPI  H13S21504   2.592   0.404   8.012  0.4537 -1.9110 -0.2639
  187SAPI  C21421505   2.643   0.241   8.154  0.6059  0.2024  0.5355
  187SAPI  H14R21506   2.701   0.162   8.103  0.6186  1.2674 -1.2082
  187SAPI  C21521507   2.649   0.243   8.286  1.4478  0.2963 -0.1923
  187SAPI  H15R21508   2.728   0.183   8.333  0.9343 -0.4709 -0.3048
  187SAPI  C21621509   2.568   0.321   8.386 -0.0548 -0.0560 -0.4810
  187SAPI  H16R21510   2.508   0.403   8.341  1.1319  0.8285 -0.4857
  187SAPI  H16S21511   2.638   0.379   8.450  0.4381 -0.9806 -0.1732
  187SAPI  C21721512   2.484   0.223   8.479 -0.2643  0.6800 -0.1730
  187SAPI  H17R21513   2.412   0.175   8.410  0.2873  0.0050 -0.2958
  187SAPI  H17S21514   2.414   0.288   8.536  0.7922  0.5548  1.3343
  187SAPI  C21821515   2.566   0.129   8.556 -0.1041  0.1483  0.5220
  187SAPI  H18R21516   2.664   0.175   8.580  0.0356 -0.5658  1.4033
  187SAPI  H18S21517   2.588   0.044   8.487  1.2181  0.2830  0.7443
  187SAPI  C21921518   2.490   0.084   8.678  0.1979 -0.2926 -0.2167
  187SAPI  H19R21519   2.394   0.039   8.645 -0.0059 -0.1073  0.1121
  187SAPI  H19S21520   2.462   0.182   8.724  0.6160  0.1389 -0.8634
  187SAPI  C22021521   2.554  -0.017   8.774 -0.1515 -0.2077 -0.2174
  187SAPI  H20R21522   2.648   0.017   8.821  1.2538 -3.3179 -0.5165
  187SAPI  H20S21523   2.572  -0.115   8.726 -1.2582 -0.6905  0.3051
  187SAPI  H20T21524   2.477  -0.027   8.854  0.4841  2.3698  0.8208
  187SAPI   C3321525   2.251   0.298   7.378 -0.7188  0.1732 -0.1254
  187SAPI   H3X21526   2.173   0.221   7.363  0.1224 -0.8174  0.4025
  187SAPI   H3Y21527   2.203   0.397   7.363 -0.5075 -0.0432 -2.5317
  187SAPI   C3421528   2.308   0.287   7.523 -0.1712  0.4647 -0.4159
  187SAPI   H4X21529   2.387   0.359   7.552 -2.0212  1.2997  3.0567
  187SAPI   H4Y21530   2.332   0.180   7.540 -0.6984 -0.0613 -2.5811
  187SAPI   C3521531   2.200   0.342   7.616 -0.2684  0.1448  0.3888
  187SAPI   H5X21532   2.103   0.292   7.594 -1.0432  0.6476  2.3957
  187SAPI   H5Y21533   2.176   0.446   7.586 -0.3423 -0.3652 -1.4384
  187SAPI   C3621534   2.233   0.352   7.759 -0.4438 -0.4510  0.0431
  187SAPI   H6X21535   2.312   0.426   7.782 -3.0472  1.9954  1.8513
  187SAPI   H6Y21536   2.245   0.250   7.801  1.6336 -0.1120  0.3641
  187SAPI   C3721537   2.105   0.404   7.836 -0.9197 -1.0218 -0.1272
  187SAPI   H7X21538   2.014   0.350   7.803 -0.3474 -2.4294  0.4813
  187SAPI   H7Y21539   2.094   0.512   7.813 -1.2848 -0.5742  1.9121
  187SAPI   C3821540   2.125   0.385   7.992  0.3150  1.3060  0.4902
  187SAPI   H8X21541   2.044   0.445   8.038 -1.0877 -2.5094  3.6200
  187SAPI   H8Y21542   2.221   0.431   8.024  1.0161 -0.8014  1.6614
  187SAPI   C3921543   2.100   0.244   8.035 -0.9842 -0.2915  0.2746
  187SAPI   H9X21544   2.182   0.176   8.003 -1.8773 -1.6705  0.8132
  187SAPI   H9Y21545   2.012   0.203   7.981 -0.0990 -2.1960  0.1740
  187SAPI  C31021546   2.113   0.222   8.182 -0.8155  0.4727 -0.0263
  187SAPI  H10X21547   2.218   0.242   8.212 -0.0346  0.0456 -2.3073
  187SAPI  H10Y21548   2.094   0.114   8.200  0.1974  0.2188 -0.4133
  187SAPI  C31121549   2.010   0.306   8.257 -0.2402 -0.2843 -0.4375
  187SAPI  H11X21550   1.905   0.287   8.229 -1.2933  0.4958  2.5713
  187SAPI  H11Y21551   2.032   0.413   8.235 -0.3273  0.2857  1.9673
  187SAPI  C31221552   2.018   0.298   8.407 -0.4862 -0.4438 -0.6004
  187SAPI  H12X21553   1.950   0.367   8.462  0.7604 -1.6880  2.7781
  187SAPI  H12Y21554   2.124   0.314   8.436 -0.4783 -1.8025  0.2218
  187SAPI  C31321555   1.984   0.158   8.451  0.0937  0.0146 -0.4313
  187SAPI  H13X21556   2.071   0.095   8.423  0.6885  0.7004 -0.1606
  187SAPI  H13Y21557   1.899   0.125   8.388  1.2383  0.0021 -2.0276
  187SAPI  C31421558   1.943   0.141   8.599  0.2739  0.3018 -0.4560
  187SAPI  H14X21559   2.039   0.149   8.655 -0.6786  0.0981  1.2988
  187SAPI  H14Y21560   1.907   0.037   8.611 -0.8177  0.8470  1.4600
  187SAPI  C31521561   1.839   0.247   8.644 -0.4159  0.3955  0.4775
  187SAPI  H15X21562   1.763   0.250   8.563  2.6851 -2.8433 -2.9525
  187SAPI  H15Y21563   1.888   0.346   8.653  1.1185 -0.5112  3.8219
  187SAPI  C31621564   1.775   0.219   8.784  0.4093 -0.2561  0.1678
  187SAPI  H16X21565   1.693   0.294   8.785  1.3987  0.9611 -1.8654
  187SAPI  H16Y21566   1.862   0.236   8.851  0.5838 -0.8821  0.1058
  187SAPI  C31721567   1.716   0.081   8.794  0.0072 -0.5430 -0.5371
  187SAPI  H17X21568   1.686   0.051   8.897 -1.5462  3.7706  0.4967
  187SAPI  H17Y21569   1.783  -0.004   8.769  1.7009  0.0962  1.5337
  187SAPI  C31821570   1.587   0.064   8.712 -0.0641 -0.7835 -0.2784
  187SAPI  H18X21571   1.554  -0.040   8.729  2.3847 -1.7868 -1.1349
  187SAPI  H18Y21572   1.620   0.073   8.606 -0.7338 -0.2960 -0.4516
  187SAPI  H18Z21573   1.509   0.140   8.734 -0.2565 -0.5561 -1.6579
  188SAPI   C1221574   3.869   3.860   6.048  0.2937 -0.0341 -0.0776
  188SAPI    H221575   3.962   3.803   6.069  0.3219  0.7117  2.0669
  188SAPI    O221576   3.912   3.964   5.965 -0.3884  0.2170 -0.0596
  188SAPI   HO221577   3.998   3.993   5.996  0.1644 -2.7774  1.5291
  188SAPI   C1321578   3.776   3.758   5.986 -0.2517  0.1717  0.7620
  188SAPI    H321579   3.773   3.675   6.060 -2.1853 -2.5570 -2.1070
  188SAPI    O321580   3.833   3.711   5.869 -0.2171  0.0190  0.5079
  188SAPI   HO321581   3.845   3.787   5.811  2.0275 -0.6899 -0.0642
  188SAPI   C1421582   3.635   3.815   5.968 -0.2207  0.1636 -0.1485
  188SAPI    H421583   3.641   3.898   5.895 -1.7847  1.1352  0.7474
  188SAPI    O421584   3.542   3.716   5.913 -0.0557  0.0727 -0.0694
  188SAPI   HO421585   3.533   3.646   5.979 -1.7580  0.9723  0.7164
  188SAPI   C1521586   3.576   3.863   6.100 -0.9107  0.5818  0.4359
  188SAPI    H521587   3.577   3.772   6.164  0.4279  0.6022  0.4827
  188SAPI    O521588   3.445   3.909   6.089 -0.1672 -0.0131  0.5200
  188SAPI   HO521589   3.395   3.858   6.025  0.7327  0.5404 -0.6417
  188SAPI   C1621590   3.667   3.966   6.164 -0.0520 -0.0311  0.8760
  188SAPI    H621591   3.672   4.050   6.092  3.3149 -1.3684 -0.6405
  188SAPI    O621592   3.609   4.010   6.286  0.4498  0.2227 -0.3554
  188SAPI   HO621593   3.562   3.931   6.314  2.3613 -1.2136 -0.9367
  188SAPI   C1121594   3.805   3.908   6.182 -0.5465 -0.7580  0.1179
  188SAPI    H121595   3.805   3.815   6.242 -1.2812 -1.4581 -0.9397
  188SAPI     P21596   4.011   3.971   6.334  0.3013 -0.2407 -0.1469
  188SAPI   O1321597   4.116   4.080   6.332 -0.3441 -0.4414 -0.3932
  188SAPI   O1421598   4.071   3.841   6.288 -0.1787  0.0671  0.8022
  188SAPI   O1221599   3.889   4.008   6.239  0.2779 -0.9612  0.8974
  188SAPI   O1121600   3.956   3.960   6.483  0.1255  0.5243  0.2179
  188SAPI    C121601   3.855   4.048   6.530 -0.2825 -0.0792 -0.3626
  188SAPI    HA21602   3.792   4.082   6.445  0.7317 -1.1197 -1.5538
  188SAPI    HB21603   3.788   4.004   6.607 -1.0062  2.8528  0.8394
  188SAPI    C221604   3.919   4.171   6.600  0.3347 -0.2256 -0.2692
  188SAPI    HS21605   3.987   4.218   6.525  1.2600  1.3335  1.4684
  188SAPI   O2121606   3.997   4.122   6.714 -0.6555  0.0443  0.2750
  188SAPI   C2121607   4.068   4.210   6.782  0.5473  0.2915 -0.3086
  188SAPI   O2221608   4.081   4.328   6.758 -0.5256 -0.3726  0.1674
  188SAPI   C2221609   4.126   4.135   6.909  0.2637 -0.0537 -0.3459
  188SAPI   H2R21610   4.196   4.053   6.881 -0.1587 -1.5943  2.6854
  188SAPI   H2S21611   4.176   4.210   6.974 -0.5123  1.3494 -1.3317
  188SAPI    C321612   3.814   4.284   6.642  0.5841 -0.7305 -0.9144
  188SAPI    HX21613   3.759   4.312   6.549  2.2082  1.5646 -1.2668
  188SAPI    HY21614   3.872   4.373   6.673  0.1540 -1.3366  1.8197
  188SAPI   O3121615   3.723   4.259   6.751 -0.2155 -0.3274  0.2739
  188SAPI   C3121616   3.621   4.177   6.725 -0.2587  0.9347  0.2959
  188SAPI   O3221617   3.557   4.176   6.618  0.4687 -0.3847 -0.4466
  188SAPI   C3221618   3.580   4.103   6.849 -0.0509 -0.3289 -0.2090
  188SAPI   H2X21619   3.617   3.999   6.833  0.1255 -0.4201  0.7272
  188SAPI   H2Y21620   3.469   4.098   6.853  0.0112 -1.2915  0.8454
  188SAPI   C2321621   4.018   4.057   6.984 -0.0764 -0.5120 -0.6685
  188SAPI   H3R21622   3.963   3.997   6.908  0.1267 -0.5457 -0.7919
  188SAPI   H3S21623   3.957   4.135   7.033 -0.4249  0.4211 -2.5143
  188SAPI   C2421624   4.072   3.954   7.087  0.1558  0.2168  0.4933
  188SAPI   H4R21625   4.141   3.885   7.035  2.4340  0.0764  3.4442
  188SAPI   H4S21626   3.991   3.888   7.122  2.6821 -3.9576 -0.8194
  188SAPI   C2521627   4.145   4.013   7.207 -0.0016  0.4392 -0.4028
  188SAPI   H5R21628   4.249   4.045   7.192 -0.4973  1.1129 -3.0487
  188SAPI   C2621629   4.089   4.046   7.324  0.0237  0.5591 -0.0341
  188SAPI   H6R21630   4.143   4.097   7.406 -1.3449 -0.1526  1.3568
  188SAPI   C2721631   3.940   4.035   7.356  0.0089 -0.4865  0.5460
  188SAPI   H7R21632   3.880   3.989   7.274 -0.4019 -0.8591  1.0489
  188SAPI   H7S21633   3.885   4.128   7.380 -0.2224  0.1048 -1.9497
  188SAPI   C2821634   3.932   3.936   7.469 -0.7317 -0.2038 -0.7803
  188SAPI   H8R21635   3.926   3.835   7.427 -0.3327 -0.2442 -0.7398
  188SAPI   C2921636   3.959   3.960   7.600  0.0528 -0.9988  0.2221
  188SAPI   H9R21637   3.944   3.871   7.664 -0.9418 -2.5526 -2.0233
  188SAPI  C21021638   3.995   4.093   7.661  0.1042  0.2535  0.9201
  188SAPI  H10R21639   3.920   4.136   7.731  0.3874  3.1306 -0.3823
  188SAPI  H10S21640   4.004   4.169   7.580 -0.4495  0.2939  0.8919
  188SAPI  C21121641   4.133   4.093   7.712 -0.1015  0.6488 -0.2857
  188SAPI  H11R21642   4.203   4.062   7.632 -2.1500 -2.8668 -0.9447
  188SAPI  C21221643   4.179   4.113   7.838 -0.0241 -0.3185 -0.4248
  188SAPI  H12R21644   4.285   4.119   7.867 -0.1729 -0.0992  0.0874
  188SAPI  C21321645   4.090   4.140   7.953 -0.0115 -0.0829 -0.0401
  188SAPI  H13R21646   3.985   4.104   7.945  0.0684 -1.2241  2.8674
  188SAPI  H13S21647   4.083   4.251   7.961  1.4834  0.1982 -2.0271
  188SAPI  C21421648   4.141   4.075   8.080 -1.2781 -0.1539  0.2154
  188SAPI  H14R21649   4.147   3.965   8.077 -0.9170 -0.1775  1.3542
  188SAPI  C21521650   4.175   4.143   8.194 -0.6464  0.7786 -0.1616
  188SAPI  H15R21651   4.203   4.082   8.281  1.6948  0.1969 -1.2435
  188SAPI  C21621652   4.171   4.292   8.219 -0.3075  0.6283  0.4172
  188SAPI  H16R21653   4.071   4.327   8.250 -0.7111  0.5400 -0.7268
  188SAPI  H16S21654   4.201   4.344   8.126  1.6008 -0.0274  0.6243
  188SAPI  C21721655   4.283   4.314   8.333  0.7914  0.8554  0.0718
  188SAPI  H17R21656   4.293   4.425   8.335  0.9861  0.8268  1.4438
  188SAPI  H17S21657   4.386   4.283   8.304  0.7188 -0.0901  0.7831
  188SAPI  C21821658   4.244   4.273   8.473  0.6707  0.6538 -0.1605
  188SAPI  H18R21659   4.222   4.166   8.495  0.8452  0.7073  0.2994
  188SAPI  H18S21660   4.161   4.341   8.502  0.6256  0.3104  0.5587
  188SAPI  C21921661   4.358   4.306   8.573  0.8532 -0.2976 -0.1740
  188SAPI  H19R21662   4.384   4.412   8.554  0.4507 -0.2949 -0.7113
  188SAPI  H19S21663   4.451   4.246   8.561  0.7264 -0.3025 -1.1998
  188SAPI  C22021664   4.307   4.282   8.716 -0.9273  0.1629 -0.1782
  188SAPI  H20R21665   4.372   4.334   8.790  1.6527  0.0542 -2.2221
  188SAPI  H20S21666   4.291   4.174   8.739  0.2442 -0.0320 -0.2316
  188SAPI  H20T21667   4.215   4.342   8.732  0.5484  2.4728  0.0439
  188SAPI   C3321668   3.641   4.153   6.983 -0.1498  0.2604 -0.2281
  188SAPI   H3X21669   3.586   4.244   7.016 -1.3744  0.3368 -2.2839
  188SAPI   H3Y21670   3.747   4.185   6.973 -0.2836  1.1602  1.0316
  188SAPI   C3421671   3.639   4.042   7.087  0.7552 -0.0027 -0.3598
  188SAPI   H4X21672   3.674   4.084   7.184  0.7509  1.9654 -1.1643
  188SAPI   H4Y21673   3.708   3.960   7.059  0.8757 -0.5568  1.4283
  188SAPI   C3521674   3.502   3.982   7.127  0.2707  0.1536 -0.2642
  188SAPI   H5X21675   3.468   3.915   7.045  2.4815 -2.6823  0.9855
  188SAPI   H5Y21676   3.429   4.065   7.139  0.1541  0.1248 -0.7261
  188SAPI   C3621677   3.504   3.887   7.253  0.0465  0.2843  0.3089
  188SAPI   H6X21678   3.597   3.827   7.253  0.4378  0.8566  1.6395
  188SAPI   H6Y21679   3.413   3.824   7.258 -0.6944  1.3262  0.3171
  188SAPI   C3721680   3.501   3.967   7.383 -0.0540 -0.4170  0.5423
  188SAPI   H7X21681   3.412   4.033   7.378  0.5476  0.3730  0.1466
  188SAPI   H7Y21682   3.591   4.031   7.388 -0.4782  0.3613 -1.0833
  188SAPI   C3821683   3.491   3.893   7.518  0.4699  0.6718  0.3436
  188SAPI   H8X21684   3.571   3.816   7.530 -2.5940 -2.5668  1.9196
  188SAPI   H8Y21685   3.396   3.835   7.510  0.9140  0.1960 -2.6911
  188SAPI   C3921686   3.479   3.991   7.634 -0.8512 -0.5693 -0.3142
  188SAPI   H9X21687   3.401   4.067   7.611 -0.7181 -0.8720 -1.8680
  188SAPI   H9Y21688   3.580   4.036   7.642 -1.2168  0.1547  0.3153
  188SAPI  C31021689   3.442   3.924   7.760 -0.2889 -0.2475 -0.6277
  188SAPI  H10X21690   3.493   3.825   7.759 -0.0372 -0.1335  0.2004
  188SAPI  H10Y21691   3.332   3.908   7.763 -0.2156 -1.4787 -2.5400
  188SAPI  C31121692   3.487   4.002   7.891  0.3364  0.4748 -0.7179
  188SAPI  H11X21693   3.406   3.974   7.962  1.0984  2.4513  1.0522
  188SAPI  H11Y21694   3.482   4.112   7.876  3.1368  0.8780  0.6286
  188SAPI  C31221695   3.624   3.967   7.952 -0.9111 -0.0358 -0.6737
  188SAPI  H12X21696   3.705   4.035   7.918  2.5497 -4.0988 -1.4352
  188SAPI  H12Y21697   3.650   3.859   7.945 -0.4049 -0.2415  2.7401
  188SAPI  C31321698   3.616   3.984   8.108 -0.5023  0.2679 -0.9171
  188SAPI  H13X21699   3.538   3.913   8.143  0.1436 -0.1006 -0.2004
  188SAPI  H13Y21700   3.576   4.086   8.123 -1.5875 -0.2570 -0.0937
  188SAPI  C31421701   3.744   3.976   8.188 -0.4225  1.0417  0.1766
  188SAPI  H14X21702   3.735   4.001   8.296 -0.8464  0.8181  0.1944
  188SAPI  H14Y21703   3.816   4.056   8.161 -1.0141  1.0056 -1.6464
  188SAPI  C31521704   3.817   3.843   8.175 -0.5713  0.3420 -0.3360
  188SAPI  H15X21705   3.904   3.854   8.244 -2.6020  0.9561  2.3261
  188SAPI  H15Y21706   3.844   3.832   8.068 -0.3068  1.7814 -0.4376
  188SAPI  C31621707   3.732   3.725   8.230 -0.7124  0.0004 -0.2216
  188SAPI  H16X21708   3.641   3.710   8.169 -0.5110 -1.7638 -0.1440
  188SAPI  H16Y21709   3.697   3.755   8.331 -0.0212  0.7221 -0.1811
  188SAPI  C31721710   3.808   3.587   8.231 -0.2905 -0.1736 -0.0929
  188SAPI  H17X21711   3.897   3.580   8.296 -1.4318  1.0221  1.6813
  188SAPI  H17Y21712   3.843   3.567   8.127  1.9192  1.2892  0.2996
  188SAPI  C31821713   3.729   3.470   8.280  0.2400 -0.1782 -0.0347
  188SAPI  H18X21714   3.791   3.380   8.261  0.9479  0.8186 -2.9437
  188SAPI  H18Y21715   3.637   3.450   8.220  0.2187 -2.9521  0.7486
  188SAPI  H18Z21716   3.700   3.482   8.387 -0.2143  1.9371 -0.3472
  189POPC     N21717   3.031   5.872  10.784  0.2708 -0.5886  0.0777
  189POPC   C1221718   3.104   5.924  10.666  0.2200  0.0138 -0.4888
  189POPC  H12A21719   3.068   6.023  10.641  0.0577  0.0527 -0.1128
  189POPC  H12B21720   3.081   5.853  10.589 -2.0379 -0.5215  0.6000
  189POPC   C1321721   3.071   5.944  10.913  0.1727 -1.1522 -0.2827
  189POPC  H13A21722   3.041   6.047  10.898  1.2200 -0.7586  0.1919
  189POPC  H13B21723   3.034   5.903  11.005  2.0399 -0.0130  1.0630
  189POPC  H13C21724   3.178   5.958  10.924 -0.1229 -0.0128  1.7275
  189POPC   C1421725   2.881   5.886  10.766  0.3185 -0.9396  0.0858
  189POPC  H14A21726   2.820   5.832  10.837 -0.7552 -3.0373 -2.2761
  189POPC  H14B21727   2.854   5.990  10.758 -2.3227 -1.6621 -1.8146
  189POPC  H14C21728   2.849   5.848  10.670  0.7684  0.4840 -0.6700
  189POPC   C1521729   3.055   5.729  10.816  0.0577 -0.0518  0.1734
  189POPC  H15A21730   3.036   5.661  10.734 -1.5151 -0.2809  0.6980
  189POPC  H15B21731   2.997   5.685  10.896  0.4039 -2.2202 -0.7036
  189POPC  H15C21732   3.156   5.718  10.851  0.5421  0.3095 -1.0456
  189POPC   C1121733   3.264   5.936  10.667 -0.4692  0.1271 -0.0104
  189POPC  H11A21734   3.294   5.985  10.572  0.8377  0.0023  0.3205
  189POPC  H11B21735   3.301   5.832  10.655 -1.9156 -0.7697  2.4973
  189POPC     P21736   3.429   6.103  10.792  0.3679  0.3484 -0.3165
  189POPC   O1321737   3.535   6.025  10.858 -0.7366 -0.0661 -0.0881
  189POPC   O1421738   3.379   6.226  10.845 -0.0353  0.2602  0.4602
  189POPC   O1221739   3.312   5.996  10.786  0.9639  0.1051  0.3307
  189POPC   O1121740   3.481   6.134  10.644 -0.0109  0.1186  0.2115
  189POPC    C121741   3.506   6.266  10.599  1.0229 -0.0683 -0.0613
  189POPC    HA21742   3.601   6.299  10.647  0.9980  1.2273 -0.8650
  189POPC    HB21743   3.429   6.333  10.642  0.1565 -0.7124 -0.5700
  189POPC    C221744   3.507   6.279  10.443  0.0488 -0.5090  0.6656
  189POPC    HS21745   3.425   6.216  10.403 -0.1685  1.7122 -2.7782
  189POPC   O2121746   3.635   6.236  10.394  0.2807 -0.0072  0.0325
  189POPC   C2121747   3.632   6.204  10.265 -0.3078  0.7918 -0.0874
  189POPC   O2221748   3.543   6.223  10.186  0.0316 -0.3747  0.2571
  189POPC   C2221749   3.757   6.122  10.237 -0.5770  0.0358 -0.3364
  189POPC   H2R21750   3.788   6.078  10.334  0.0743 -1.1804 -1.0681
  189POPC   H2S21751   3.836   6.193  10.204 -1.1402  0.4471 -0.8190
  189POPC    C321752   3.473   6.433  10.407  0.2637 -0.1774 -0.0939
  189POPC    HX21753   3.542   6.501  10.461  1.0012 -1.0912  0.1521
  189POPC    HY21754   3.375   6.451  10.455  0.1029 -1.4806  0.1023
  189POPC   O3121755   3.471   6.464  10.270 -0.3597  0.0428 -0.3962
  189POPC   C3121756   3.345   6.445  10.204 -0.6070 -0.1922 -0.4579
  189POPC   O3221757   3.244   6.414  10.263  0.4240 -0.2727  0.0494
  189POPC   C3221758   3.370   6.465  10.051 -0.3447 -0.0673  0.1327
  189POPC   H2X21759   3.438   6.385  10.016 -1.3216 -0.4392 -0.9876
  189POPC   H2Y21760   3.428   6.560  10.044 -1.0164  0.3159 -0.4221
  189POPC   C2321761   3.738   6.017  10.130  0.4732  0.1329 -1.2000
  189POPC   H3R21762   3.718   6.068  10.033 -0.7597 -0.3389 -1.2084
  189POPC   H3S21763   3.646   5.958  10.148  1.1466 -0.2186  1.5461
  189POPC   C2421764   3.861   5.919  10.121 -0.2529  0.0952  0.1335
  189POPC   H4R21765   3.900   5.883  10.219  1.2317  2.7690  0.6449
  189POPC   H4S21766   3.949   5.976  10.084  0.1662  0.2023  1.2384
  189POPC   C2521767   3.837   5.809  10.017 -0.3798 -0.2190 -0.2100
  189POPC   H5R21768   3.729   5.782  10.019 -0.4115 -0.2206 -1.3526
  189POPC   H5S21769   3.903   5.722  10.039  1.5850  1.4600  0.9452
  189POPC   C2621770   3.860   5.849   9.874  0.1318  0.0459  0.0835
  189POPC   H6R21771   3.969   5.840   9.857  0.4184 -2.7506  2.6096
  189POPC   H6S21772   3.841   5.958   9.860 -4.3238 -0.3438  1.4783
  189POPC   C2721773   3.774   5.780   9.760 -0.6514 -0.2542  0.0894
  189POPC   H7R21774   3.665   5.795   9.774 -0.5667 -0.1899  0.7075
  189POPC   H7S21775   3.786   5.669   9.764  0.7928 -0.1188  0.0181
  189POPC   C2821776   3.802   5.830   9.614 -0.5567 -0.1250  0.0243
  189POPC   H8R21777   3.911   5.820   9.596 -0.3999  0.7800  0.3680
  189POPC   H8S21778   3.783   5.938   9.598  0.7739  0.1544  0.1793
  189POPC   C2921779   3.725   5.747   9.510  0.2009 -0.4655 -0.2887
  189POPC   H9121780   3.662   5.667   9.550 -1.7792 -0.5089 -3.2507
  189POPC  C21021781   3.725   5.774   9.381  0.0966 -0.3560 -0.3232
  189POPC  H10121782   3.665   5.704   9.321  0.0592 -2.4906  2.0266
  189POPC  C21121783   3.805   5.881   9.310 -0.4084 -0.5937  0.5527
  189POPC  H11R21784   3.913   5.862   9.291 -0.1625  0.9886  0.2251
  189POPC  H11S21785   3.810   5.975   9.370 -1.3391  0.5888 -1.1607
  189POPC  C21221786   3.738   5.907   9.176 -0.4962 -0.0445 -0.1671
  189POPC  H12R21787   3.767   6.011   9.149 -2.6295  0.8181  0.6450
  189POPC  H12S21788   3.628   5.904   9.193 -0.3074 -0.1893  1.1346
  189POPC  C21321789   3.793   5.805   9.077 -0.1152  0.2931  0.3684
  189POPC  H13R21790   3.767   5.701   9.109 -0.5350 -0.0041 -0.8813
  189POPC  H13S21791   3.903   5.806   9.091 -0.1684 -1.5758  1.2329
  189POPC  C21421792   3.748   5.823   8.930 -0.3839  0.8580 -0.1112
  189POPC  H14R21793   3.790   5.734   8.880  0.4774  1.4520 -0.4706
  189POPC  H14S21794   3.797   5.912   8.883  0.5864  0.8157  0.7983
  189POPC  C21521795   3.599   5.819   8.909 -1.4741  0.4501 -0.2253
  189POPC  H15R21796   3.561   5.902   8.974  2.3766  2.2956 -0.0797
  189POPC  H15S21797   3.560   5.722   8.947 -1.4498 -0.1029 -1.5963
  189POPC  C21621798   3.534   5.828   8.768  0.2824 -0.6318  0.0991
  189POPC  H16R21799   3.431   5.793   8.788  0.6709 -0.4820  2.7595
  189POPC  H16S21800   3.583   5.756   8.698 -1.2691  0.7424 -2.5623
  189POPC  C21721801   3.533   5.979   8.729  1.4173 -1.2289  0.3636
  189POPC  H17R21802   3.641   6.003   8.738  1.0901  1.2043 -1.2272
  189POPC  H17S21803   3.473   6.038   8.802  1.6456  1.0039 -1.1388
  189POPC  C21821804   3.472   6.011   8.588  0.1443  0.5145 -0.0261
  189POPC  H18R21805   3.495   5.930   8.515 -0.2417  1.3947 -1.1396
  189POPC  H18S21806   3.511   6.109   8.552 -1.9273  0.7200 -1.8826
  189POPC  H18T21807   3.361   6.014   8.592  0.1371  0.0618  0.2629
  189POPC   C3321808   3.236   6.465   9.969 -0.7448 -0.2912 -0.2949
  189POPC   H3X21809   3.188   6.561   9.999  0.5448 -0.2378  1.7702
  189POPC   H3Y21810   3.167   6.381   9.991  1.4736 -2.3995 -1.0230
  189POPC   C3421811   3.262   6.469   9.820 -0.5438  1.0094 -0.5667
  189POPC   H4X21812   3.315   6.380   9.780  1.2572  1.8375 -0.1354
  189POPC   H4Y21813   3.325   6.559   9.801 -1.9988  2.2804  0.3950
  189POPC   C3521814   3.133   6.466   9.737  0.0315  0.4688  0.1633
  189POPC   H5X21815   3.063   6.536   9.789  1.9740  0.9466  2.3184
  189POPC   H5Y21816   3.073   6.372   9.741 -1.2442  1.2907  1.7284
  189POPC   C3621817   3.154   6.526   9.604 -0.8231  0.6556  0.1867
  189POPC   H6X21818   3.223   6.612   9.616  0.4803 -0.2447 -0.6149
  189POPC   H6Y21819   3.064   6.568   9.555 -0.6705 -0.2911 -0.9583
  189POPC   C3721820   3.210   6.418   9.501 -0.2582  0.0063  0.0753
  189POPC   H7X21821   3.131   6.340   9.501 -0.9180  0.6609 -0.7419
  189POPC   H7Y21822   3.305   6.375   9.539 -0.2012  0.3209  0.2908
  189POPC   C3821823   3.234   6.484   9.362 -0.6377  0.6035  0.3017
  189POPC   H8X21824   3.332   6.534   9.348 -1.0098  1.2347 -0.0607
  189POPC   H8Y21825   3.155   6.559   9.344 -0.4829  1.0032  1.1933
  189POPC   C3921826   3.226   6.380   9.249  0.4387  0.4214  0.5573
  189POPC   H9X21827   3.120   6.346   9.251  0.7200 -0.4759  0.7457
  189POPC   H9Y21828   3.294   6.294   9.266 -0.8175 -0.6478  0.3564
  189POPC  C31021829   3.257   6.451   9.113 -0.1676 -0.8844 -0.2132
  189POPC  H10X21830   3.354   6.504   9.124 -1.4581  1.8450 -1.1243
  189POPC  H10Y21831   3.187   6.536   9.103  0.7430 -0.0619  0.2926
  189POPC  C31121832   3.256   6.346   9.008 -0.3839  0.1033 -0.8034
  189POPC  H11X21833   3.155   6.301   8.999 -0.4180 -0.5897  2.1812
  189POPC  H11Y21834   3.323   6.265   9.041 -0.0928  0.4278 -0.5908
  189POPC  C31221835   3.301   6.413   8.874 -0.0823  0.2930 -1.1070
  189POPC  H12X21836   3.397   6.463   8.898  0.1592  0.0970 -1.6560
  189POPC  H12Y21837   3.220   6.489   8.862  0.6702  1.1247 -1.0140
  189POPC  C31321838   3.315   6.323   8.756  0.1477 -0.6471 -0.1665
  189POPC  H13X21839   3.399   6.255   8.783  3.0140  2.7712  0.2123
  189POPC  H13Y21840   3.347   6.373   8.661  0.5638 -0.2411  0.1794
  189POPC  C31421841   3.184   6.264   8.702 -0.4827 -0.1264 -0.4918
  189POPC  H14X21842   3.157   6.187   8.778 -0.4254  0.4666  0.1334
  189POPC  H14Y21843   3.200   6.210   8.605 -4.3669  0.1005 -1.4381
  189POPC  C31521844   3.071   6.371   8.677 -0.2710  0.1699  0.4566
  189POPC  H15X21845   3.117   6.444   8.606  0.1577  1.5082  2.0380
  189POPC  H15Y21846   3.050   6.434   8.766 -2.1646  0.7527 -0.3622
  189POPC  C31621847   2.940   6.297   8.637 -0.6869 -0.9422  0.7852
  189POPC  H16X21848   2.971   6.227   8.556  0.2104 -2.0945  2.0688
  189POPC  H16Y21849   2.862   6.370   8.608  2.7737  2.8454  0.0220
  189POPC  H16Z21850   2.892   6.241   8.720 -3.1613 -1.2895 -0.7873
  190POPC     N21851   6.271   1.151  11.252  0.1120 -0.7871  0.1184
  190POPC   C1221852   6.208   1.240  11.145  0.0826  0.3052 -0.2004
  190POPC  H12A21853   6.285   1.280  11.081 -0.0448 -2.5485 -2.3911
  190POPC  H12B21854   6.157   1.329  11.177  0.4201  1.1474 -1.9055
  190POPC   C1321855   6.368   1.051  11.191  0.2716 -0.3464  0.4725
  190POPC  H13A21856   6.318   0.980  11.126 -0.2048  0.0941  0.3583
  190POPC  H13B21857   6.447   1.103  11.139 -0.5880 -0.7716 -1.3825
  190POPC  H13C21858   6.412   0.993  11.270  3.0265  1.1830  0.2030
  190POPC   C1421859   6.351   1.239  11.346  0.2881  0.2945  0.1309
  190POPC  H14A21860   6.294   1.313  11.401  3.0793  1.4029  1.7700
  190POPC  H14B21861   6.378   1.172  11.426 -0.3940  1.4250  1.3468
  190POPC  H14C21862   6.444   1.277  11.306  1.4569 -1.7270  0.7666
  190POPC   C1521863   6.171   1.077  11.331  0.1893  0.0508 -0.2023
  190POPC  H15A21864   6.088   1.140  11.361  1.4124  2.4993 -1.6402
  190POPC  H15B21865   6.223   1.025  11.409  1.3249  0.1014 -0.9052
  190POPC  H15C21866   6.120   1.010  11.264 -1.0426  0.2532  0.5113
  190POPC   C1121867   6.103   1.178  11.055 -0.0161  0.1164  0.2206
  190POPC  H11A21868   6.064   1.261  10.991  3.0524  1.2259 -0.3921
  190POPC  H11B21869   6.026   1.141  11.126  1.1561 -2.4230  0.2465
  190POPC     P21870   6.235   1.115  10.836 -0.1073  0.1195  0.2674
  190POPC   O1321871   6.286   0.989  10.778 -0.1293  0.4484 -0.0763
  190POPC   O1421872   6.340   1.219  10.872 -0.0101 -0.3068  0.1761
  190POPC   O1221873   6.149   1.079  10.970 -0.0969  0.0976  0.3084
  190POPC   O1121874   6.124   1.192  10.746  0.0316 -0.0704 -0.4981
  190POPC    C121875   6.007   1.117  10.722  0.9047  0.3727  0.2022
  190POPC    HA21876   5.928   1.194  10.706  1.5637  1.3953  1.5870
  190POPC    HB21877   5.972   1.043  10.797  0.6036 -0.1648 -0.4681
  190POPC    C221878   6.021   1.043  10.582  0.7788  0.9097  0.6051
  190POPC    HS21879   6.088   0.960  10.614  0.3248  0.2699 -0.0846
  190POPC   O2121880   6.057   1.132  10.477  0.0125  0.3012 -0.0747
  190POPC   C2121881   6.171   1.091  10.424 -0.5010  0.6764  0.5333
  190POPC   O2221882   6.237   0.993  10.455  0.4804  0.2394  0.1414
  190POPC   C2221883   6.212   1.184  10.306  0.0486  0.3497 -0.0403
  190POPC   H2R21884   6.268   1.276  10.333  0.3870  0.3891 -0.8128
  190POPC   H2S21885   6.127   1.226  10.247 -0.1418 -0.3041 -0.2395
  190POPC    C321886   5.894   0.976  10.537 -0.1178  0.6183 -0.5845
  190POPC    HX21887   5.822   1.061  10.529 -0.5487  0.2316 -0.8578
  190POPC    HY21888   5.857   0.929  10.630  0.2516 -0.8406 -1.1526
  190POPC   O3121889   5.900   0.892  10.419  0.1722 -0.4900 -0.2977
  190POPC   C3121890   5.977   0.787  10.426  0.1312 -1.0569 -0.1468
  190POPC   O3221891   6.034   0.750  10.531  0.5317  0.3934 -0.5821
  190POPC   C3221892   5.968   0.710  10.294  0.4075 -0.1165 -0.6197
  190POPC   H2X21893   6.009   0.786  10.223 -0.2490 -0.0045 -0.8801
  190POPC   H2Y21894   5.860   0.704  10.268  0.9150  0.8136 -3.2919
  190POPC   C2321895   6.302   1.117  10.200  0.1565  0.5272 -0.0553
  190POPC   H3R21896   6.253   1.031  10.151 -0.8751  1.3501 -0.4947
  190POPC   H3S21897   6.395   1.083  10.251 -0.1289 -1.5207 -0.8321
  190POPC   C2421898   6.351   1.206  10.088  0.0827  0.0551  0.7331
  190POPC   H4R21899   6.422   1.274  10.139  1.2495 -1.1515  0.7655
  190POPC   H4S21900   6.260   1.257  10.050 -0.1520  0.1661  1.4225
  190POPC   C2521901   6.429   1.120   9.979 -0.3919 -0.1922  0.2593
  190POPC   H5R21902   6.358   1.044   9.938 -1.3741  0.1857  1.2118
  190POPC   H5S21903   6.512   1.066  10.027 -0.5482 -0.0221  0.7214
  190POPC   C2621904   6.491   1.212   9.868 -0.0722  0.7727  0.2091
  190POPC   H6R21905   6.544   1.299   9.912  1.7119 -0.3332  0.3509
  190POPC   H6S21906   6.415   1.261   9.803 -1.4612 -3.0979 -1.3808
  190POPC   C2721907   6.577   1.132   9.777 -0.8597  0.1710  0.7171
  190POPC   H7R21908   6.519   1.047   9.736 -1.0326  1.1428 -1.1470
  190POPC   H7S21909   6.677   1.097   9.811  1.2587  3.5078 -1.4922
  190POPC   C2821910   6.612   1.210   9.649 -0.0384 -0.1970  0.7852
  190POPC   H8R21911   6.647   1.311   9.680 -1.6470  0.5214  0.3745
  190POPC   H8S21912   6.517   1.229   9.594  0.7388 -1.2442 -1.0023
  190POPC   C2921913   6.724   1.151   9.563 -0.8477 -0.3812  0.1210
  190POPC   H9121914   6.809   1.104   9.613 -0.9099 -1.7276 -0.9809
  190POPC  C21021915   6.731   1.145   9.430 -0.0478 -0.2313 -0.0181
  190POPC  H10121916   6.821   1.101   9.384  0.6992 -0.9112  2.0008
  190POPC  C21121917   6.627   1.208   9.336  0.0114 -0.0322 -0.4443
  190POPC  H11R21918   6.665   1.298   9.282  1.5302 -0.2606  0.1935
  190POPC  H11S21919   6.544   1.257   9.390  0.9423  0.8457  0.2077
  190POPC  C21221920   6.578   1.110   9.231 -0.0450  0.9705  0.5136
  190POPC  H12R21921   6.499   1.164   9.175  2.1011  1.7687 -1.9624
  190POPC  H12S21922   6.533   1.019   9.275 -0.2018  1.1253  0.6750
  190POPC  C21321923   6.696   1.072   9.123  0.1120 -0.2363  0.1638
  190POPC  H13R21924   6.765   0.992   9.158 -1.4333 -2.0219 -0.7102
  190POPC  H13S21925   6.759   1.163   9.110  0.1609 -0.0473  1.5188
  190POPC  C21421926   6.642   1.040   8.988  0.4645  0.1611  0.8436
  190POPC  H14R21927   6.570   1.120   8.959  0.1094 -0.7584 -0.9336
  190POPC  H14S21928   6.582   0.949   9.008 -0.9519  1.4143  2.7013
  190POPC  C21521929   6.746   1.015   8.882  0.3042 -0.2631 -0.3708
  190POPC  H15R21930   6.803   0.922   8.899  4.1909  1.3733 -3.0156
  190POPC  H15S21931   6.813   1.103   8.882  1.6986 -1.2396 -2.9424
  190POPC  C21621932   6.679   1.020   8.735 -0.3222 -0.4668 -0.2480
  190POPC  H16R21933   6.589   0.955   8.737  0.6520 -1.8820  2.9013
  190POPC  H16S21934   6.760   0.971   8.676 -1.4319 -1.8656 -0.6843
  190POPC  C21721935   6.641   1.158   8.688  0.3911  0.4359 -0.8459
  190POPC  H17R21936   6.721   1.230   8.717 -0.2550  1.2377 -1.0179
  190POPC  H17S21937   6.554   1.187   8.750  0.3283 -0.3909 -0.5486
  190POPC  C21821938   6.593   1.167   8.541 -0.1018 -0.1537  0.1393
  190POPC  H18R21939   6.665   1.232   8.488  0.8958 -0.3330  1.2235
  190POPC  H18S21940   6.485   1.192   8.539 -0.3370 -1.1531 -0.3055
  190POPC  H18T21941   6.590   1.069   8.490 -0.2491 -0.1142  0.0739
  190POPC   C3321942   6.047   0.575  10.293  0.2751  0.2048 -0.2649
  190POPC   H3X21943   6.019   0.525  10.389  1.6386  1.5911  0.9154
  190POPC   H3Y21944   6.157   0.591  10.297  0.2513  0.3670 -0.2596
  190POPC   C3421945   6.009   0.498  10.164  0.4960  0.3579  0.1211
  190POPC   H4X21946   5.904   0.477  10.190  0.5075  0.4283  0.2296
  190POPC   H4Y21947   6.062   0.400  10.164  0.8105  0.5223 -0.3742
  190POPC   C3521948   6.041   0.564  10.034 -0.4077  0.2588  0.4464
  190POPC   H5X21949   6.140   0.613  10.022  0.3151 -1.6888 -2.8449
  190POPC   H5Y21950   5.960   0.640  10.025 -1.7626 -1.2600 -0.9534
  190POPC   C3621951   6.037   0.464   9.913 -0.0555 -0.0047 -0.5196
  190POPC   H6X21952   5.949   0.396   9.907 -0.4718  0.4694  0.1124
  190POPC   H6Y21953   6.122   0.393   9.924 -1.7369 -1.9201  1.3564
  190POPC   C3721954   6.053   0.539   9.775 -0.3321 -0.4361 -0.6584
  190POPC   H7X21955   6.141   0.608   9.772 -1.6297  1.3568  0.3617
  190POPC   H7Y21956   5.963   0.604   9.765 -2.5113 -3.2061 -0.0745
  190POPC   C3821957   6.062   0.443   9.652  0.3152 -0.2070  0.8796
  190POPC   H8X21958   5.972   0.379   9.665  0.0263  0.4572  2.2884
  190POPC   H8Y21959   6.153   0.380   9.654 -0.1519 -0.9107  0.3087
  190POPC   C3921960   6.072   0.512   9.518  0.1507 -0.5976 -0.3186
  190POPC   H9X21961   6.154   0.587   9.516 -0.3724  0.1031  1.9279
  190POPC   H9Y21962   5.975   0.559   9.489  0.3987 -0.6651 -1.2873
  190POPC  C31021963   6.107   0.408   9.407 -0.3890 -0.2835  0.0785
  190POPC  H10X21964   6.018   0.345   9.390 -1.2816  1.0454 -0.3210
  190POPC  H10Y21965   6.189   0.339   9.436  0.5128  0.9867  0.6470
  190POPC  C31121966   6.151   0.477   9.278  0.5063  0.0929  0.2964
  190POPC  H11X21967   6.216   0.566   9.290 -1.5021  1.7500 -0.6154
  190POPC  H11Y21968   6.063   0.521   9.226  0.3190  0.6255  1.0504
  190POPC  C31221969   6.225   0.380   9.187  1.0554  0.0582 -0.2085
  190POPC  H12X21970   6.168   0.285   9.192  0.3938  0.3990 -0.9852
  190POPC  H12Y21971   6.326   0.360   9.228  1.2108 -0.7056 -0.9397
  190POPC  C31321972   6.250   0.423   9.041 -0.0498 -0.1739 -0.7615
  190POPC  H13X21973   6.322   0.508   9.040 -1.2831  0.9772  1.2551
  190POPC  H13Y21974   6.153   0.455   8.999 -1.0905  0.9785  2.2539
  190POPC  C31421975   6.308   0.309   8.957 -0.1560 -0.3739  0.3398
  190POPC  H14X21976   6.234   0.226   8.960  0.7727 -1.2382 -0.0782
  190POPC  H14Y21977   6.407   0.296   9.006 -0.0357 -0.3112  0.1136
  190POPC  C31521978   6.319   0.359   8.809  0.6630 -0.2545 -0.7118
  190POPC  H15X21979   6.398   0.438   8.804  0.3467  0.2121  1.0384
  190POPC  H15Y21980   6.225   0.403   8.772  0.0595  0.2940  1.3423
  190POPC  C31621981   6.358   0.259   8.702  0.2000 -0.1542 -0.4940
  190POPC  H16X21982   6.467   0.239   8.714 -0.1357 -2.5035 -0.7690
  190POPC  H16Y21983   6.336   0.301   8.602  3.3916  0.7163 -0.9547
  190POPC  H16Z21984   6.303   0.164   8.721  1.0656 -0.6067 -0.2074
  191POPC     N21985   1.261   3.493   6.048 -0.5609  0.3003  0.6332
  191POPC   C1221986   1.342   3.429   6.159  0.3462 -0.4395  0.7690
  191POPC  H12A21987   1.421   3.496   6.190  0.1537  0.0750  0.1665
  191POPC  H12B21988   1.386   3.339   6.118 -2.2029 -0.4635 -2.2633
  191POPC   C1321989   1.209   3.621   6.093  0.1347 -0.6442  0.9967
  191POPC  H13A21990   1.130   3.606   6.165 -0.0765  1.2866  1.2175
  191POPC  H13B21991   1.287   3.687   6.126 -1.0047  0.6794  1.1148
  191POPC  H13C21992   1.161   3.672   6.011 -1.6983 -2.9435  0.5090
  191POPC   C1421993   1.348   3.516   5.920  0.5581  0.1811 -0.6234
  191POPC  H14A21994   1.286   3.504   5.833 -0.9606  0.8730  0.3003
  191POPC  H14B21995   1.386   3.617   5.923 -0.8466  0.7428 -0.9430
  191POPC  H14C21996   1.436   3.455   5.920  2.0806  2.2775  0.0079
  191POPC   C1521997   1.146   3.406   6.002 -0.3948 -0.2073 -0.7007
  191POPC  H15A21998   1.098   3.385   6.096 -1.7114 -0.8656 -1.4922
  191POPC  H15B21999   1.178   3.326   5.936 -1.4327 -1.2966  0.0726
  191POPC  H15C22000   1.078   3.468   5.945  1.7499  2.3327 -0.6753
  191POPC   C1122001   1.260   3.389   6.281  0.4935 -0.3804 -0.1775
  191POPC  H11A22002   1.238   3.477   6.346 -1.7346 -1.6733  0.9228
  191POPC  H11B22003   1.333   3.334   6.344  0.2934 -1.3452 -0.7770
  191POPC     P22004   1.133   3.150   6.275 -0.5693 -0.1343 -0.3519
  191POPC   O1322005   1.238   3.085   6.189 -0.1630 -0.7363 -0.1601
  191POPC   O1422006   0.996   3.101   6.257 -0.2137 -0.4016  0.1369
  191POPC   O1222007   1.137   3.308   6.259 -0.8052 -0.4920 -0.0209
  191POPC   O1122008   1.193   3.124   6.417  0.5981  0.3278 -0.3512
  191POPC    C122009   1.140   3.199   6.520 -0.2371 -0.2842 -0.6992
  191POPC    HA22010   1.030   3.181   6.523 -0.4123  0.1898 -2.7966
  191POPC    HB22011   1.160   3.307   6.503  0.1028 -0.3677 -0.8300
  191POPC    C222012   1.203   3.176   6.659 -0.8056 -0.7670 -0.4867
  191POPC    HS22013   1.307   3.214   6.651 -1.6177  1.5744 -0.4345
  191POPC   O2122014   1.200   3.041   6.702  0.5195 -0.1909 -0.2449
  191POPC   C2122015   1.304   3.006   6.777 -0.6584 -0.4746 -0.2978
  191POPC   O2222016   1.410   3.065   6.788 -0.1855  0.0232  0.0118
  191POPC   C2222017   1.263   2.880   6.856  1.0304 -0.3394 -0.8163
  191POPC   H2R22018   1.347   2.807   6.861  0.0089 -1.4596  1.2176
  191POPC   H2S22019   1.174   2.836   6.808 -0.6669  3.1240 -1.1556
  191POPC    C322020   1.119   3.262   6.765  0.3709  0.1110  0.2194
  191POPC    HX22021   1.016   3.223   6.778  0.4354  0.1347  0.8365
  191POPC    HY22022   1.101   3.364   6.722 -1.9924 -0.9839 -1.6209
  191POPC   O3122023   1.185   3.252   6.893  0.2031  0.2689  0.3685
  191POPC   C3122024   1.280   3.335   6.916  0.2152 -0.3332 -0.5454
  191POPC   O3222025   1.313   3.432   6.849 -0.1983 -0.0908  0.1557
  191POPC   C3222026   1.350   3.292   7.046 -0.8492 -0.2189 -0.3201
  191POPC   H2X22027   1.371   3.183   7.046  1.2102  0.0934 -2.6753
  191POPC   H2Y22028   1.277   3.322   7.123  0.6929  1.8575  0.4084
  191POPC   C2322029   1.210   2.916   7.000 -0.4302  0.7710 -0.0112
  191POPC   H3R22030   1.280   2.983   7.052  2.3105 -1.5326 -0.5024
  191POPC   H3S22031   1.215   2.822   7.059 -1.9871 -0.7090 -2.0518
  191POPC   C2422032   1.061   2.966   7.009  0.2460 -0.3381 -0.3736
  191POPC   H4R22033   0.999   2.874   7.015  1.3362 -0.9831  2.5202
  191POPC   H4S22034   1.040   3.020   6.914 -0.1356 -2.0850 -1.3332
  191POPC   C2522035   1.035   3.054   7.136 -0.1826  0.1140  0.2957
  191POPC   H5R22036   0.926   3.076   7.146  0.1207  1.3006  1.3301
  191POPC   H5S22037   1.076   3.156   7.120 -1.5955  0.5562 -0.7675
  191POPC   C2622038   1.080   2.985   7.267 -0.2064 -0.6243  0.2149
  191POPC   H6R22039   1.189   2.968   7.260  0.1274  0.8392  1.5614
  191POPC   H6S22040   1.028   2.887   7.273 -0.9921 -0.4222 -2.1899
  191POPC   C2722041   1.049   3.073   7.393  0.2064  0.5155  0.4577
  191POPC   H7R22042   1.087   3.022   7.484  1.2969  0.3844 -0.0524
  191POPC   H7S22043   0.938   3.076   7.397 -0.0097  0.3318 -2.7542
  191POPC   C2822044   1.112   3.208   7.386 -0.2824 -0.2036 -1.2266
  191POPC   H8R22045   1.067   3.261   7.299 -0.9968  1.9115  0.3543
  191POPC   H8S22046   1.222   3.216   7.373 -0.4132  1.2577 -1.6069
  191POPC   C2922047   1.060   3.270   7.512  0.2277  0.8244  0.1212
  191POPC   H9122048   0.982   3.210   7.561 -0.3480  0.5018 -1.1355
  191POPC  C21022049   1.102   3.379   7.577  0.6360 -0.1758 -1.6579
  191POPC  H10122050   1.050   3.403   7.671  0.8886 -2.2721 -0.9133
  191POPC  C21122051   1.216   3.471   7.541  0.2215  1.1052  0.1577
  191POPC  H11R22052   1.193   3.577   7.514  1.7008  1.4216  0.0191
  191POPC  H11S22053   1.255   3.428   7.447 -1.4470 -0.8400  0.2822
  191POPC  C21222054   1.336   3.447   7.636  0.0357 -0.1469  0.6437
  191POPC  H12R22055   1.418   3.517   7.609 -1.3309  0.5583 -2.0987
  191POPC  H12S22056   1.375   3.345   7.618 -0.8056 -0.0430 -2.3386
  191POPC  C21322057   1.301   3.477   7.779 -0.2519  0.3837  0.3197
  191POPC  H13R22058   1.219   3.407   7.805 -1.5373  1.6972 -0.0607
  191POPC  H13S22059   1.261   3.580   7.790 -1.2686  0.0030  0.2433
  191POPC  C21422060   1.431   3.460   7.869  0.1665  0.3823 -0.3236
  191POPC  H14R22061   1.414   3.534   7.950  2.3815 -0.1166  0.6602
  191POPC  H14S22062   1.517   3.502   7.814 -1.5607  2.4146 -1.6570
  191POPC  C21522063   1.455   3.331   7.942  0.4283  0.3271  0.0457
  191POPC  H15R22064   1.508   3.267   7.868  0.7915  1.4451 -0.6831
  191POPC  H15S22065   1.354   3.297   7.972 -0.9782  1.8453 -2.6464
  191POPC  C21622066   1.556   3.333   8.055 -0.4866 -0.1642  0.1204
  191POPC  H16R22067   1.520   3.397   8.138 -3.3615  0.0204 -1.1386
  191POPC  H16S22068   1.658   3.368   8.027 -0.1110 -0.9600  0.4615
  191POPC  C21722069   1.601   3.189   8.104  0.6238  0.1154  0.0193
  191POPC  H17R22070   1.565   3.113   8.031 -0.2208  0.7786 -0.2779
  191POPC  H17S22071   1.558   3.169   8.204 -1.1223 -3.5673 -1.2802
  191POPC  C21822072   1.747   3.174   8.105 -0.0026  0.6064 -0.1279
  191POPC  H18R22073   1.766   3.088   8.173 -0.1519  0.6036 -0.0904
  191POPC  H18S22074   1.795   3.269   8.138 -0.6966  1.0467 -0.3733
  191POPC  H18T22075   1.784   3.144   8.005  0.3755  0.6206  0.0043
  191POPC   C3322076   1.475   3.363   7.089 -0.2409 -0.7210  0.3813
  191POPC   H3X22077   1.468   3.470   7.061  2.2458 -0.2818  1.1839
  191POPC   H3Y22078   1.563   3.323   7.035 -0.4668  1.1522 -1.4612
  191POPC   C3422079   1.507   3.350   7.242  0.4539 -0.6090  1.1430
  191POPC   H4X22080   1.478   3.247   7.272 -0.2885 -0.9420 -0.5588
  191POPC   H4Y22081   1.435   3.419   7.291 -1.0316 -1.2268 -0.0682
  191POPC   C3522082   1.650   3.363   7.282  0.4978  0.6271 -0.2010
  191POPC   H5X22083   1.675   3.468   7.254  0.1877  0.6889 -0.2453
  191POPC   H5Y22084   1.714   3.289   7.229  0.7092  0.9335 -0.3768
  191POPC   C3622085   1.657   3.354   7.439  0.1429 -0.2842  0.2846
  191POPC   H6X22086   1.612   3.258   7.473 -1.7808  0.3872 -0.1994
  191POPC   H6Y22087   1.607   3.429   7.504 -1.8425  0.3906 -1.8823
  191POPC   C3722088   1.807   3.358   7.481 -0.0701 -0.4084 -1.0590
  191POPC   H7X22089   1.839   3.464   7.470 -0.9046  0.2885  2.2393
  191POPC   H7Y22090   1.879   3.292   7.428  1.2936  1.1845 -1.2872
  191POPC   C3822091   1.826   3.321   7.634 -0.2091  0.0122  0.6543
  191POPC   H8X22092   1.785   3.218   7.641  0.3120 -0.4631 -2.0064
  191POPC   H8Y22093   1.764   3.388   7.697 -1.4067 -0.9249  0.4898
  191POPC   C3922094   1.974   3.331   7.677  1.0355  0.2182 -0.1006
  191POPC   H9X22095   2.003   3.436   7.652 -1.8531  1.2415  0.4383
  191POPC   H9Y22096   2.033   3.266   7.609 -1.4157 -0.7082 -1.4743
  191POPC  C31022097   1.990   3.298   7.824 -0.1838 -0.1942 -0.9289
  191POPC  H10X22098   2.009   3.188   7.827  0.7746 -0.0050  0.6175
  191POPC  H10Y22099   1.894   3.324   7.875  0.1270 -4.5765  2.4766
  191POPC  C31122100   2.100   3.370   7.914  0.0320  0.0390 -0.3738
  191POPC  H11X22101   2.084   3.479   7.901 -2.0219 -0.3805 -2.0858
  191POPC  H11Y22102   2.202   3.341   7.881  0.5043  0.7050  0.4581
  191POPC  C31222103   2.077   3.339   8.067 -0.4667 -0.5609  0.5199
  191POPC  H12X22104   2.048   3.233   8.085 -0.1029 -0.6930  0.3272
  191POPC  H12Y22105   1.982   3.391   8.092  0.6016  1.3360  0.8037
  191POPC  C31322106   2.201   3.398   8.144  0.3539  0.2682 -0.4827
  191POPC  H13X22107   2.218   3.505   8.120  0.3133  0.0788 -1.3923
  191POPC  H13Y22108   2.286   3.339   8.104  0.1356  0.6786 -1.6051
  191POPC  C31422109   2.184   3.361   8.287 -0.1968  0.2300 -0.4596
  191POPC  H14X22110   2.161   3.253   8.292 -0.0442  0.2448  2.0433
  191POPC  H14Y22111   2.096   3.421   8.320 -0.5033 -0.5768  0.2196
  191POPC  C31522112   2.307   3.387   8.376 -0.7437 -0.5000 -0.4411
  191POPC  H15X22113   2.355   3.487   8.375  2.0413 -1.6963  1.3663
  191POPC  H15Y22114   2.378   3.322   8.321 -0.2592  2.3329 -3.4642
  191POPC  C31622115   2.283   3.350   8.519 -0.0650 -0.3946  0.0305
  191POPC  H16X22116   2.193   3.399   8.562 -1.2260 -2.8599  0.5304
  191POPC  H16Y22117   2.375   3.369   8.579  0.7307 -2.1015 -0.6088
  191POPC  H16Z22118   2.269   3.241   8.530 -2.6232  0.0549  2.1426
  192POPC     N22119   6.405   5.441   6.137  0.2239  0.5643  0.3003
  192POPC   C1222120   6.476   5.571   6.141  0.1111 -0.1496  0.7764
  192POPC  H12A22121   6.468   5.608   6.242 -1.1078 -2.4179  1.5870
  192POPC  H12B22122   6.423   5.643   6.080  0.8917 -0.1556  0.0775
  192POPC   C1322123   6.430   5.381   6.002  0.9095  0.1310  0.3372
  192POPC  H13A22124   6.350   5.315   5.971 -0.4847  2.3846 -1.2023
  192POPC  H13B22125   6.424   5.456   5.924 -0.9149  0.8943  1.1396
  192POPC  H13C22126   6.527   5.336   5.995  0.6450 -0.1675 -2.2968
  192POPC   C1422127   6.451   5.345   6.243 -0.5654 -0.0691  0.0486
  192POPC  H14A22128   6.411   5.366   6.341 -0.1031 -0.0127  0.2232
  192POPC  H14B22129   6.420   5.243   6.225 -0.2747 -0.1965  0.2854
  192POPC  H14C22130   6.555   5.369   6.258 -1.2880  1.8767  2.6201
  192POPC   C1522131   6.256   5.471   6.153  0.2113  0.0222  0.4491
  192POPC  H15A22132   6.205   5.377   6.138  0.6226  0.1746 -2.4894
  192POPC  H15B22133   6.209   5.530   6.076 -0.9645 -1.5138 -0.0807
  192POPC  H15C22134   6.226   5.498   6.253  3.5773  1.2102  1.2428
  192POPC   C1122135   6.627   5.568   6.097  0.5601 -0.2723 -0.5231
  192POPC  H11A22136   6.664   5.671   6.077 -1.2539  0.7832  1.1905
  192POPC  H11B22137   6.634   5.521   5.996 -0.0310  2.1165 -1.7594
  192POPC     P22138   6.848   5.453   6.176  0.1452  0.3218 -0.3902
  192POPC   O1322139   6.923   5.569   6.123  0.4372  0.6444 -0.3668
  192POPC   O1422140   6.841   5.334   6.088  0.0449  0.0596 -1.1729
  192POPC   O1222141   6.697   5.506   6.203  0.2762  0.3919  0.0215
  192POPC   O1122142   6.900   5.424   6.322 -0.5358 -0.5612  0.3937
  192POPC    C122143   7.044   5.401   6.325 -0.4047  0.2218  0.4403
  192POPC    HA22144   7.109   5.479   6.279  0.9479  0.0828  2.0216
  192POPC    HB22145   7.079   5.307   6.278 -3.6490  0.2010 -2.3211
  192POPC    C222146   7.093   5.401   6.471 -0.3831 -0.0458 -0.2380
  192POPC    HS22147   7.199   5.370   6.463 -0.9812 -2.8439  1.4816
  192POPC   O2122148   7.012   5.310   6.546 -0.6537 -0.1340  0.0430
  192POPC   C2122149   7.066   5.198   6.559 -0.0641  0.7692 -0.0683
  192POPC   O2222150   7.166   5.150   6.496 -0.2216 -0.6185 -0.5300
  192POPC   C2222151   6.982   5.113   6.663 -0.5846 -0.7447  0.4676
  192POPC   H2R22152   6.896   5.071   6.607 -0.8117 -0.5037  0.6294
  192POPC   H2S22153   6.956   5.186   6.743  1.0170  3.6035 -2.6004
  192POPC    C322154   7.088   5.541   6.539 -0.1074  0.1522  0.2452
  192POPC    HX22155   6.980   5.563   6.555  0.3076  1.2076  1.9273
  192POPC    HY22156   7.127   5.616   6.466  1.9709  0.1273  1.2585
  192POPC   O3122157   7.163   5.541   6.661  0.1518 -0.9343  0.0387
  192POPC   C3122158   7.296   5.545   6.650  0.4087 -0.7452 -0.2241
  192POPC   O3222159   7.360   5.542   6.546  0.0180 -0.3668  0.1082
  192POPC   C3222160   7.360   5.547   6.788  0.2119 -0.0844  0.3197
  192POPC   H2X22161   7.465   5.573   6.762  0.4945 -0.9639  0.5622
  192POPC   H2Y22162   7.365   5.447   6.836  1.2231 -0.4150 -0.4348
  192POPC   C2322163   7.057   5.003   6.736 -0.6243 -0.1962 -0.3584
  192POPC   H3R22164   7.092   4.927   6.663  2.1337  0.5241  0.0703
  192POPC   H3S22165   6.984   4.964   6.810 -0.6877  2.9797  1.4561
  192POPC   C2422166   7.184   5.040   6.817 -0.0108 -0.2646 -0.5089
  192POPC   H4R22167   7.252   5.090   6.744 -0.9470  1.6323 -0.1374
  192POPC   H4S22168   7.241   4.955   6.860  2.3462  1.2637 -0.4106
  192POPC   C2522169   7.166   5.146   6.934  0.5783 -0.5472  0.3572
  192POPC   H5R22170   7.094   5.109   7.011 -0.5317  0.6681 -0.0502
  192POPC   H5S22171   7.103   5.231   6.901 -1.4124 -1.9541  0.2996
  192POPC   C2622172   7.292   5.191   7.008  0.4599  0.1506 -0.6419
  192POPC   H6R22173   7.370   5.221   6.934  0.4432  2.8019  0.3091
  192POPC   H6S22174   7.317   5.097   7.062 -1.0450 -0.8611 -1.6318
  192POPC   C2722175   7.262   5.307   7.106  0.2360 -0.0425 -0.0939
  192POPC   H7R22176   7.154   5.308   7.135 -0.1659  2.0506 -1.3697
  192POPC   H7S22177   7.262   5.407   7.057  0.6845  0.9459  1.8361
  192POPC   C2822178   7.353   5.298   7.224 -1.0915  0.2769 -0.5629
  192POPC   H8R22179   7.363   5.397   7.274  0.3798  0.4102 -1.0710
  192POPC   H8S22180   7.460   5.279   7.200 -0.4303  0.9419  1.5588
  192POPC   C2922181   7.320   5.195   7.330  0.4387  0.0214 -0.0383
  192POPC   H9122182   7.315   5.090   7.299  0.9442  0.6402 -2.4073
  192POPC  C21022183   7.298   5.227   7.462 -0.5028  0.3867  0.0198
  192POPC  H10122184   7.275   5.139   7.523  1.3236 -1.6714 -2.0629
  192POPC  C21122185   7.318   5.365   7.521  0.3197 -0.0435 -0.4927
  192POPC  H11R22186   7.262   5.441   7.462  0.3066 -0.1621 -0.6353
  192POPC  H11S22187   7.425   5.395   7.521  0.9299 -2.0268  1.1068
  192POPC  C21222188   7.263   5.377   7.673  0.2160  0.0631  0.4851
  192POPC  H12R22189   7.162   5.331   7.666 -0.1495  1.0173 -0.7343
  192POPC  H12S22190   7.241   5.476   7.718 -0.3769 -1.0616  2.8421
  192POPC  C21322191   7.340   5.291   7.772 -0.2856 -0.3677  0.3161
  192POPC  H13R22192   7.442   5.329   7.795 -0.2334 -1.0561  1.3096
  192POPC  H13S22193   7.347   5.191   7.725  0.4161  0.7334 -2.0561
  192POPC  C21422194   7.261   5.275   7.911  0.6803  0.7174 -0.0683
  192POPC  H14R22195   7.156   5.248   7.890  0.7859  0.2813 -0.0301
  192POPC  H14S22196   7.252   5.365   7.976 -0.3173  0.9735 -0.5571
  192POPC  C21522197   7.318   5.169   7.992  0.6637  0.2989 -0.3232
  192POPC  H15R22198   7.406   5.197   8.055  0.9108 -2.2044  0.5625
  192POPC  H15S22199   7.340   5.080   7.928 -1.2753 -1.4121  1.2742
  192POPC  C21622200   7.222   5.125   8.104  0.2894 -0.1341  0.0100
  192POPC  H16R22201   7.126   5.103   8.052  0.2882  2.7192 -1.3838
  192POPC  H16S22202   7.208   5.215   8.168 -0.5093  0.0267 -0.3791
  192POPC  C21722203   7.267   5.007   8.193  0.0430 -0.3449 -0.3625
  192POPC  H17R22204   7.368   5.038   8.228  0.3442 -1.3653 -0.3065
  192POPC  H17S22205   7.298   4.921   8.131  0.4521 -1.3709  1.1973
  192POPC  C21822206   7.177   4.954   8.304 -0.6028  0.5030 -0.6018
  192POPC  H18R22207   7.153   5.039   8.373 -0.9058 -0.1073  0.0584
  192POPC  H18S22208   7.224   4.880   8.373 -1.6286 -0.6412 -1.0979
  192POPC  H18T22209   7.080   4.923   8.261  0.1252 -0.4248 -1.6208
  192POPC   C3322210   7.298   5.653   6.877 -0.5538 -0.4830 -0.3639
  192POPC   H3X22211   7.363   5.649   6.967 -1.0126 -2.6219 -0.0718
  192POPC   H3Y22212   7.193   5.621   6.892 -0.4199 -1.5675 -1.4747
  192POPC   C3422213   7.299   5.788   6.824 -0.2047 -0.9320  0.3771
  192POPC   H4X22214   7.214   5.792   6.752  1.4603 -0.1479 -1.6302
  192POPC   H4Y22215   7.398   5.804   6.777 -0.5971  0.3063 -0.0656
  192POPC   C3522216   7.272   5.886   6.936  0.5430 -0.1848  0.0822
  192POPC   H5X22217   7.280   5.981   6.879  0.8978 -0.2259  0.0631
  192POPC   H5Y22218   7.343   5.877   7.021 -0.4788 -2.3733  0.7676
  192POPC   C3622219   7.128   5.886   6.990 -0.7927  0.0711 -0.4305
  192POPC   H6X22220   7.104   5.789   7.040  0.0837 -0.9808 -1.9522
  192POPC   H6Y22221   7.055   5.906   6.909  1.4340  0.1352 -2.5465
  192POPC   C3722222   7.120   5.999   7.090 -0.7251 -0.0327  0.2575
  192POPC   H7X22223   7.162   6.092   7.045  0.5934  0.4049  2.2575
  192POPC   H7Y22224   7.190   5.979   7.174 -1.2753  0.9300  0.9659
  192POPC   C3822225   6.976   6.024   7.143 -0.1283  0.0645  0.0307
  192POPC   H8X22226   6.948   5.936   7.206 -1.3403 -0.0324 -0.6154
  192POPC   H8Y22227   6.910   6.039   7.055  0.1339  0.3288 -0.1223
  192POPC   C3922228   6.963   6.137   7.240  0.2925  0.4323  0.4344
  192POPC   H9X22229   6.856   6.167   7.248  0.0344  0.6314 -2.6488
  192POPC   H9Y22230   7.009   6.229   7.198  0.5060  0.9522  1.7325
  192POPC  C31022231   7.034   6.119   7.372 -0.0583  0.3278 -0.1370
  192POPC  H10X22232   7.145   6.128   7.376 -0.1056  2.1836 -1.5946
  192POPC  H10Y22233   7.009   6.019   7.412 -2.6002  0.8468 -0.2911
  192POPC  C31122234   6.978   6.216   7.474  0.0487  0.6551 -0.7331
  192POPC  H11X22235   6.868   6.203   7.473  0.0971 -0.2287  1.1491
  192POPC  H11Y22236   6.991   6.326   7.460 -0.7335  0.9224  0.4897
  192POPC  C31222237   7.012   6.183   7.626  0.5784  0.4237  0.4783
  192POPC  H12X22238   7.121   6.204   7.636  0.7592  0.0602 -0.6045
  192POPC  H12Y22239   6.993   6.075   7.642 -3.1886  0.5725 -1.7883
  192POPC  C31322240   6.950   6.261   7.740  0.3978  0.5319  0.3121
  192POPC  H13X22241   6.904   6.353   7.698  0.4591  0.4829  0.1366
  192POPC  H13Y22242   7.024   6.297   7.814 -0.1270  2.2397  0.0469
  192POPC  C31422243   6.831   6.187   7.811 -0.1513 -0.0210  0.2962
  192POPC  H14X22244   6.765   6.130   7.742 -0.7973  2.6299 -1.4194
  192POPC  H14Y22245   6.770   6.254   7.874  2.4806  0.7285  2.2070
  192POPC  C31522246   6.889   6.081   7.911  0.4476  0.8073  0.4431
  192POPC  H15X22247   6.969   6.019   7.865  0.9129  0.4781  1.6397
  192POPC  H15Y22248   6.802   6.017   7.938 -0.3509  0.6585 -2.1917
  192POPC  C31622249   6.948   6.134   8.040  0.0719 -0.6424 -0.8065
  192POPC  H16X22250   6.976   6.055   8.112  0.9784 -0.4606 -0.9450
  192POPC  H16Y22251   6.862   6.187   8.085 -0.0079 -1.8758  0.5697
  192POPC  H16Z22252   7.033   6.204   8.023 -0.3120  0.1405  0.3492
  193SOD    SOD22253   6.127   3.215   5.725  0.0547  0.2800 -0.3692
  194SOD    SOD22254   0.690   3.880  12.744  0.1715  0.2468  0.0798
  195SOD    SOD22255   0.543   1.406  16.992  0.3636 -0.3770 -0.3637
  196SOD    SOD22256   0.152   1.216   5.326  0.5396  0.1401 -0.3120
  197SOD    SOD22257   2.531   2.848   1.953 -0.3787 -0.9321  0.2251
  198SOD    SOD22258   1.877   6.568   2.762 -0.0195  0.1671  0.7740
  199SOD    SOD22259   6.703   0.567  10.541 -0.1626 -0.2584  0.0991
  200SOD    SOD22260   3.083   5.274  14.798  0.4488 -0.4324 -0.3162
  201SOD    SOD22261   5.156   5.921   5.078  0.1485  0.0073  0.1407
  202SOD    SOD22262   6.502   4.743  14.610  0.6911 -0.3276 -0.0795
  203SOD    SOD22263   1.786   3.277   2.750 -0.0068 -0.1405 -0.2255
  204SOD    SOD22264   4.623   0.447   0.567 -0.2453  0.0334  0.2525
  205SOD    SOD22265   4.773   2.007  11.469 -0.1889  0.5119  0.0388
  206SOD    SOD22266   1.555   4.810   5.310 -0.1975 -0.4935 -0.0614
  207SOD    SOD22267   1.981   4.170  10.839  0.4635 -0.1246  0.0034
  208SOD    SOD22268   3.788   1.770   2.792 -0.2709 -0.0520 -0.0123
  209SOD    SOD22269   1.626   3.105   6.051 -0.6886 -0.4643 -0.1393
  210SOD    SOD22270   1.660   5.813  11.973 -0.0829  0.0995 -0.2538
  211SOD    SOD22271   4.015   3.675  16.532 -0.4438 -0.2685  0.0977
  212SOD    SOD22272   4.996   1.872   1.604  0.0632  0.4868 -0.0483
  213SOD    SOD22273   4.469   4.296  11.200  0.2729 -0.0419  0.3726
  214SOD    SOD22274   1.258   0.169  16.226  0.2324  0.1622  0.4188
  215SOD    SOD22275   1.889   2.276  16.984  0.1970 -0.3388 -0.0266
  216SOD    SOD22276   6.722   2.412  15.746 -0.3319 -0.3489  0.7319
  217SOD    SOD22277   5.634   3.040   5.241  0.2233 -0.4418 -0.5109
  218SOD    SOD22278   3.174   1.190   5.308  0.0083  0.5309  0.2877
  219SOD    SOD22279   4.528   6.104   5.607 -0.2028  0.0440  0.4408
  220SOD    SOD22280   1.604   3.369   4.543 -0.3114  0.2682 -0.1848
  221SOD    SOD22281   3.873   6.108   1.820  0.0430 -0.2030  0.2720
  222SOD    SOD22282   6.004   0.201   4.758 -0.4967 -0.3573  0.4563
  223SOD    SOD22283   5.259   4.790  16.845  0.2211 -0.1987 -0.3465
  224SOD    SOD22284   2.688   2.282   6.112  0.4177 -0.3334  0.1072
  225SOD    SOD22285   3.288   2.103   0.069 -0.1104 -0.0065 -0.0411
  226SOD    SOD22286   5.432   3.768   6.238 -0.1475 -0.1058 -0.1417
  227SOD    SOD22287   0.866   3.020  17.040  0.1735  0.2491  0.6041
  228SOD    SOD22288   4.928   5.763   1.253 -0.2771 -0.1863 -0.1921
  229SOD    SOD22289   4.849   5.309  10.517 -0.1158 -0.2011  0.3062
  230SOD    SOD22290   1.563   5.329   0.973 -0.4385 -0.5031  0.3285
  231SOD    SOD22291   3.431   2.524   2.137 -0.0481 -0.3371  0.2705
  232SOD    SOD22292   0.953   6.542   5.820  0.3102 -0.0595  0.1666
  233SOD    SOD22293   3.770   2.880   4.500 -0.0896 -0.0989  0.0065
  234SOD    SOD22294   2.339   0.535  11.848 -0.3428  0.2486 -0.0134
  235SOD    SOD22295   3.768   1.146   6.428  0.2474  0.1521  0.2644
  236SOD    SOD22296   1.957   0.172  15.479 -0.6686 -0.5346 -0.3809
  237SOD    SOD22297   6.089   0.564  14.457 -0.0509 -0.0910 -0.2201
  238SOD    SOD22298   4.600   1.834  12.804  0.2622 -0.2888  0.1682
  239SOD    SOD22299   4.393   2.131   5.499 -0.5269 -0.0439  0.2129
  240SOD    SOD22300   6.101   4.967  15.709  0.3478 -0.1739  0.2913
  241SOD    SOD22301   2.115   6.529   6.459 -0.1368 -0.2949 -0.0491
  242SOD    SOD22302   2.508   5.592  11.192  0.2075 -0.1905 -0.2074
  243SOD    SOD22303   0.432   0.207   1.947  0.1794  0.1922 -0.0193
  244SOD    SOD22304   0.063   0.527  13.089 -0.2750  0.1279 -0.3458
  245SOD    SOD22305   4.712   2.184   3.117  0.2057 -0.0388  0.3182
  246SOD    SOD22306   4.884   6.239   4.655 -0.2831  0.1562 -0.2343
  247SOD    SOD22307   3.011   6.452   5.769  0.1590  0.0875 -0.2716
  248SOD    SOD22308   2.189   1.072  14.773 -0.5425 -0.1178  0.2602
  249SOD    SOD22309   3.277   4.563   4.041  0.5568  0.0126 -0.0086
  250SOD    SOD22310   0.304   5.037  12.151  0.1464 -0.1125  0.6255
  251SOD    SOD22311   5.249   0.157  10.623 -0.2639  0.7205  0.1113
  252SOD    SOD22312   3.321   6.692   2.088  0.3656  0.2936  0.1544
  253SOD    SOD22313   1.719   1.149   0.379  0.0301 -0.1028  0.1650
  254SOD    SOD22314   0.913   3.003  11.993  0.0727  0.1456 -0.3244
  255SOD    SOD22315   1.389   3.700  11.707 -0.5317  0.2877  0.4368
  256SOD    SOD22316   1.210   4.583  15.405 -0.2114 -0.3058  0.2194
  257SOD    SOD22317   6.719   5.341   0.051  0.2243 -0.0412  0.3091
  258SOD    SOD22318   0.264   5.944  11.766  0.2688  0.0867  0.0087
  259SOD    SOD22319   4.736   0.896   5.791  0.0913  0.3893  0.4005
  260SOD    SOD22320   6.687   0.869  16.860 -0.5368  0.1392  0.3818
  261SOD    SOD22321   1.109   1.902   2.916 -0.1052 -0.1682 -0.4024
  262SOD    SOD22322   4.148   5.358   5.838  0.1204 -0.2036  0.3333
  263SOD    SOD22323   6.594   5.472   1.119 -0.2271 -0.2824  0.4887
  264SOD    SOD22324   0.547   3.348  13.900 -0.1373 -0.0746 -0.1254
  265SOD    SOD22325   2.448   0.911  12.524 -0.0204 -0.5389  0.1080
  266SOD    SOD22326   5.222   4.750   6.068 -0.8528  0.4866 -0.1455
  267SOD    SOD22327   2.012   5.802  13.415 -0.3113  0.0089 -0.2611
  268SOD    SOD22328   0.150   3.283  12.814 -0.2620 -0.4168 -0.2920
  269SOD    SOD22329   3.534   3.864   3.645 -0.2176  0.0066 -0.2857
  270CLA    CLA22330   3.066   2.343  14.079  0.0635 -0.2034 -0.1392
  271CLA    CLA22331   3.739   5.034  12.901  0.1823  0.3956 -0.1457
  272CLA    CLA22332   3.153   6.094  12.385  0.0668 -0.0924 -0.1566
  273CLA    CLA22333   3.259   2.978   3.624 -0.1381 -0.1329 -0.0413
  274CLA    CLA22334   1.726   5.897   1.569 -0.0915  0.2181  0.2293
  275CLA    CLA22335   2.187   1.936  15.286 -0.1333 -0.0337  0.0197
  276CLA    CLA22336   4.343   6.606  11.884 -0.2381 -0.0002 -0.0015
  277CLA    CLA22337   5.413   1.352  14.580  0.4392 -0.3117 -0.1277
  278CLA    CLA22338   2.314   5.735  15.318 -0.0999 -0.3353  0.0075
  279CLA    CLA22339   0.563   0.911  16.784 -0.0986 -0.4407  0.0144
  280CLA    CLA22340   6.170   0.210   0.690 -0.4786 -0.1777  0.2868
  281CLA    CLA22341   6.391   4.254   5.432  0.4435  0.1696 -0.3178
  282CLA    CLA22342   3.455   6.706   0.098  0.0145  0.1880 -0.0687
  283CLA    CLA22343   1.557   1.872   4.290 -0.3304 -0.0631  0.0398
  284CLA    CLA22344   2.977   4.901   5.696 -0.0962 -0.4143  0.0820
  285CLA    CLA22345   0.707   2.439   2.888 -0.4357  0.3585  0.0846
  286CLA    CLA22346   0.153   1.786  15.211  0.4223 -0.2694 -0.1446
  287CLA    CLA22347   1.888   3.018   6.072  0.2117  0.0757 -0.3440
  288CLA    CLA22348   3.652   4.707   4.835  0.6171  0.0036  0.2235
  289CLA    CLA22349   1.124   5.449   2.919  0.2235  0.1522  0.4469
  290CLA    CLA22350   3.259   2.294   0.471  0.0803  0.2644  0.2032
  291CLA    CLA22351   4.418   3.669   3.037  0.0767 -0.0730 -0.0625
  292CLA    CLA22352   2.112   2.160  13.631 -0.1745  0.1750  0.1743
  293CLA    CLA22353   6.153   3.022  15.857 -0.0305 -0.0072 -0.0690
  294CLA    CLA22354   1.223   2.758   0.660 -0.0302 -0.1631 -0.0092
  295CLA    CLA22355   4.932   0.732  12.794 -0.1164 -0.4525  0.0474
  296CLA    CLA22356   1.673   2.694   1.859  0.2461  0.3094 -0.2564
  297CLA    CLA22357   2.690   6.556  12.545  0.4362  0.0633  0.2356
  298CLA    CLA22358   4.688   5.546   4.875  0.2983  0.3917  0.2897
  299CLA    CLA22359   0.544   2.883   0.551  0.2372  0.1010  0.0208
  300CLA    CLA22360   1.992   3.100   3.733 -0.2231  0.7326  0.0591
  301CLA    CLA22361   4.639   5.822  16.727 -0.5152  0.2040 -0.1931
  302CLA    CLA22362   3.557   3.423   3.662  0.1022  0.1052 -0.1087
  303CLA    CLA22363   2.322   4.470   5.539  0.1768  0.3016  0.1553
  304CLA    CLA22364   0.939   6.293   3.673  0.3607 -0.1022 -0.1600
  305CLA    CLA22365   0.206   4.838  16.933  0.1344 -0.4699  0.1344
  306CLA    CLA22366   0.581   0.564  12.359 -0.7664 -0.1635  0.2027
  307CLA    CLA22367   4.372   3.114   2.536  0.2505 -0.1487  0.1253
  308CLA    CLA22368   2.664   2.419  16.804  0.2914  0.0892  0.4315
  309CLA    CLA22369   6.333   1.019   4.799  0.0030  0.0513 -0.1538
  310CLA    CLA22370   6.643   4.280   3.629  0.0389 -0.0671  0.4450
  311CLA    CLA22371   2.861   0.217  16.104  0.6977  0.2350 -0.0825
  312CLA    CLA22372   0.472   1.118  14.227  0.2628  0.3263  0.0875
  313CLA    CLA22373   0.819   1.948  12.731 -0.2355  0.1325 -0.0227
  314CLA    CLA22374   5.627   1.887   1.475 -0.0995 -0.1483 -0.2305
  315CLA    CLA22375   5.484   5.321  15.128  0.3145  0.1409  0.1599
  316CLA    CLA22376   4.685   3.192  15.661  0.2464  0.1493  0.0755
  317CLA    CLA22377   5.833   0.782   1.425 -0.2817 -0.0247  0.0929
  318CLA    CLA22378   3.433   3.630   4.730  0.1533  0.1525  0.2469
  319CLA    CLA22379   1.395   3.737   1.992 -0.2551 -0.0815 -0.3716
  320CLA    CLA22380   5.410   2.317  12.762 -0.1465  0.2039 -0.6950
  321CLA    CLA22381   2.340   0.040  16.649  0.2727  0.2512  0.1895
  322CLA    CLA22382   5.589   4.430   1.794  0.1703 -0.3766 -0.0669
  323TIP3   OH222383   5.716   4.692   0.183 -0.1785 -0.4029 -0.0397
  323TIP3    H122384   5.802   4.655   0.166  0.8764  1.2110  1.4649
  323TIP3    H222385   5.689   4.653   0.267 -0.4507 -0.1447 -0.0052
  324TIP3   OH222386   0.109   3.086  16.382 -0.2374  0.3043  0.3242
  324TIP3    H122387   0.077   3.114  16.468  0.6793 -0.6891  1.0111
  324TIP3    H222388   0.172   3.154  16.357  0.5698 -0.1293  1.1158
  325TIP3   OH222389   6.615   6.427   0.441  0.1964  0.1275 -1.0074
  325TIP3    H122390   6.533   6.476   0.451  0.1243 -0.1235 -0.3183
  325TIP3    H222391   6.646   6.451   0.354  0.6815  2.1840 -0.3329
  326TIP3   OH222392   5.040   5.067  10.825  0.0526 -0.1203 -0.5713
  326TIP3    H122393   5.109   5.013  10.787  0.2098  0.5000 -1.1843
  326TIP3    H222394   5.078   5.098  10.908 -0.2372 -1.3495  0.0511
  327TIP3   OH222395   1.922   1.767  12.111 -0.2016 -0.4531  0.1991
  327TIP3    H122396   1.946   1.830  12.179 -0.0591 -0.2151 -0.0645
  327TIP3    H222397   1.895   1.822  12.037 -0.2376 -0.7046  0.0243
  328TIP3   OH222398   5.619   2.704  12.138  0.5881  0.0602  0.1011
  328TIP3    H122399   5.538   2.688  12.090  0.0614  0.6097  0.7923
  328TIP3    H222400   5.685   2.654  12.090 -0.0532  0.0312 -0.7818
  329TIP3   OH222401   0.239   3.672  15.878 -0.0707  0.7629  0.1138
  329TIP3    H122402   0.263   3.652  15.968  0.6117  1.6053  0.1300
  329TIP3    H222403   0.158   3.622  15.863 -1.1884  1.9860  1.7746
  330TIP3   OH222404   2.960   1.199   5.177  0.2257  0.0374 -0.1145
  330TIP3    H122405   2.915   1.271   5.134 -1.8660 -0.5260  1.0009
  330TIP3    H222406   2.898   1.167   5.243  1.5099 -2.0618  0.1832
  331TIP3   OH222407   4.103   2.694   1.042  0.0420 -0.1508 -0.0353
  331TIP3    H122408   4.010   2.692   1.020 -0.6168 -0.8453  2.5121
  331TIP3    H222409   4.125   2.787   1.046 -0.0155  0.0176 -2.4636
  332TIP3   OH222410   0.444   0.003  16.464 -0.4610  0.1656  0.4835
  332TIP3    H122411   0.445   0.033  16.373  0.2955  2.0079  1.0465
  332TIP3    H222412   0.352  -0.017  16.482 -0.6718  0.1433 -0.5790
  333TIP3   OH222413   4.104   1.241   1.333 -0.1544 -0.4445 -0.0043
  333TIP3    H122414   4.025   1.266   1.286  0.0277 -1.4660 -0.8779
  333TIP3    H222415   4.151   1.323   1.347 -0.5215 -0.0440 -1.0436
  334TIP3   OH222416   5.643   1.464  11.260  0.5618 -0.0615 -0.2607
  334TIP3    H122417   5.596   1.472  11.177  1.5883  0.3443 -0.8262
  334TIP3    H222418   5.718   1.409  11.239  1.3336  0.8002  0.1614
  335TIP3   OH222419   6.313   1.332  15.809 -0.3804  0.7042  0.7346
  335TIP3    H122420   6.269   1.392  15.749  0.8837  2.4919  1.4972
  335TIP3    H222421   6.405   1.337  15.785 -0.3352 -1.9603  0.0205
  336TIP3   OH222422   6.775   0.179  12.154  0.4364  0.0217 -0.4560
  336TIP3    H122423   6.739   0.132  12.229 -0.6561  0.5219 -0.6529
  336TIP3    H222424   6.869   0.186  12.173  0.2054 -0.0206  0.7621
  337TIP3   OH222425   6.575   5.448  14.705  0.3708  0.0436  0.1963
  337TIP3    H122426   6.666   5.443  14.734  0.2357 -1.8427  0.4058
  337TIP3    H222427   6.524   5.439  14.785  0.0095 -0.6608 -0.1062
  338TIP3   OH222428   2.822   6.318  15.186  0.4330  0.3372  0.4499
  338TIP3    H122429   2.832   6.235  15.232 -0.6117  0.5999  1.1938
  338TIP3    H222430   2.793   6.379  15.254 -0.1888  0.9621 -0.3689
  339TIP3   OH222431   3.987   0.770   0.737  0.2623 -0.3984  0.3815
  339TIP3    H122432   4.039   0.848   0.717 -1.0902  0.1279 -1.2995
  339TIP3    H222433   4.030   0.699   0.690  0.8631 -0.4832  1.0324
  340TIP3   OH222434   1.436   3.335  12.481 -0.1788 -0.0848 -0.4814
  340TIP3    H122435   1.457   3.315  12.390 -1.5466 -1.9904 -0.4368
  340TIP3    H222436   1.468   3.425  12.493  0.5206  0.0325 -2.6596
  341TIP3   OH222437   0.511   1.403   4.047  0.3691  0.3763  0.2111
  341TIP3    H122438   0.583   1.467   4.049 -0.9959  2.0678 -0.9609
  341TIP3    H222439   0.468   1.419   3.963 -0.2509 -1.9211  0.0192
  342TIP3   OH222440   4.507   0.256   2.416  0.3912  0.1350  0.2396
  342TIP3    H122441   4.459   0.173   2.419 -0.3267  0.5428  0.3057
  342TIP3    H222442   4.583   0.238   2.362  0.0792 -0.4843 -0.0022
  343TIP3   OH222443   2.511   3.240   3.779 -0.4805  0.1605 -0.4113
  343TIP3    H122444   2.467   3.295   3.714 -1.0160  0.5826  0.3017
  343TIP3    H222445   2.440   3.193   3.823 -0.0951 -0.3849 -0.3635
  344TIP3   OH222446   4.065   1.326   0.041 -0.2874  0.0449 -0.0641
  344TIP3    H122447   4.137   1.378   0.004 -0.2711  0.2398  0.2362
  344TIP3    H222448   4.048   1.259  -0.025  1.0243 -0.7938  0.4237
  345TIP3   OH222449   2.386   2.468   2.036  0.3616 -0.3326  0.1196
  345TIP3    H122450   2.387   2.562   2.057  0.6111 -0.0221 -1.2096
  345TIP3    H222451   2.300   2.453   1.997  0.3922 -0.6231  0.1622
  346TIP3   OH222452   5.473   4.837  16.743  0.0428  0.2880 -0.0701
  346TIP3    H122453   5.558   4.793  16.750 -1.2791 -2.1733  2.4621
  346TIP3    H222454   5.440   4.809  16.658  1.5667  1.0210 -0.9539
  347TIP3   OH222455   5.364   2.059   3.734 -0.2165  0.7019  0.1411
  347TIP3    H122456   5.362   1.966   3.709  1.2306  0.1213  1.9428
  347TIP3    H222457   5.434   2.097   3.681  0.6487  0.2307  0.9091
  348TIP3   OH222458   1.606   0.307  12.957  0.7532  0.4160  0.2512
  348TIP3    H122459   1.608   0.389  12.908 -2.1700  0.7171  0.4454
  348TIP3    H222460   1.527   0.263  12.927  1.6458 -1.8356  0.9983
  349TIP3   OH222461   3.684   2.188   4.973  0.0615  0.0542 -0.3185
  349TIP3    H122462   3.767   2.203   4.928  0.0127 -1.9205 -1.2000
  349TIP3    H222463   3.618   2.200   4.904 -0.2529  0.0063 -0.0260
  350TIP3   OH222464   5.238   1.772  11.877 -0.0844 -0.3926 -0.2221
  350TIP3    H122465   5.152   1.787  11.916  0.0712 -0.2152  0.0566
  350TIP3    H222466   5.267   1.859  11.850  0.6621 -0.2242  1.0615
  351TIP3   OH222467   5.448   0.408  16.084 -0.0466 -0.1732 -0.0637
  351TIP3    H122468   5.530   0.434  16.125  0.8443 -2.2505 -0.3991
  351TIP3    H222469   5.462   0.423  15.990  0.5285 -1.8337 -0.2753
  352TIP3   OH222470   6.532   1.890   2.430 -0.4758 -0.2175 -0.3914
  352TIP3    H122471   6.512   1.833   2.505  2.4632 -1.3895 -0.3550
  352TIP3    H222472   6.553   1.975   2.469 -0.9900 -0.2148 -0.1051
  353TIP3   OH222473   0.504   1.935  11.693 -0.6830 -0.0929  0.1777
  353TIP3    H122474   0.470   1.967  11.776  0.3257  0.9197  0.2297
  353TIP3    H222475   0.592   1.903  11.714 -0.2454  0.5792 -0.5609
  354TIP3   OH222476   0.568   2.792   3.423  0.3054  0.0891 -0.5414
  354TIP3    H122477   0.587   2.698   3.421  1.2941  0.2842 -0.7724
  354TIP3    H222478   0.570   2.819   3.332 -0.9994  0.1569 -0.5672
  355TIP3   OH222479   3.619   4.340   1.576  0.5058 -0.2027 -0.2671
  355TIP3    H122480   3.654   4.428   1.592  0.4911  0.6915 -4.0579
  355TIP3    H222481   3.689   4.281   1.605  0.9921  1.0631  1.2841
  356TIP3   OH222482   1.994   0.650   4.179  0.1644 -0.0812 -0.3271
  356TIP3    H122483   2.076   0.699   4.172  1.0305 -1.5868 -1.3904
  356TIP3    H222484   1.934   0.710   4.223  1.2361  1.8272 -1.3227
  357TIP3   OH222485   5.900   0.957   5.109  0.3663  0.4455 -0.0053
  357TIP3    H122486   5.958   0.996   5.174 -1.2300  3.0864 -0.0316
  357TIP3    H222487   5.865   0.878   5.151  0.3935  1.3677  1.8336
  358TIP3   OH222488   1.046   3.651  13.687  0.2943  0.0509 -0.6080
  358TIP3    H122489   1.042   3.607  13.772  0.7564 -1.0924 -1.1587
  358TIP3    H222490   0.996   3.732  13.699 -1.5924 -1.1509  0.1258
  359TIP3   OH222491   2.721   6.676  15.864 -0.1858 -0.2943 -0.3337
  359TIP3    H122492   2.628   6.686  15.884  0.1520 -0.9546  1.7495
  359TIP3    H222493   2.765   6.737  15.924  0.7108  0.8653 -2.0745
  360TIP3   OH222494   5.733   3.604  15.746  0.3745  0.0706 -0.5212
  360TIP3    H122495   5.751   3.538  15.678  0.0416 -0.2665 -0.2849
  360TIP3    H222496   5.688   3.674  15.699 -2.8286 -1.5491 -0.1457
  361TIP3   OH222497   0.386   2.578  10.634 -0.4540 -0.3076 -0.3820
  361TIP3    H122498   0.356   2.635  10.563 -0.6450  1.5731  1.1234
  361TIP3    H222499   0.309   2.565  10.689 -0.2861 -1.6498 -0.4233
  362TIP3   OH222500   6.222   3.493   3.958 -0.0656 -0.2040 -0.2213
  362TIP3    H122501   6.253   3.405   3.938 -0.8933 -0.5985  0.1624
  362TIP3    H222502   6.298   3.538   3.995  0.5862 -0.4908 -1.1744
  363TIP3   OH222503   6.578   0.097  15.068 -0.3696 -0.2917 -0.1727
  363TIP3    H122504   6.549   0.011  15.098 -0.3522 -0.7560 -1.4677
  363TIP3    H222505   6.623   0.081  14.985 -0.4947  0.9768 -0.5112
  364TIP3   OH222506   2.555   6.308  14.804  0.1303 -0.0316 -0.2694
  364TIP3    H122507   2.605   6.234  14.838 -1.6342 -0.4080  1.7642
  364TIP3    H222508   2.466   6.274  14.793 -0.3922  1.4080 -0.7475
  365TIP3   OH222509   6.248   4.390   4.687 -0.2093 -0.0700 -0.3260
  365TIP3    H122510   6.278   4.463   4.632  0.9332 -1.1033 -1.1227
  365TIP3    H222511   6.175   4.351   4.638 -1.5529  1.1360  0.6071
  366TIP3   OH222512   3.686   5.958  14.829  0.7793  0.5737  0.4699
  366TIP3    H122513   3.677   6.046  14.793 -1.4670  0.3023  0.1842
  366TIP3    H222514   3.730   5.908  14.760 -1.1802  0.6777 -0.9571
  367TIP3   OH222515   1.409   0.956  14.125  0.2357  0.4584 -0.0490
  367TIP3    H122516   1.445   0.962  14.213 -1.1772  2.4624  0.4622
  367TIP3    H222517   1.358   0.875  14.125 -0.0262  0.6092  1.0855
  368TIP3   OH222518   2.436   5.598  15.028  0.0840  0.6047 -0.3753
  368TIP3    H122519   2.368   5.588  14.962 -0.3871 -0.0465  0.1913
  368TIP3    H222520   2.395   5.648  15.098  0.6184  1.4037 -0.6210
  369TIP3   OH222521   2.877   6.626  12.802 -0.9886 -0.1956  0.2709
  369TIP3    H122522   2.804   6.686  12.819 -2.9737 -2.4528  0.3404
  369TIP3    H222523   2.852   6.581  12.721 -0.0581 -1.5499  0.6925
  370TIP3   OH222524   5.797   5.320   0.986  0.4921 -0.7472  0.0963
  370TIP3    H122525   5.819   5.291   0.898  1.6860  1.5609 -0.4731
  370TIP3    H222526   5.867   5.285   1.041  0.7844 -0.6469 -0.2090
  371TIP3   OH222527   0.453   6.323  15.944 -0.0552  0.8487  0.1514
  371TIP3    H122528   0.460   6.332  15.849 -0.2591  2.7901  0.2818
  371TIP3    H222529   0.404   6.401  15.972  0.9297  0.8767  1.9559
  372TIP3   OH222530   2.076   2.797  12.062 -0.2934 -0.0052 -0.1177
  372TIP3    H122531   1.989   2.799  12.021 -0.1047 -1.5441 -0.6605
  372TIP3    H222532   2.117   2.718  12.026  0.7387 -0.1586  1.3397
  373TIP3   OH222533   5.430   4.894  12.426  0.0656  0.0200  0.1513
  373TIP3    H122534   5.504   4.923  12.372  0.3690 -0.4763  0.2976
  373TIP3    H222535   5.462   4.816  12.471 -0.2837  0.2562  0.8281
  374TIP3   OH222536   2.913   4.871  13.462 -0.0502  0.3332  0.2573
  374TIP3    H122537   2.941   4.841  13.376  0.1510  1.2272 -0.0020
  374TIP3    H222538   2.994   4.882  13.512 -0.2100 -0.8276  0.7878
  375TIP3   OH222539   2.823   3.315  15.791  0.2173 -0.0045 -0.4619
  375TIP3    H122540   2.862   3.388  15.838 -1.3531  0.8735 -0.4448
  375TIP3    H222541   2.836   3.337  15.699 -0.6472  0.5549 -0.4648
  376TIP3   OH222542   1.878   2.986   6.678  0.4998  0.1717 -0.2040
  376TIP3    H122543   1.879   3.082   6.676 -3.5018  0.3853 -0.3050
  376TIP3    H222544   1.868   2.964   6.771 -1.9617  0.1551 -0.3927
  377TIP3   OH222545   0.137   5.452  15.769 -0.2198  0.5614  0.2801
  377TIP3    H122546   0.080   5.475  15.842 -0.1942  2.3195 -0.2131
  377TIP3    H222547   0.121   5.359  15.755 -2.7681  0.9109  0.3395
  378TIP3   OH222548   4.769   0.188  14.677 -0.0858 -0.4428 -0.0906
  378TIP3    H122549   4.690   0.211  14.627  0.7000 -1.4653 -1.9259
  378TIP3    H222550   4.738   0.131  14.747 -1.3545  1.7626  1.2733
  379TIP3   OH222551   5.026   4.677   4.457 -0.2907  0.6238  0.3279
  379TIP3    H122552   4.971   4.662   4.534 -0.5826 -0.2973 -0.0490
  379TIP3    H222553   4.976   4.641   4.384  0.4090  0.6078 -0.1584
  380TIP3   OH222554   2.192   3.624   0.889  0.4921 -0.3445  0.2932
  380TIP3    H122555   2.257   3.583   0.946  1.6002  1.4863  0.4139
  380TIP3    H222556   2.156   3.695   0.942 -1.5653 -1.2207  0.1760
  381TIP3   OH222557   4.778   1.150   1.517  0.0017  0.5886  0.1520
  381TIP3    H122558   4.782   1.230   1.464  2.4921 -0.1326 -0.9087
  381TIP3    H222559   4.810   1.082   1.458  0.3130 -0.7455  1.8051
  382TIP3   OH222560   0.185   2.532   3.324  0.2269  0.5875 -0.2184
  382TIP3    H122561   0.145   2.593   3.387 -1.7046 -0.6976 -0.1109
  382TIP3    H222562   0.115   2.511   3.263  0.8972 -1.3322 -0.3924
  383TIP3   OH222563   1.477   2.400   4.495 -0.8550 -0.1928 -0.5399
  383TIP3    H122564   1.480   2.495   4.508  1.2952 -0.4076  1.1608
  383TIP3    H222565   1.508   2.364   4.578  0.4935 -2.3036 -1.8781
  384TIP3   OH222566   0.640   6.439  13.683 -0.3142 -0.6880 -0.6069
  384TIP3    H122567   0.651   6.439  13.778 -2.1074 -2.3640 -0.3343
  384TIP3    H222568   0.728   6.458  13.649  0.3948 -0.1642  1.3588
  385TIP3   OH222569   0.536   1.809  12.556  0.6504  0.0141  0.2366
  385TIP3    H122570   0.588   1.863  12.616  2.6766 -0.9641 -0.5625
  385TIP3    H222571   0.485   1.752  12.614  1.2928  0.2515  1.0519
  386TIP3   OH222572   4.443   4.250   3.540  0.2764  0.6753  0.9756
  386TIP3    H122573   4.513   4.304   3.576  1.2768  1.1079 -1.4324
  386TIP3    H222574   4.487   4.190   3.480 -1.3084  0.3163  0.1116
  387TIP3   OH222575   3.761   3.034   5.811 -0.0420 -0.2963  0.0898
  387TIP3    H122576   3.759   2.996   5.723  1.9694  2.8851 -1.5042
  387TIP3    H222577   3.845   3.005   5.847  0.5370  0.8552 -0.3010
  388TIP3   OH222578   4.370   0.763  14.158 -0.5257 -0.4072  0.0457
  388TIP3    H122579   4.461   0.793  14.169  0.0180 -2.5357  2.3138
  388TIP3    H222580   4.375   0.695  14.092 -0.5891 -0.0700 -0.3074
  389TIP3   OH222581   4.460   4.153   4.829 -0.2108 -0.2149  0.5872
  389TIP3    H122582   4.437   4.244   4.845  0.9432  0.3887 -0.9346
  389TIP3    H222583   4.442   4.139   4.736  0.5992 -1.2265  0.5566
  390TIP3   OH222584   3.060   6.631   1.668 -0.1501 -0.2281 -0.2887
  390TIP3    H122585   3.045   6.726   1.667 -1.6724 -0.4172  0.8969
  390TIP3    H222586   3.107   6.614   1.587 -1.7350  1.2642 -1.6245
  391TIP3   OH222587   1.688   5.916  13.137 -0.1870 -0.0297  0.0232
  391TIP3    H122588   1.642   5.997  13.159 -0.2156 -0.3788  1.3430
  391TIP3    H222589   1.774   5.924  13.180  0.4251 -0.0379 -1.1474
  392TIP3   OH222590   6.171   4.326  13.546 -0.1988 -0.0268  0.1316
  392TIP3    H122591   6.203   4.412  13.517 -0.8110  0.2589  0.2877
  392TIP3    H222592   6.151   4.338  13.639  0.2168 -0.4939  0.2877
  393TIP3   OH222593   4.241   6.218  14.275 -0.1676 -0.7434  0.4394
  393TIP3    H122594   4.303   6.290  14.267  0.2132 -1.1507 -0.3931
  393TIP3    H222595   4.223   6.212  14.369 -0.9175  1.0188  0.4498
  394TIP3   OH222596   2.685   5.058  17.011 -0.0175  0.0039 -0.0543
  394TIP3    H122597   2.756   5.107  17.052  0.8950 -0.4089 -1.1086
  394TIP3    H222598   2.715   4.967  17.011 -0.4267 -0.1375 -0.7565
  395TIP3   OH222599   5.834   3.380  12.113  0.3963 -0.0694 -0.0143
  395TIP3    H122600   5.801   3.452  12.167 -0.0215 -0.2498 -0.0239
  395TIP3    H222601   5.884   3.326  12.174  1.2172  0.5392 -0.1280
  396TIP3   OH222602   1.695   4.151  15.947 -0.0420 -0.1286 -0.2198
  396TIP3    H122603   1.708   4.216  15.878  0.8106  1.1415  1.0634
  396TIP3    H222604   1.718   4.198  16.028  0.3100 -1.9550  0.7821
  397TIP3   OH222605   2.230   1.129   2.898 -0.5933 -0.7148 -0.7532
  397TIP3    H122606   2.285   1.050   2.896 -1.1346 -1.3120  2.2647
  397TIP3    H222607   2.145   1.100   2.866 -0.9116 -1.5515  0.7307
  398TIP3   OH222608   3.432   0.915  15.963 -0.2213 -0.1293 -0.5641
  398TIP3    H122609   3.487   0.883  15.891  1.2273  1.6571 -0.2961
  398TIP3    H222610   3.394   0.996  15.929 -0.9212 -0.1783  0.0837
  399TIP3   OH222611   2.698   2.812   5.741  0.2069 -0.0846  0.2707
  399TIP3    H122612   2.653   2.850   5.666  1.8379  0.2016 -0.6121
  399TIP3    H222613   2.687   2.877   5.811  0.3146  0.5670 -0.3091
  400TIP3   OH222614   2.143   2.931  14.574 -0.2773  0.3872 -0.9596
  400TIP3    H122615   2.198   2.857  14.599 -0.6494  0.6332  0.7328
  400TIP3    H222616   2.082   2.942  14.647 -0.4581  2.1489 -1.3159
  401TIP3   OH222617   0.454   0.024   2.089  0.8672 -0.6458 -0.4302
  401TIP3    H122618   0.378  -0.035   2.081  0.3604  0.0251 -0.6551
  401TIP3    H222619   0.470   0.028   2.184  1.0322 -1.2936 -0.4246
  402TIP3   OH222620   1.559   5.079  12.030  0.6627 -0.6674  0.2844
  402TIP3    H122621   1.648   5.110  12.042  0.0118  1.6095 -0.1928
  402TIP3    H222622   1.548   5.073  11.935 -0.2409  1.0650  0.2274
  403TIP3   OH222623   3.295   4.078   2.411 -0.1905 -0.0615  0.3618
  403TIP3    H122624   3.269   4.169   2.394 -0.9100 -0.1600  0.8901
  403TIP3    H222625   3.354   4.056   2.339  0.0290  0.8404  0.2512
  404TIP3   OH222626   5.629   5.643  15.882  0.4574  0.0921  0.2360
  404TIP3    H122627   5.554   5.584  15.879 -0.5428  1.2849  0.7483
  404TIP3    H222628   5.688   5.603  15.947 -0.0679 -0.4801  0.3698
  405TIP3   OH222629   1.000   5.853  15.376  0.8517  0.2048 -0.3403
  405TIP3    H122630   0.973   5.860  15.467  1.4375 -0.6510 -0.0873
  405TIP3    H222631   1.058   5.928  15.362  0.6357  0.4266 -0.0640
  406TIP3   OH222632   2.058   3.917   3.784  0.2837  0.0281  0.0864
  406TIP3    H122633   2.135   3.863   3.768 -0.0713  0.2668 -3.1244
  406TIP3    H222634   1.986   3.854   3.790  0.2451 -0.0270 -0.8269
  407TIP3   OH222635   0.929   4.626  14.983  0.1652  0.4557  1.0405
  407TIP3    H122636   0.943   4.648  14.891  1.7862  0.6382  1.3105
  407TIP3    H222637   0.878   4.699  15.018 -2.5513 -0.6930 -0.2079
  408TIP3   OH222638   5.984   5.987   2.839  0.2867  0.1153  0.2417
  408TIP3    H122639   6.014   6.022   2.755  0.2065  1.4025  0.7369
  408TIP3    H222640   5.931   6.056   2.877 -0.4391 -0.8018  0.9619
  409TIP3   OH222641   4.114   0.795  14.015  0.0664  0.0367 -0.2275
  409TIP3    H122642   4.073   0.732  13.956 -1.1271  0.7837 -0.2266
  409TIP3    H222643   4.208   0.780  14.005 -0.0396  0.8199 -3.0669
  410TIP3   OH222644   6.713   6.566  13.530  0.5784 -0.2000  0.0541
  410TIP3    H122645   6.679   6.578  13.441  2.8491  1.9175 -0.6450
  410TIP3    H222646   6.783   6.501  13.521  0.6104 -0.2099  0.3486
  411TIP3   OH222647   2.200   0.079   3.151  0.0098 -0.2391 -0.4188
  411TIP3    H122648   2.134   0.046   3.090 -0.8890 -0.9108  0.8720
  411TIP3    H222649   2.271   0.015   3.146 -0.0001 -0.2178 -0.8566
  412TIP3   OH222650   4.074   5.905  14.887  0.1212 -0.3736 -0.3505
  412TIP3    H122651   4.022   5.947  14.955 -2.1155 -1.0016 -1.5691
  412TIP3    H222652   4.164   5.908  14.920 -0.8822 -0.8385  2.6828
  413TIP3   OH222653   3.323   1.871  13.015 -0.1663 -0.1952 -0.0954
  413TIP3    H122654   3.335   1.966  13.003 -0.6947  0.0626  1.2680
  413TIP3    H222655   3.293   1.862  13.105 -0.8753 -1.6076 -0.4431
  414TIP3   OH222656   1.032   1.399  16.197 -0.3476  0.0318 -0.0519
  414TIP3    H122657   1.060   1.386  16.288  0.7247 -0.4865 -0.4399
  414TIP3    H222658   1.041   1.313  16.157  0.2399  0.4897 -0.9249
  415TIP3   OH222659   3.480   4.412  12.563  0.1296  0.0755 -0.1143
  415TIP3    H122660   3.478   4.359  12.484 -0.5026  2.4543 -1.8103
  415TIP3    H222661   3.388   4.421  12.588  0.2309  0.4096  0.1477
  416TIP3   OH222662   2.350   5.371   4.268 -0.3348 -0.4276  0.6048
  416TIP3    H122663   2.428   5.425   4.270 -0.5219 -0.1447  0.3256
  416TIP3    H222664   2.281   5.427   4.302 -0.8046 -0.0337 -0.9301
  417TIP3   OH222665   3.222   1.538  14.717  0.9717  0.1307  0.0168
  417TIP3    H122666   3.274   1.566  14.793  2.7747  0.1706 -1.1859
  417TIP3    H222667   3.166   1.469  14.751 -0.9866  2.5712  2.2429
  418TIP3   OH222668   1.360   3.212  11.617 -0.0484  0.1994 -0.3624
  418TIP3    H122669   1.348   3.128  11.662 -1.1594  1.2360  1.3770
  418TIP3    H222670   1.358   3.189  11.524  1.0978 -1.8662  0.0538
  419TIP3   OH222671   6.355   4.558   3.816  0.2345 -0.7037 -0.1109
  419TIP3    H122672   6.379   4.466   3.829  0.2341 -0.8164 -0.8501
  419TIP3    H222673   6.305   4.582   3.894  1.0947 -1.0326  0.5567
  420TIP3   OH222674   1.338   3.028  15.145 -0.2593  0.6208  0.1448
  420TIP3    H122675   1.415   2.997  15.098 -0.1793 -0.2415  0.8188
  420TIP3    H222676   1.373   3.091  15.208 -0.1762  0.6577  0.0615
  421TIP3   OH222677   5.894   1.302  16.701  0.2504  0.1742  0.5421
  421TIP3    H122678   5.849   1.218  16.709 -0.4061  0.2757 -1.4933
  421TIP3    H222679   5.860   1.354  16.774 -0.2771 -0.9175  1.0970
  422TIP3   OH222680   5.818   2.728   6.355  0.0053 -0.2220 -0.0596
  422TIP3    H122681   5.737   2.742   6.405  0.3708  1.4085  0.1439
  422TIP3    H222682   5.790   2.736   6.264 -0.1116  0.0556 -0.0010
  423TIP3   OH222683   4.295   1.717   6.020  0.6108  0.4108 -0.0716
  423TIP3    H122684   4.329   1.807   6.030 -0.3127  0.7020  0.5653
  423TIP3    H222685   4.318   1.674   6.103  1.0305  0.0545 -0.3676
  424TIP3   OH222686   0.308   0.702   2.887 -0.6232  0.0925 -0.2539
  424TIP3    H122687   0.223   0.728   2.922 -1.1054 -2.8893  1.1057
  424TIP3    H222688   0.371   0.733   2.952 -0.7525  1.2321 -0.6487
  425TIP3   OH222689   1.588   1.206   2.858 -0.0407 -0.0616  0.1609
  425TIP3    H122690   1.562   1.295   2.837  1.9749  0.4865 -0.2144
  425TIP3    H222691   1.551   1.153   2.787  0.0630  0.6979 -0.4704
  426TIP3   OH222692   3.751   1.290  14.384 -0.1705 -0.2378 -0.0541
  426TIP3    H122693   3.765   1.310  14.476 -0.5336  1.4726 -0.3291
  426TIP3    H222694   3.803   1.211  14.368 -0.4764 -0.8358  1.6984
  427TIP3   OH222695   1.213   2.893  14.213 -0.2548  0.6477  0.5214
  427TIP3    H122696   1.166   2.916  14.133 -0.9692  1.5153  1.1642
  427TIP3    H222697   1.153   2.918  14.284  0.8323  0.9828  1.3469
  428TIP3   OH222698   3.104   2.017   1.296 -0.0024  0.7364 -0.2226
  428TIP3    H122699   3.119   1.963   1.219  0.9490 -0.3043  0.6504
  428TIP3    H222700   3.024   2.065   1.277  0.8296  1.4008 -2.3308
  429TIP3   OH222701   5.937   3.964  13.467  0.3898  0.1270 -0.1586
  429TIP3    H122702   5.900   4.033  13.522 -0.8563  0.2998 -1.1853
  429TIP3    H222703   5.951   4.005  13.382  2.3158 -0.1378 -0.0136
  430TIP3   OH222704   5.760   6.406  11.741 -0.2868 -0.2568  0.2499
  430TIP3    H122705   5.714   6.398  11.658 -1.0168  1.5275  0.4523
  430TIP3    H222706   5.693   6.390  11.807 -0.0265 -0.2444  0.5183
  431TIP3   OH222707   2.342   6.787  13.281 -0.7640  0.4429 -0.5388
  431TIP3    H122708   2.314   6.838  13.357  0.5259 -0.8128  0.8143
  431TIP3    H222709   2.340   6.696  13.310  2.9609  0.1187 -0.8625
  432TIP3   OH222710   4.126   1.940   1.811  0.2770  0.8185 -0.0100
  432TIP3    H122711   4.069   2.016   1.815  0.7084  1.1393  0.1464
  432TIP3    H222712   4.182   1.948   1.888  0.9167  0.8210 -0.4644
  433TIP3   OH222713   0.025   5.477   4.177  0.4493  0.0303  0.0127
  433TIP3    H122714  -0.063   5.441   4.165 -0.0252  1.0857  0.2438
  433TIP3    H222715   0.083   5.411   4.139 -0.5452  0.1900 -1.8730
  434TIP3   OH222716   0.000   4.179  14.377  0.0847  0.0042 -0.2934
  434TIP3    H122717   0.044   4.127  14.445  0.1831 -0.9226 -1.0369
  434TIP3    H222718   0.070   4.231  14.339 -0.3985  2.6652  2.0911
  435TIP3   OH222719   5.261   4.005  10.593 -0.0595  0.1786  0.3928
  435TIP3    H122720   5.187   3.965  10.547  0.1280  0.3337 -0.0453
  435TIP3    H222721   5.296   4.070  10.531 -0.3013  0.9609  1.0538
  436TIP3   OH222722   4.142   2.986  15.194 -0.0925  0.4419 -0.0109
  436TIP3    H122723   4.134   2.892  15.176 -0.9300 -0.3139  3.4421
  436TIP3    H222724   4.236   3.003  15.190  0.1972 -0.8875  0.5581
  437TIP3   OH222725   3.179   6.748  12.216 -0.0544 -0.0254  0.2364
  437TIP3    H122726   3.127   6.692  12.274 -0.1121 -1.0801 -0.7755
  437TIP3    H222727   3.115   6.780  12.152  0.3517 -0.5256 -0.4324
  438TIP3   OH222728   6.615   5.159  12.032  0.2234 -0.4129  0.8500
  438TIP3    H122729   6.520   5.170  12.026  0.3413  0.2241  0.0921
  438TIP3    H222730   6.647   5.170  11.942  0.8595 -2.2151  0.8043
  439TIP3   OH222731   5.690   0.549  16.366  0.0887  0.0234  0.6213
  439TIP3    H122732   5.692   0.589  16.279 -0.6415  0.1206  0.6423
  439TIP3    H222733   5.615   0.490  16.363  3.2983 -4.5442 -0.7992
  440TIP3   OH222734   6.706   1.560  15.976  0.1397 -0.1819  0.0250
  440TIP3    H122735   6.732   1.508  16.051 -0.4711 -0.1570  0.2659
  440TIP3    H222736   6.787   1.595  15.941  0.6577 -1.9507 -0.6454
  441TIP3   OH222737   2.437   2.402   2.843 -0.4854  0.2480 -0.1288
  441TIP3    H122738   2.365   2.378   2.784  1.1575 -3.1359 -0.9725
  441TIP3    H222739   2.394   2.420   2.927 -2.4383  0.3192 -1.0732
  442TIP3   OH222740   5.051   6.634   1.713 -0.1253 -0.4577 -0.0107
  442TIP3    H122741   4.989   6.678   1.654 -0.0838  0.3962  0.5688
  442TIP3    H222742   5.136   6.646   1.670  0.0236  0.9124  0.6242
  443TIP3   OH222743   1.610   0.503  16.589  0.3038  0.0947 -0.2689
  443TIP3    H122744   1.623   0.580  16.644  0.1572  0.1644 -0.3307
  443TIP3    H222745   1.656   0.432  16.635 -0.6884 -0.0845  0.4754
  444TIP3   OH222746   5.306   3.795  12.002 -0.2455  0.3557 -0.0846
  444TIP3    H122747   5.313   3.814  12.096 -2.3598 -0.8964  0.3989
  444TIP3    H222748   5.212   3.779  11.988  0.0393  0.3799 -2.3977
  445TIP3   OH222749   2.489   2.541  17.056 -0.2312  0.2976 -0.2819
  445TIP3    H122750   2.552   2.516  16.988  0.1791 -2.1374  0.8990
  445TIP3    H222751   2.490   2.637  17.055  1.5677  0.3244 -2.0326
  446TIP3   OH222752   5.233   4.679  11.448 -0.0839  1.0953  0.6099
  446TIP3    H122753   5.169   4.646  11.511  0.5386 -0.9826  0.2486
  446TIP3    H222754   5.217   4.626  11.369  1.5048  1.1219  0.2489
  447TIP3   OH222755   2.672   5.869  15.941  0.8206  0.4941 -0.6718
  447TIP3    H122756   2.695   5.897  15.852 -1.4299  2.5848 -0.7127
  447TIP3    H222757   2.680   5.948  15.994 -0.8622  0.0519  0.3240
  448TIP3   OH222758   1.922   4.696  14.527  0.0337  0.5173 -0.4003
  448TIP3    H122759   2.013   4.724  14.534  0.3124 -0.4389  0.0106
  448TIP3    H222760   1.899   4.667  14.615 -0.3418 -0.2008 -0.7213
  449TIP3   OH222761   0.215   4.063  14.524  0.6755 -0.7917 -0.7492
  449TIP3    H122762   0.250   4.140  14.569 -1.0534 -0.0586 -0.5713
  449TIP3    H222763   0.243   3.989  14.577 -1.2586  0.0382  1.6350
  450TIP3   OH222764   4.152   4.757   1.636  0.0689 -0.2453  0.2489
  450TIP3    H122765   4.061   4.754   1.668 -0.3772 -0.0476 -0.9543
  450TIP3    H222766   4.146   4.730   1.545  1.0860  0.7477 -0.1323
  451TIP3   OH222767   1.641   6.379  15.181  0.4654  0.0841  0.1676
  451TIP3    H122768   1.663   6.467  15.150  2.3772  0.0332  1.2178
  451TIP3    H222769   1.713   6.324  15.151  0.5326 -0.6333  1.5411
  452TIP3   OH222770   3.819   5.771   3.816 -0.0146 -0.0870  0.1963
  452TIP3    H122771   3.898   5.817   3.844  0.8822 -1.7979  0.6153
  452TIP3    H222772   3.851   5.701   3.758 -1.3369 -0.1197 -0.5443
  453TIP3   OH222773   3.327   1.109   1.844  0.0898 -0.6452 -0.3093
  453TIP3    H122774   3.248   1.142   1.888 -1.5865 -1.4565 -2.5387
  453TIP3    H222775   3.329   1.154   1.760  1.1326 -1.7754 -0.9306
  454TIP3   OH222776   4.307   6.235  12.641  0.2916 -0.1412 -0.3642
  454TIP3    H122777   4.222   6.247  12.600 -0.6231 -1.5898  1.0215
  454TIP3    H222778   4.367   6.224  12.567 -0.9057 -0.2791 -1.3503
  455TIP3   OH222779   3.185   3.206  10.427 -0.0279 -0.4724  0.5969
  455TIP3    H122780   3.196   3.203  10.522  0.9302 -0.7265  0.4858
  455TIP3    H222781   3.269   3.176  10.392 -1.1999 -2.9732 -0.3125
  456TIP3   OH222782   4.619   2.898   4.781  0.1546  0.2220 -0.1934
  456TIP3    H122783   4.542   2.853   4.746 -0.7382  1.7014 -0.2130
  456TIP3    H222784   4.684   2.891   4.711 -0.6316  0.6340 -0.9896
  457TIP3   OH222785   5.305   3.167   5.355 -0.1345 -0.5458  0.1073
  457TIP3    H122786   5.256   3.141   5.277  0.0629  1.1731 -0.6598
  457TIP3    H222787   5.262   3.122   5.428 -1.9532 -0.2308 -0.7080
  458TIP3   OH222788   3.469   3.961   3.434 -0.3625 -0.0916 -0.1684
  458TIP3    H122789   3.409   3.965   3.360 -1.1189  2.1948  0.4978
  458TIP3    H222790   3.555   3.981   3.397 -0.5437 -0.1108 -0.5942
  459TIP3   OH222791   1.485   1.179  14.729  0.3312  0.2337 -0.4825
  459TIP3    H122792   1.434   1.124  14.669  0.1853  1.3228 -1.4037
  459TIP3    H222793   1.536   1.117  14.781  0.6964 -0.7447 -1.9485
  460TIP3   OH222794   0.957   0.875  13.842  0.2119  0.1735 -0.3544
  460TIP3    H122795   0.954   0.823  13.922  0.8029 -0.3784 -0.6822
  460TIP3    H222796   0.934   0.964  13.870 -0.4470 -0.1879  0.2696
  461TIP3   OH222797   0.919   2.481   1.387 -0.1049  0.1649  0.0514
  461TIP3    H122798   0.938   2.565   1.346  0.7820 -0.6882 -1.3985
  461TIP3    H222799   0.827   2.464   1.365 -0.3156  0.8047  0.4410
  462TIP3   OH222800   0.199   5.869  12.457 -0.4433 -0.2570  0.0555
  462TIP3    H122801   0.108   5.851  12.433 -0.6016 -0.9496  1.0886
  462TIP3    H222802   0.197   5.957  12.493 -0.6363 -0.1242 -0.2768
  463TIP3   OH222803   0.367   3.926   5.742  0.0088 -0.8230 -0.4147
  463TIP3    H122804   0.290   3.954   5.692  0.3108 -1.0516 -1.0279
  463TIP3    H222805   0.390   4.002   5.795  0.8047  0.1173 -2.0259
  464TIP3   OH222806   0.142   5.601   5.371  0.3525 -0.2814  0.0008
  464TIP3    H122807   0.082   5.532   5.399  0.8670 -0.4748  0.6585
  464TIP3    H222808   0.198   5.558   5.306  0.2893 -0.3177 -0.0304
  465TIP3   OH222809   2.820   5.164   5.793  0.2245 -0.0315  0.0163
  465TIP3    H122810   2.850   5.088   5.743  1.4969  1.6717 -1.9253
  465TIP3    H222811   2.898   5.217   5.807 -0.9754  2.0153 -0.6462
  466TIP3   OH222812   0.569   2.703  14.364 -0.0685 -0.2723 -0.1985
  466TIP3    H122813   0.499   2.746  14.412  1.0465  0.2308  1.0597
  466TIP3    H222814   0.550   2.720  14.272 -0.2558  2.0292  0.2034
  467TIP3   OH222815   1.702   2.204  13.343 -0.2260  0.5168  0.4845
  467TIP3    H122816   1.786   2.180  13.382  0.3424  2.0284  0.2392
  467TIP3    H222817   1.637   2.168  13.403  0.6100  0.4470  1.3762
  468TIP3   OH222818   0.940   3.502  11.396  0.0077  0.2780 -0.2150
  468TIP3    H122819   1.016   3.528  11.345 -0.4163  0.6842 -0.6426
  468TIP3    H222820   0.873   3.482  11.332  0.3120 -1.9569  0.0756
  469TIP3   OH222821   5.364   4.007  12.300 -0.1596  0.1154 -0.0161
  469TIP3    H122822   5.387   4.068  12.230 -4.6043  0.7875 -1.2441
  469TIP3    H222823   5.357   4.061  12.378 -0.6205  0.5231 -0.3324
  470TIP3   OH222824   3.772   4.291   6.273  0.5931 -0.1154  0.3688
  470TIP3    H122825   3.812   4.215   6.231  1.4700  0.6111 -0.1577
  470TIP3    H222826   3.792   4.364   6.215 -1.5342  0.2990  0.0836
  471TIP3   OH222827   1.913   5.991   2.603  0.2100  0.3525  0.2825
  471TIP3    H122828   1.841   5.949   2.649  1.3248 -1.3533  0.5832
  471TIP3    H222829   1.943   5.925   2.540  0.7223  1.4898 -0.7219
  472TIP3   OH222830   5.328   1.856  14.323  0.2627 -1.0388 -0.3313
  472TIP3    H122831   5.325   1.766  14.355  1.6545 -0.4021  1.7416
  472TIP3    H222832   5.249   1.897  14.359  0.5339 -0.9797  0.2029
  473TIP3   OH222833   0.297   6.606   4.804  0.3256  0.3729 -0.4114
  473TIP3    H122834   0.240   6.532   4.826  2.9969 -1.7866 -0.2952
  473TIP3    H222835   0.301   6.657   4.885  0.8403 -1.0607  0.5021
  474TIP3   OH222836   4.518   4.094   3.928  0.4014  0.0777 -0.0301
  474TIP3    H122837   4.454   4.023   3.929  0.9477 -0.4111  0.2520
  474TIP3    H222838   4.602   4.051   3.912  0.8407  0.5749  0.8575
  475TIP3   OH222839   5.232   3.690   4.578 -0.3838  0.3198 -0.0097
  475TIP3    H122840   5.148   3.695   4.624 -2.1237  0.1040 -2.9270
  475TIP3    H222841   5.240   3.598   4.552  0.9948  0.2471  0.5751
  476TIP3   OH222842   5.569   2.221   4.816 -0.2902 -0.1089  0.0300
  476TIP3    H122843   5.485   2.251   4.780  0.4600  0.6700 -1.1254
  476TIP3    H222844   5.590   2.142   4.767  0.0407  0.1455 -0.2362
  477TIP3   OH222845   6.316   2.395  15.337 -0.0312 -0.3095  0.5274
  477TIP3    H122846   6.268   2.468  15.376  0.1100 -0.4727  1.0084
  477TIP3    H222847   6.302   2.322  15.397 -0.4960 -0.7914 -0.1514
  478TIP3   OH222848   4.168   2.259  14.020  0.2924 -0.3646  0.2646
  478TIP3    H122849   4.153   2.173  14.059 -2.9834  0.1161  0.4066
  478TIP3    H222850   4.154   2.245  13.926  2.1705 -0.3975 -0.0333
  479TIP3   OH222851   2.440   0.352  11.047  0.3381  0.0842  0.6750
  479TIP3    H122852   2.443   0.396  10.962  0.0225 -0.3718  0.4218
  479TIP3    H222853   2.379   0.280  11.034  0.2250  0.0584  1.3161
  480TIP3   OH222854   5.234   1.582   4.398 -0.3058  0.1073  0.1473
  480TIP3    H122855   5.254   1.551   4.486 -0.7586 -0.3448  0.0942
  480TIP3    H222856   5.231   1.503   4.344 -1.7155  0.1975  0.0546
  481TIP3   OH222857   5.513   5.132  13.072 -0.1737  0.2016  0.4364
  481TIP3    H122858   5.549   5.083  13.146 -0.7453  0.7291  1.0877
  481TIP3    H222859   5.587   5.180  13.036 -0.2672  1.7230  2.1094
  482TIP3   OH222860   3.928   5.720   6.125  0.1241  0.0150  0.3552
  482TIP3    H122861   3.952   5.632   6.154  0.1171 -0.1262 -0.0654
  482TIP3    H222862   3.953   5.777   6.198  1.5761 -0.1523  0.0210
  483TIP3   OH222863   3.191   0.397   5.200 -0.2582  0.1238 -0.2486
  483TIP3    H122864   3.122   0.334   5.177 -0.5556 -0.9512  3.0499
  483TIP3    H222865   3.179   0.469   5.137 -3.3709 -0.7412 -0.8469
  484TIP3   OH222866   4.435   2.840   1.328  0.0515  0.4143  0.1803
  484TIP3    H122867   4.475   2.926   1.322 -0.2537  0.4914 -1.2100
  484TIP3    H222868   4.341   2.857   1.335 -0.1873  0.2454 -1.7981
  485TIP3   OH222869   6.792   1.963  15.998 -0.2900 -0.5151  0.0676
  485TIP3    H122870   6.797   1.996  15.908 -0.8623 -0.6972 -0.0345
  485TIP3    H222871   6.699   1.967  16.019 -0.1988 -0.8236  0.5259
  486TIP3   OH222872   3.804   0.412   6.029 -0.0887  0.3730  0.3544
  486TIP3    H122873   3.847   0.362   6.098 -0.8292 -0.2942  0.3482
  486TIP3    H222874   3.732   0.457   6.073 -1.2830 -0.9666 -0.1496
  487TIP3   OH222875   5.551   2.146   6.386 -0.1454 -0.6216 -0.2808
  487TIP3    H122876   5.624   2.187   6.340 -0.1089 -2.3180 -1.8961
  487TIP3    H222877   5.499   2.218   6.421  0.4979  0.7283 -2.0160
  488TIP3   OH222878   6.732   0.810   5.388  0.5675 -0.2066 -0.1286
  488TIP3    H122879   6.749   0.724   5.426 -0.6164 -0.4854 -0.1643
  488TIP3    H222880   6.708   0.865   5.462 -0.9366 -0.5369 -0.3271
  489TIP3   OH222881   0.525   6.801   2.361 -0.1432 -0.1483 -0.7546
  489TIP3    H122882   0.618   6.811   2.382 -0.5491 -0.0639  1.1670
  489TIP3    H222883   0.499   6.720   2.405 -1.3018  0.6096  0.0182
  490TIP3   OH222884   3.312   3.790   4.986 -0.2714  0.3802  0.8060
  490TIP3    H122885   3.319   3.761   4.895 -0.2822  0.6899  0.7055
  490TIP3    H222886   3.218   3.802   4.999 -0.3676 -0.6584  1.1745
  491TIP3   OH222887   1.515   2.585   0.133 -0.0987 -0.3557  0.4036
  491TIP3    H122888   1.523   2.520   0.202  1.7843  1.7220  2.2897
  491TIP3    H222889   1.565   2.660   0.164  0.2074  0.9932 -2.8968
  492TIP3   OH222890   5.298   2.024  11.864 -0.3606 -0.1234 -0.3411
  492TIP3    H122891   5.265   2.060  11.781  0.0120  1.3495  0.1087
  492TIP3    H222892   5.385   2.062  11.874 -1.0469  1.1169  1.5136
  493TIP3   OH222893   5.625   3.296   4.036 -0.5842 -0.6277  0.2726
  493TIP3    H122894   5.713   3.328   4.019  0.5698 -3.6866 -0.2276
  493TIP3    H222895   5.604   3.330   4.123  0.4320  1.3748 -0.2072
  494TIP3   OH222896   5.254   2.216  15.453 -0.2329 -0.6092  0.2793
  494TIP3    H122897   5.327   2.191  15.510  0.7748 -1.1401 -1.1774
  494TIP3    H222898   5.181   2.160  15.481  0.9271 -2.6191 -0.4956
  495TIP3   OH222899   5.339   1.038   3.151 -0.3571 -0.0686 -0.0885
  495TIP3    H122900   5.406   1.024   3.218  0.1587  0.1495 -0.5515
  495TIP3    H222901   5.318   0.950   3.119 -0.3987 -0.1478  0.1472
  496TIP3   OH222902   3.458   4.470  12.917 -0.7472  0.1591 -0.0357
  496TIP3    H122903   3.552   4.465  12.937 -0.4786 -0.4163 -1.3260
  496TIP3    H222904   3.423   4.386  12.947 -0.5430 -0.2608 -0.9255
  497TIP3   OH222905   6.577   3.472  14.848  0.0666 -0.0165 -0.2933
  497TIP3    H122906   6.578   3.517  14.932  1.5810 -0.3823 -0.0860
  497TIP3    H222907   6.613   3.536  14.786  0.5825 -0.3426 -0.3315
  498TIP3   OH222908   6.623   6.670  15.590  0.1803 -0.0566  0.3390
  498TIP3    H122909   6.574   6.663  15.672 -0.7989 -1.7995 -0.3537
  498TIP3    H222910   6.556   6.672  15.521  0.9927 -2.5170 -0.6394
  499TIP3   OH222911   3.326   4.119  11.470  0.0391 -0.8077 -0.1566
  499TIP3    H122912   3.363   4.190  11.522 -0.9735  1.4303 -2.2548
  499TIP3    H222913   3.240   4.104  11.508 -0.2064 -0.0582 -0.3923
  500TIP3   OH222914   4.308   0.029  16.904  0.2950  0.7455  0.5025
  500TIP3    H122915   4.388   0.067  16.870  0.3521  0.2660  0.0887
  500TIP3    H222916   4.337  -0.046  16.956  0.2060  1.4204  1.5689
  501TIP3   OH222917   3.127   0.749  11.609  0.7046 -0.0701  0.7064
  501TIP3    H122918   3.107   0.663  11.571 -0.4376 -0.1162  1.3725
  501TIP3    H222919   3.124   0.734  11.704  2.1088  0.3596  0.8342
  502TIP3   OH222920   4.027   5.145   1.007 -0.3879 -0.1689  0.2244
  502TIP3    H122921   4.101   5.105   0.961  0.5216 -0.3673  1.7911
  502TIP3    H222922   4.036   5.239   0.990 -0.4502 -0.2871 -0.5109
  503TIP3   OH222923   0.251   6.221  15.468  0.1381  0.0811 -0.4442
  503TIP3    H122924   0.296   6.176  15.539  1.2172  0.6758 -0.7296
  503TIP3    H222925   0.257   6.161  15.394  1.2139  0.4990 -0.7104
  504TIP3   OH222926   5.743   0.252   5.657  0.2328 -0.3386  0.4905
  504TIP3    H122927   5.688   0.317   5.613 -0.5695  0.9277  3.1439
  504TIP3    H222928   5.801   0.304   5.714  0.9847 -1.8631  1.1809
  505TIP3   OH222929   2.775   0.235   5.864  0.1992  0.3280  0.0352
  505TIP3    H122930   2.744   0.168   5.925  1.4132  0.4377  0.8117
  505TIP3    H222931   2.828   0.187   5.800  0.1390  0.4080 -0.0760
  506TIP3   OH222932   1.888   0.188  11.540  0.1064  0.2479 -0.1427
  506TIP3    H122933   1.950   0.150  11.478 -0.4206  0.0581 -0.5623
  506TIP3    H222934   1.938   0.199  11.621  0.8193  0.5425 -0.6131
  507TIP3   OH222935   0.517   2.410  11.907  0.2578  0.1438  0.2061
  507TIP3    H122936   0.466   2.446  11.835 -0.5780  0.1480  0.7844
  507TIP3    H222937   0.485   2.321  11.918  3.0331 -1.2401 -1.8893
  508TIP3   OH222938   6.413   2.742  15.716 -0.3151 -0.6487  0.4398
  508TIP3    H122939   6.336   2.779  15.758 -0.6386 -0.9013  0.0781
  508TIP3    H222940   6.386   2.727  15.625  0.5639  0.4646 -0.0297
  509TIP3   OH222941   5.123   3.621  16.729 -0.2950 -0.4516  0.7243
  509TIP3    H122942   5.167   3.674  16.663  1.7119 -1.1985  1.3850
  509TIP3    H222943   5.194   3.576  16.776 -1.7549 -1.5255  2.0424
  510TIP3   OH222944   1.888   3.640   1.091 -0.3677  0.1528 -0.0330
  510TIP3    H122945   1.868   3.562   1.039 -1.1147 -1.0537  1.9510
  510TIP3    H222946   1.859   3.618   1.180  2.7015  1.2843  1.4087
  511TIP3   OH222947   5.089   0.690   5.097  0.2350 -0.2676  0.3853
  511TIP3    H122948   5.125   0.774   5.069 -1.1077  0.1137 -0.3035
  511TIP3    H222949   5.137   0.668   5.177  1.4423  0.5474 -0.0928
  512TIP3   OH222950   3.829   5.682   0.304 -0.0699  0.1569 -0.2032
  512TIP3    H122951   3.877   5.665   0.223 -0.8180 -0.4338 -0.5412
  512TIP3    H222952   3.775   5.604   0.316 -1.8326  1.2897 -0.4792
  513TIP3   OH222953   2.761   0.303   1.581  0.1441 -0.0455 -0.1643
  513TIP3    H122954   2.787   0.369   1.646  0.6561  1.8789 -2.2144
  513TIP3    H222955   2.671   0.327   1.558 -0.5504 -1.5867  0.8082
  514TIP3   OH222956   0.924   2.456   5.396  0.3156  0.3402 -0.5671
  514TIP3    H122957   0.908   2.462   5.490 -0.3402  0.2733 -0.6690
  514TIP3    H222958   0.954   2.366   5.382 -0.4170  0.0785 -0.5301
  515TIP3   OH222959   3.235   5.220  15.334  0.2519 -0.0784  0.1186
  515TIP3    H122960   3.260   5.266  15.414 -2.6306 -1.9552  2.2727
  515TIP3    H222961   3.305   5.157  15.320  0.2539 -0.4885  1.8406
  516TIP3   OH222962   4.570   2.584   5.153 -0.1407  0.2070 -0.7478
  516TIP3    H122963   4.640   2.626   5.104 -0.2753 -1.5504 -2.5754
  516TIP3    H222964   4.526   2.527   5.089 -0.2018 -2.3936  1.4024
  517TIP3   OH222965   4.816   3.455   4.599  0.0265  0.7747  0.4739
  517TIP3    H122966   4.851   3.465   4.510  0.4662  1.0406  0.6720
  517TIP3    H222967   4.748   3.522   4.606  0.0277  0.7889  0.3541
  518TIP3   OH222968   2.775   1.143  13.718  0.8108  0.1469 -0.7499
  518TIP3    H122969   2.758   1.133  13.624 -1.5663  2.4951 -0.6880
  518TIP3    H222970   2.691   1.172  13.754  1.7181 -0.4915  2.0955
  519TIP3   OH222971   3.679   4.840  14.123  0.3672  0.2943 -0.1430
  519TIP3    H122972   3.702   4.781  14.051  0.3008 -1.0516  0.8821
  519TIP3    H222973   3.609   4.894  14.089 -0.3205 -0.9653 -0.8074
  520TIP3   OH222974   4.743   2.612  15.520  0.3074  0.6814  0.3294
  520TIP3    H122975   4.726   2.702  15.548  2.4686  1.6451 -1.1246
  520TIP3    H222976   4.839   2.607  15.514  0.1735 -1.0981 -1.4539
  521TIP3   OH222977   5.217   6.576   5.633 -0.5632 -0.6510  0.0094
  521TIP3    H122978   5.152   6.626   5.585 -1.1372 -1.0541  0.3473
  521TIP3    H222979   5.195   6.590   5.725  0.2500 -0.2449  0.1562
  522TIP3   OH222980   1.905   4.166  12.863 -0.2800 -0.7505 -0.0846
  522TIP3    H122981   1.844   4.240  12.858  0.0854 -0.3753  0.8179
  522TIP3    H222982   1.890   4.128  12.950  1.1091 -0.3328  0.3642
  523TIP3   OH222983   2.234   4.021  13.749 -0.4242  0.3841 -0.3863
  523TIP3    H122984   2.227   3.926  13.745  0.5071  0.3222 -0.9735
  523TIP3    H222985   2.325   4.036  13.775 -0.7753  1.1085  0.4598
  524TIP3   OH222986   5.414   2.275   0.555 -0.6551 -0.0377 -0.2511
  524TIP3    H122987   5.392   2.252   0.645  2.1973  1.4488  0.9481
  524TIP3    H222988   5.479   2.209   0.529  0.4198  1.0130 -0.2753
  525TIP3   OH222989   5.849   4.900  11.665 -0.0243  0.0565  0.5502
  525TIP3    H122990   5.799   4.822  11.641 -2.6107  1.8837 -0.4770
  525TIP3    H222991   5.902   4.919  11.588 -0.6058  0.1975  0.1800
  526TIP3   OH222992   0.811   1.843   2.036 -0.5836 -0.4403 -0.3335
  526TIP3    H122993   0.765   1.926   2.030  2.0604  1.1581  0.1479
  526TIP3    H222994   0.814   1.810   1.946 -1.7477 -0.0924 -0.5104
  527TIP3   OH222995   1.655   5.717  14.751 -0.4854  0.1004 -0.0192
  527TIP3    H122996   1.672   5.789  14.811 -0.6472  0.4297 -0.3612
  527TIP3    H222997   1.642   5.641  14.807 -1.7946  0.6323  0.4250
  528TIP3   OH222998   5.907   3.574  15.950 -0.5648 -0.6749  0.3734
  528TIP3    H122999   5.886   3.661  15.984  1.6009  0.8684 -1.8735
  528TIP3    H223000   5.854   3.567  15.870  0.3114 -0.8072 -0.2024
  529TIP3   OH223001   3.007   1.958   3.374  0.0897  0.1825  0.2045
  529TIP3    H123002   3.039   2.001   3.454 -2.9792 -0.6465  2.0804
  529TIP3    H223003   3.030   2.018   3.303  0.1049  2.6037  2.1172
  530TIP3   OH223004   2.682   1.225  11.585  0.2130  0.1781  0.3657
  530TIP3    H123005   2.671   1.253  11.494  1.4581  1.0040  0.4538
  530TIP3    H223006   2.616   1.275  11.633  1.3444  1.8172  0.2840
  531TIP3   OH223007   4.608   0.342  16.833 -0.0224 -0.3583 -0.9387
  531TIP3    H123008   4.588   0.336  16.927  1.2168  1.6072 -0.5091
  531TIP3    H223009   4.681   0.281  16.821  0.3618  0.0008 -0.4566
  532TIP3   OH223010   0.214   6.475   3.260 -0.4910 -0.3542 -0.4711
  532TIP3    H123011   0.298   6.449   3.298 -1.3225 -1.6691  0.5477
  532TIP3    H223012   0.235   6.549   3.203  1.2894 -0.4145  0.0624
  533TIP3   OH223013   1.855   6.024   2.230 -0.8403  0.1287 -0.2460
  533TIP3    H123014   1.941   6.056   2.202 -1.1739  1.0645 -0.2191
  533TIP3    H223015   1.872   5.934   2.260 -0.1122 -0.1992 -1.5237
  534TIP3   OH223016   3.764   2.169   6.498  0.5598  0.4232 -0.0383
  534TIP3    H123017   3.757   2.094   6.557 -4.6019 -1.7379 -2.7703
  534TIP3    H223018   3.723   2.241   6.547 -1.6563 -0.7564 -0.0274
  535TIP3   OH223019   4.045   1.019   1.487  0.5023  0.0028  0.9870
  535TIP3    H123020   4.065   1.091   1.427 -1.0452  0.5536  1.0782
  535TIP3    H223021   3.969   1.050   1.536 -0.7782 -2.0413  0.4112
  536TIP3   OH223022   5.074   4.962   6.382  0.2522 -0.1463 -0.0727
  536TIP3    H123023   5.097   5.053   6.403 -0.0325 -0.0962  0.0173
  536TIP3    H223024   5.159   4.919   6.371  0.3999  0.5702 -2.1038
  537TIP3   OH223025   4.832   6.744  15.476 -0.1419  0.3524 -0.4418
  537TIP3    H123026   4.882   6.674  15.518 -0.7153 -0.3294 -0.8830
  537TIP3    H223027   4.862   6.745  15.386 -0.6308  0.2055 -0.6101
  538TIP3   OH223028   4.000   5.256  11.601 -0.2008 -0.2409 -0.0257
  538TIP3    H123029   3.972   5.259  11.693  0.8030 -1.3155  0.3388
  538TIP3    H223030   3.953   5.328  11.560 -1.0707 -0.0558  1.2197
  539TIP3   OH223031   3.006   5.576   0.629 -0.4638 -0.6161 -0.0098
  539TIP3    H123032   2.994   5.484   0.605 -0.6940 -0.8999  1.1274
  539TIP3    H223033   3.100   5.592   0.619 -0.3387 -1.1361  0.3167
  540TIP3   OH223034   3.737   2.731  15.590  0.5374  0.4419  0.5263
  540TIP3    H123035   3.728   2.812  15.640  2.3746  0.6862  0.5178
  540TIP3    H223036   3.795   2.753  15.518 -0.3797 -0.4513 -0.5343
  541TIP3   OH223037   0.725   1.292  14.894 -0.2640  0.3469  0.2845
  541TIP3    H123038   0.797   1.261  14.840 -0.7538  0.6194 -0.5380
  541TIP3    H223039   0.648   1.284  14.838 -1.0740 -1.0095  1.5166
  542TIP3   OH223040   6.810   4.298  15.672 -0.0586 -0.1694 -0.5330
  542TIP3    H123041   6.905   4.294  15.671  0.1543  2.2537  1.0166
  542TIP3    H223042   6.786   4.256  15.755 -0.3199 -0.4616 -0.7555
  543TIP3   OH223043   5.224   4.153   4.573  0.0836 -0.4339 -0.6449
  543TIP3    H123044   5.137   4.152   4.532  0.3345  0.6057 -1.2223
  543TIP3    H223045   5.247   4.245   4.579  0.8810 -0.6661  0.1120
  544TIP3   OH223046   5.090   3.402  15.529 -0.2754 -0.3726 -0.1829
  544TIP3    H123047   5.031   3.450  15.470 -0.6383 -0.1902  0.3285
  544TIP3    H223048   5.036   3.333  15.566  0.4392 -1.7304 -1.5300
  545TIP3   OH223049   4.452   2.235  13.700  0.4394 -0.3667 -0.4626
  545TIP3    H123050   4.529   2.199  13.656  1.0486 -0.4611  0.6585
  545TIP3    H223051   4.475   2.237  13.793  1.2915  4.8814 -0.5255
  546TIP3   OH223052   4.684   4.124  16.856  0.2062  0.3300 -0.0913
  546TIP3    H123053   4.603   4.120  16.908 -0.1796 -0.0281 -0.6987
  546TIP3    H223054   4.682   4.043  16.804  1.8591 -0.5869  1.1765
  547TIP3   OH223055   0.110   1.058   0.597 -0.1141  0.4214 -0.1066
  547TIP3    H123056   0.195   1.020   0.573  0.8081  2.4442 -0.2493
  547TIP3    H223057   0.050   1.026   0.530  1.0837  0.9394 -1.4885
  548TIP3   OH223058   1.324   4.445  14.408  0.0623  0.3992 -0.2580
  548TIP3    H123059   1.324   4.437  14.503 -0.8964 -2.3173 -0.3822
  548TIP3    H223060   1.417   4.450  14.384  0.2936  1.7657  0.8087
  549TIP3   OH223061   4.274   4.779  13.236  0.1409  0.4721  0.6191
  549TIP3    H123062   4.291   4.697  13.282 -0.1409  0.7570  1.2417
  549TIP3    H223063   4.270   4.845  13.305 -1.1345  0.7821  0.2701
  550TIP3   OH223064   3.109   6.330   2.782  0.1968  0.1055  0.0624
  550TIP3    H123065   3.143   6.269   2.716 -0.3253  0.0452 -0.1551
  550TIP3    H223066   3.050   6.387   2.733 -0.1863  0.0639  0.4775
  551TIP3   OH223067   6.032   5.470   2.872 -0.0122 -0.4005 -0.3570
  551TIP3    H123068   6.092   5.467   2.797 -0.8188  1.7018 -1.1604
  551TIP3    H223069   5.952   5.509   2.838  0.0679  2.0031  1.8271
  552TIP3   OH223070   0.933   0.425   3.034 -0.0573 -0.2976 -0.2590
  552TIP3    H123071   0.977   0.365   2.974 -0.9747 -2.8716  1.4505
  552TIP3    H223072   0.967   0.401   3.121 -2.2143  0.0367  0.7321
  553TIP3   OH223073   0.766   4.823   5.786  0.2513  0.3229  0.2209
  553TIP3    H123074   0.765   4.919   5.786  1.1876  0.3451  0.8687
  553TIP3    H223075   0.748   4.799   5.876 -1.1080 -0.1478 -0.1646
  554TIP3   OH223076   6.130   5.122  15.900 -0.5907 -0.1106 -0.0259
  554TIP3    H123077   6.112   5.215  15.885  2.2636  0.4427 -0.6814
  554TIP3    H223078   6.195   5.121  15.970 -0.4727 -1.6077 -0.1220
  555TIP3   OH223079   1.880   3.252   0.376  0.0147  0.2660 -0.0260
  555TIP3    H123080   1.899   3.323   0.438  0.4692  0.2337 -0.1208
  555TIP3    H223081   1.937   3.269   0.302 -0.1595  0.0203 -0.2189
  556TIP3   OH223082   2.689   2.636  16.086 -0.1956 -0.0018 -0.5339
  556TIP3    H123083   2.673   2.569  16.153  0.6671  1.0055  0.7051
  556TIP3    H223084   2.727   2.587  16.013 -0.6303 -1.0400 -0.0926
  557TIP3   OH223085   4.159   4.191   2.051  0.2614  0.1105  0.0926
  557TIP3    H123086   4.212   4.258   2.008  0.1121 -0.3079 -0.7796
  557TIP3    H223087   4.216   4.113   2.052 -0.1258 -0.1856 -0.3460
  558TIP3   OH223088   3.455   5.386   4.215  0.2872  0.0142  0.3042
  558TIP3    H123089   3.366   5.395   4.183  1.0498  0.7401 -1.7946
  558TIP3    H223090   3.450   5.318   4.283 -1.9488  0.5903  0.7977
  559TIP3   OH223091   2.687   3.511  16.354  0.1664  0.1668 -0.0463
  559TIP3    H123092   2.613   3.572  16.348  0.8971  1.0196 -0.7256
  559TIP3    H223093   2.649   3.426  16.333 -0.6384  0.5867 -0.3604
  560TIP3   OH223094   2.464   4.720  14.210 -0.2006  0.2625 -0.0215
  560TIP3    H123095   2.499   4.747  14.294  0.8051  1.6255 -0.8481
  560TIP3    H223096   2.371   4.740  14.215  0.1614  2.0570  0.1380
  561TIP3   OH223097   3.360   6.287   3.049  0.8105  0.1826 -0.5663
  561TIP3    H123098   3.292   6.220   3.043  1.3755 -0.5066  0.6072
  561TIP3    H223099   3.428   6.248   3.103  2.2397  0.8042 -1.8598
  562TIP3   OH223100   4.757   3.962  10.446  0.2884 -0.1955  0.8448
  562TIP3    H123101   4.728   4.051  10.427  1.0276  1.0025  4.3932
  562TIP3    H223102   4.677   3.915  10.471  0.2034  0.4055  1.7809
  563TIP3   OH223103   5.648   0.383   1.846  0.0406  0.2001 -0.0199
  563TIP3    H123104   5.744   0.388   1.841  0.0898 -0.5372 -0.0099
  563TIP3    H223105   5.622   0.460   1.895  0.6497  0.3020  0.1485
  564TIP3   OH223106   3.301   5.427  15.079 -0.2474  0.2285  0.2941
  564TIP3    H123107   3.285   5.466  14.993  0.4435 -0.1364 -0.0100
  564TIP3    H223108   3.216   5.431  15.123 -0.0330  2.8335  0.6221
  565TIP3   OH223109   3.552   0.404   0.842  0.0143 -0.6134  0.0181
  565TIP3    H123110   3.496   0.474   0.808 -2.4860 -1.2762  2.4452
  565TIP3    H223111   3.526   0.326   0.793 -1.4501 -0.9673  1.2985
  566TIP3   OH223112   6.372   6.423  15.353  0.2470  0.7738  0.4938
  566TIP3    H123113   6.312   6.497  15.351 -1.3539 -0.4605  1.2153
  566TIP3    H223114   6.405   6.420  15.442 -2.8985 -1.7227  1.7979
  567TIP3   OH223115   2.377   0.784   3.749 -0.2062 -0.0025  0.1105
  567TIP3    H123116   2.424   0.816   3.827  0.5536 -0.2607 -0.2296
  567TIP3    H223117   2.365   0.690   3.765 -1.5181  0.2279  0.6414
  568TIP3   OH223118   6.522   5.027   0.346  0.1233  0.0319 -0.2625
  568TIP3    H123119   6.457   5.081   0.302 -0.2102 -0.3064 -0.1935
  568TIP3    H223120   6.472   4.952   0.378  0.4987 -0.0930  0.0329
  569TIP3   OH223121   2.189   3.544   3.283  0.5143 -0.3485  0.1847
  569TIP3    H123122   2.180   3.624   3.335 -0.4419  0.5517 -1.2797
  569TIP3    H223123   2.242   3.571   3.208  0.0810 -1.0518 -0.3823
  570TIP3   OH223124   6.316   4.767   3.418 -0.1138  0.1243 -0.3273
  570TIP3    H123125   6.370   4.709   3.472  0.5152  0.4986 -0.5488
  570TIP3    H223126   6.291   4.837   3.477  0.6192  0.5620 -0.5192
  571TIP3   OH223127   3.927   1.978  16.463 -0.2619 -0.1067  0.5395
  571TIP3    H123128   3.993   1.931  16.413 -0.6132 -0.0645  0.0202
  571TIP3    H223129   3.942   2.071  16.444  0.1246 -0.0317  1.1755
  572TIP3   OH223130   5.929   0.071  12.665  0.3646  0.4146 -0.1426
  572TIP3    H123131   6.019   0.047  12.685 -0.1656  0.0698  2.1783
  572TIP3    H223132   5.898   0.003  12.605  1.0809 -0.5495  0.5525
  573TIP3   OH223133   3.236   0.573  15.783  0.0453 -0.1030  0.1546
  573TIP3    H123134   3.190   0.516  15.722 -0.8484  0.3053  0.4243
  573TIP3    H223135   3.166   0.613  15.835  0.7623 -0.2695  1.2880
  574TIP3   OH223136   6.495   4.143  15.182 -0.1974  0.7381 -0.2471
  574TIP3    H123137   6.529   4.152  15.093  0.3472 -1.0595 -0.2519
  574TIP3    H223138   6.534   4.217  15.230  2.9277 -0.5987 -0.5291
  575TIP3   OH223139   1.734   5.201  14.049  0.6873  0.3299 -0.6224
  575TIP3    H123140   1.795   5.259  14.094 -0.1666 -0.0817  1.1283
  575TIP3    H223141   1.731   5.123  14.103 -1.4898  0.3976 -0.5769
  576TIP3   OH223142   3.288   2.155  12.527  0.4101 -0.3222  0.2341
  576TIP3    H123143   3.361   2.202  12.486  2.4514 -1.5997  2.1279
  576TIP3    H223144   3.270   2.082  12.468 -1.9847  1.9658 -2.1224
  577TIP3   OH223145   2.914   0.621  14.848  0.5787  0.0137  0.4493
  577TIP3    H123146   2.988   0.669  14.810  0.2009 -0.1677 -0.5512
  577TIP3    H223147   2.837   0.673  14.825  0.0217 -1.6284 -1.7504
  578TIP3   OH223148   5.280   4.039   3.836 -0.3645  0.7080 -0.5336
  578TIP3    H123149   5.376   4.045   3.835 -0.2757  0.0132  1.1118
  578TIP3    H223150   5.254   4.056   3.745  1.3655  0.1873 -1.1692
  579TIP3   OH223151   4.683   4.905   6.755 -0.2699  0.1038 -0.1784
  579TIP3    H123152   4.733   4.872   6.681  1.8415  0.8944  0.8188
  579TIP3    H223153   4.631   4.831   6.785  1.6593 -1.3122 -0.1681
  580TIP3   OH223154   2.156   0.393   2.188 -0.1466 -0.2531  0.4622
  580TIP3    H123155   2.182   0.407   2.097  0.5288 -1.4175  0.4695
  580TIP3    H223156   2.133   0.301   2.193  0.7185 -0.4247  1.6884
  581TIP3   OH223157   2.497   2.136   2.726 -0.8565  0.5381 -0.5502
  581TIP3    H123158   2.476   2.219   2.770 -0.1686  1.5252 -2.0045
  581TIP3    H223159   2.419   2.116   2.675 -1.3457 -0.1887  0.4375
  582TIP3   OH223160   0.607   5.418   1.194 -0.4087  0.5209 -0.6175
  582TIP3    H123161   0.605   5.391   1.102 -1.3638  0.8327 -0.6945
  582TIP3    H223162   0.588   5.339   1.244 -0.9408  0.5760 -0.7356
  583TIP3   OH223163   3.167   5.762   0.349  0.0889 -0.2769  0.1986
  583TIP3    H123164   3.077   5.729   0.357 -0.7021  1.7029  0.1276
  583TIP3    H223165   3.219   5.703   0.403 -0.8240 -2.8953 -1.5824
  584TIP3   OH223166   5.600   3.540   4.239 -0.3187  0.4123  0.3923
  584TIP3    H123167   5.624   3.620   4.192 -0.3221  0.8804  1.1736
  584TIP3    H223168   5.508   3.553   4.262 -0.5864 -0.2143 -0.2486
  585TIP3   OH223169   1.825   5.633  15.556 -0.3770  0.7953  0.2863
  585TIP3    H123170   1.916   5.662  15.546  0.0816 -0.6288 -0.0094
  585TIP3    H223171   1.823   5.590  15.641 -0.6335  0.3584  0.0600
  586TIP3   OH223172   1.890   0.395  15.426 -1.0632 -0.0813 -0.2356
  586TIP3    H123173   1.909   0.456  15.355 -0.4380 -0.8329 -0.7228
  586TIP3    H223174   1.803   0.422  15.457 -1.4637  0.0897 -1.4522
  587TIP3   OH223175   6.202   5.518  16.674 -0.0804  0.4431  0.6150
  587TIP3    H123176   6.197   5.591  16.735  1.4873  0.5104  0.6992
  587TIP3    H223177   6.129   5.460  16.699 -1.0930  1.7573  0.7928
  588TIP3   OH223178   2.383   6.762   0.747  0.4453  0.0737  0.0453
  588TIP3    H123179   2.342   6.714   0.819 -0.6175  0.2564 -0.4315
  588TIP3    H223180   2.406   6.846   0.786 -1.6612  0.8293 -0.2170
  589TIP3   OH223181   2.559   2.152  14.520  0.0607 -0.4432 -0.4790
  589TIP3    H123182   2.485   2.212  14.513 -1.1445 -1.3225  2.7851
  589TIP3    H223183   2.519   2.065  14.523  1.2437 -0.9847  0.7027
  590TIP3   OH223184   3.437   4.541   2.154  0.3294 -0.3120 -0.2619
  590TIP3    H123185   3.467   4.625   2.191 -0.8190 -0.0086  0.0202
  590TIP3    H223186   3.344   4.538   2.175  0.7041 -2.5971  1.5063
  591TIP3   OH223187   4.977   2.029   2.806  0.4253  0.0299  0.3391
  591TIP3    H123188   4.902   2.032   2.746  1.1362  0.5205 -0.5523
  591TIP3    H223189   5.052   2.012   2.750  1.0883  0.3394  1.1120
  592TIP3   OH223190   1.591   5.038   4.608  0.2294 -0.2987 -0.0254
  592TIP3    H123191   1.599   5.046   4.513  1.6623 -1.7615 -0.0692
  592TIP3    H223192   1.525   4.971   4.621 -1.4581  1.3055  0.0964
  593TIP3   OH223193   6.616   2.464   1.954 -0.5609  0.0362 -0.3223
  593TIP3    H123194   6.532   2.483   1.996 -0.6215 -0.3630 -0.2638
  593TIP3    H223195   6.680   2.511   2.007 -0.5832 -0.8298  0.4915
  594TIP3   OH223196   1.341   0.655  14.903  0.4200 -0.2850 -0.1179
  594TIP3    H123197   1.417   0.634  14.957  1.2078  0.4420 -0.9073
  594TIP3    H223198   1.329   0.578  14.847  0.2021 -0.6426  0.4168
  595TIP3   OH223199   6.264   3.255   6.787  0.5276  0.3598  0.1282
  595TIP3    H123200   6.245   3.349   6.790 -1.3986 -0.0155  1.7179
  595TIP3    H223201   6.270   3.235   6.693 -2.8092  1.4353 -0.4624
  596TIP3   OH223202   0.127   5.954   3.305  0.4761 -0.1551 -0.5369
  596TIP3    H123203   0.177   6.016   3.357  1.0495 -0.0680 -1.1835
  596TIP3    H223204   0.042   5.950   3.348  0.7214  0.4156  0.0158
  597TIP3   OH223205   2.190   4.954  16.311 -0.8547  0.1784  0.1968
  597TIP3    H123206   2.226   4.925  16.395 -1.6788 -0.3897  0.3632
  597TIP3    H223207   2.247   5.026  16.285  0.0197 -0.2868  0.7524
  598TIP3   OH223208   4.303   0.974  17.079  0.0132  0.1213 -0.0555
  598TIP3    H123209   4.250   0.905  17.120  0.9856  0.2696  1.5475
  598TIP3    H223210   4.322   1.034  17.151  1.0883  0.8579 -0.9376
  599TIP3   OH223211   5.767   5.274  11.935  0.3052  0.0597  0.1801
  599TIP3    H123212   5.851   5.236  11.958  0.4210  1.2700  1.9243
  599TIP3    H223213   5.759   5.352  11.990 -1.9332  0.0137  0.0320
  600TIP3   OH223214   4.261   5.330   4.219  0.2837  0.2994  0.3311
  600TIP3    H123215   4.233   5.283   4.141  1.1279 -1.1968  0.8930
  600TIP3    H223216   4.355   5.313   4.225  0.1099 -0.2696  2.0844
  601TIP3   OH223217   2.994   5.633   2.844  0.3809  0.3402 -0.1378
  601TIP3    H123218   2.906   5.635   2.806  0.4522  1.0801 -0.2810
  601TIP3    H223219   3.000   5.548   2.886 -0.3494  0.2216 -0.2600
  602TIP3   OH223220   5.123   1.669   5.944 -0.4120 -0.1491 -0.6336
  602TIP3    H123221   5.079   1.660   5.860 -0.3586  1.1519 -0.8140
  602TIP3    H223222   5.211   1.700   5.923 -0.6540  0.9855 -0.0801
  603TIP3   OH223223   1.607   3.881  15.783 -0.4014  0.0537  0.2131
  603TIP3    H123224   1.672   3.936  15.827 -0.0932 -0.2641  0.1576
  603TIP3    H223225   1.657   3.830  15.720 -0.7647  0.1046 -0.1256
  604TIP3   OH223226   0.994   3.140  10.919 -0.6876  0.0463 -0.0287
  604TIP3    H123227   0.946   3.179  10.846 -1.2357 -0.8815 -0.1808
  604TIP3    H223228   0.958   3.181  10.997 -1.5149 -0.4115 -0.1621
  605TIP3   OH223229   6.805   2.827  14.099 -0.8587  0.0840  0.2764
  605TIP3    H123230   6.810   2.825  14.004  1.4946  0.6078  0.3270
  605TIP3    H223231   6.734   2.766  14.121  1.0759 -3.1337 -1.6709
  606TIP3   OH223232   2.051   6.063  14.003  0.1031 -0.0132  0.7695
  606TIP3    H123233   2.119   6.000  13.980  0.7722  0.8519  0.3292
  606TIP3    H223234   2.095   6.128  14.056  0.0774  1.5403 -1.0187
  607TIP3   OH223235   3.129   6.323  11.877  0.3210 -0.0897  0.2998
  607TIP3    H123236   3.156   6.233  11.859 -1.3869 -0.7010  0.6545
  607TIP3    H223237   3.181   6.349  11.953  0.7768 -0.7912  0.2330
  608TIP3   OH223238   2.297   4.817  12.675  0.0551  0.1821 -0.2069
  608TIP3    H123239   2.348   4.751  12.723  0.4096  0.0590 -0.7309
  608TIP3    H223240   2.265   4.770  12.598 -1.5813  0.0257  0.5277
  609TIP3   OH223241   5.834   5.217  16.136  0.3721  0.4265  0.1692
  609TIP3    H123242   5.868   5.199  16.048 -0.3005 -0.3213  0.0578
  609TIP3    H223243   5.742   5.241  16.122  0.1949  0.0615  0.6892
  610TIP3   OH223244   0.057   0.355  16.799 -0.0573  0.3233  0.2921
  610TIP3    H123245   0.039   0.288  16.733 -0.0841 -0.9143  1.5235
  610TIP3    H223246   0.013   0.434  16.766 -0.8409 -0.5159 -0.7097
  611TIP3   OH223247   6.289   5.638  16.046  0.9481 -0.9282 -0.9103
  611TIP3    H123248   6.279   5.643  16.141  1.4115  1.4824 -0.9325
  611TIP3    H223249   6.374   5.596  16.034  0.5280 -1.9906 -0.2983
  612TIP3   OH223250   5.348   3.856  15.772  0.0388  0.4057  0.4777
  612TIP3    H123251   5.273   3.899  15.731 -0.2327 -0.4586  0.0265
  612TIP3    H223252   5.377   3.793  15.706  0.3977 -0.1156  1.1260
  613TIP3   OH223253   2.296   6.691   6.074 -0.6681  0.0388 -0.1687
  613TIP3    H123254   2.360   6.635   6.117  1.3879  2.5517  0.2793
  613TIP3    H223255   2.299   6.666   5.982  0.8332 -0.0452 -0.1110
  614TIP3   OH223256   3.109   4.684   3.390 -0.5877 -0.2115  0.0896
  614TIP3    H123257   3.082   4.593   3.376 -2.0753  0.1350  0.5296
  614TIP3    H223258   3.157   4.682   3.473 -0.6613 -0.5901  0.1254
  615TIP3   OH223259   2.685   4.910   0.315 -0.0495 -0.1025  0.0550
  615TIP3    H123260   2.656   4.912   0.406 -0.6176  1.5156 -0.1316
  615TIP3    H223261   2.780   4.926   0.320  0.3131 -2.0820  0.4503
  616TIP3   OH223262   2.362   0.411   4.852 -0.1914  0.3608 -0.5204
  616TIP3    H123263   2.336   0.380   4.939  0.1088  0.8146 -0.2681
  616TIP3    H223264   2.457   0.415   4.855  0.1307 -3.0241 -2.0228
  617TIP3   OH223265   4.124   6.460   3.505 -0.2387 -0.6320  0.2107
  617TIP3    H123266   4.050   6.407   3.475  1.6581 -2.0787 -2.3656
  617TIP3    H223267   4.154   6.505   3.426  0.6735  1.1530  1.5187
  618TIP3   OH223268   6.497   1.655  15.641  0.2036  0.4409 -0.0998
  618TIP3    H123269   6.587   1.680  15.665  1.2613 -1.9506 -1.2018
  618TIP3    H223270   6.470   1.721  15.578  1.4547  0.8294 -0.2583
  619TIP3   OH223271   6.803   2.840  15.596 -0.1328 -0.1342  0.5823
  619TIP3    H123272   6.810   2.892  15.676 -1.7998 -1.7925  1.8792
  619TIP3    H223273   6.723   2.871  15.554 -1.9464 -2.5043  2.1041
  620TIP3   OH223274   1.736   4.060   2.665 -0.4905 -0.4895 -0.3312
  620TIP3    H123275   1.647   4.082   2.690 -0.0129  0.9799  0.1599
  620TIP3    H223276   1.787   4.140   2.680  1.2615 -1.7890  1.1182
  621TIP3   OH223277   5.561   5.654   5.997  0.2616 -0.2022  0.2690
  621TIP3    H123278   5.503   5.703   6.056 -0.3170  0.0365 -0.4848
  621TIP3    H223279   5.634   5.628   6.052 -0.4645 -0.3354  1.1952
  622TIP3   OH223280   5.656   2.876  13.635 -0.0402 -0.1207 -0.1120
  622TIP3    H123281   5.724   2.864  13.701 -0.6374 -1.7066  0.2746
  622TIP3    H223282   5.691   2.831  13.557 -0.9161 -1.6186  0.3185
  623TIP3   OH223283   4.314   4.107  11.650 -0.2678 -0.2114  0.3253
  623TIP3    H123284   4.330   4.020  11.685  1.6772  0.3952  1.0809
  623TIP3    H223285   4.255   4.148  11.713 -2.3256 -1.3775 -0.7407
  624TIP3   OH223286   1.268   0.787   1.367  0.2257 -0.1067  0.2576
  624TIP3    H123287   1.306   0.805   1.281 -1.8856  0.3762 -0.6369
  624TIP3    H223288   1.174   0.793   1.353 -0.1849 -0.4203  2.5411
  625TIP3   OH223289   4.031   2.457  15.054  0.2936  0.5082 -0.2588
  625TIP3    H123290   4.011   2.364  15.061 -1.3766  0.6443 -2.1225
  625TIP3    H223291   4.090   2.463  14.979  0.5616  0.9192 -0.0156
  626TIP3   OH223292   2.752   1.253  16.823  0.2230 -0.2586 -0.5161
  626TIP3    H123293   2.681   1.305  16.860 -0.3939 -2.2869  1.3778
  626TIP3    H223294   2.739   1.258  16.729 -2.0604 -0.0024 -0.2453
  627TIP3   OH223295   1.552   1.324  11.059  0.3943  0.3722  0.4318
  627TIP3    H123296   1.580   1.414  11.042  1.0688 -0.0136 -0.5634
  627TIP3    H223297   1.491   1.331  11.133 -0.4997  1.7839 -0.4077
  628TIP3   OH223298   0.629   0.045  15.737 -0.6217  0.3702 -0.4383
  628TIP3    H123299   0.562   0.092  15.787 -0.5568 -0.8864  0.9175
  628TIP3    H223300   0.711   0.086  15.763 -0.4177 -1.2440  1.8247
  629TIP3   OH223301   6.456   6.293  11.981  0.2399  0.1000 -0.0569
  629TIP3    H123302   6.483   6.382  11.959 -2.1079  0.7365 -0.6717
  629TIP3    H223303   6.445   6.250  11.896  1.1298 -0.7338  0.2332
  630TIP3   OH223304   4.913   5.914  14.702  0.3450  1.2055  0.0629
  630TIP3    H123305   4.926   5.876  14.789 -1.2039 -3.2942 -1.4013
  630TIP3    H223306   4.819   5.929  14.696  0.0585 -0.8058 -1.5223
  631TIP3   OH223307   1.750   3.793   5.583  0.1174 -0.3105  0.2149
  631TIP3    H123308   1.684   3.847   5.539  0.1596 -2.3583 -2.6497
  631TIP3    H223309   1.704   3.712   5.605  0.7110 -0.2104  2.0249
  632TIP3   OH223310   1.083   4.033  10.616 -0.5628 -0.4489  0.1527
  632TIP3    H123311   1.158   4.049  10.673 -0.5524 -1.8161  0.5552
  632TIP3    H223312   1.122   4.011  10.531 -0.5341 -0.0204  0.0561
  633TIP3   OH223313   3.192   2.202   1.964  0.2406  0.7947  0.0020
  633TIP3    H123314   3.190   2.116   1.922 -2.3787  0.2124  1.0783
  633TIP3    H223315   3.211   2.184   2.056 -0.5516  1.2961  0.2811
  634TIP3   OH223316   3.493   2.341   3.253 -0.3439  0.4628 -0.2855
  634TIP3    H123317   3.420   2.370   3.307  0.1600  2.4687 -0.6145
  634TIP3    H223318   3.521   2.419   3.206  0.1966 -0.8897 -2.3287
  635TIP3   OH223319   3.721   4.716   3.204 -0.7941 -0.1301  0.1052
  635TIP3    H123320   3.736   4.627   3.236  1.0535  0.5088  1.1818
  635TIP3    H223321   3.658   4.706   3.133  1.5342 -2.6967 -1.8383
  636TIP3   OH223322   3.688   6.544   3.238 -0.1120 -0.2545 -0.5918
  636TIP3    H123323   3.692   6.616   3.300 -0.7214 -0.2370 -0.5676
  636TIP3    H223324   3.625   6.573   3.172  0.3169 -0.3904 -1.0664
  637TIP3   OH223325   2.541   3.877   1.511  0.4215 -0.6864  0.2134
  637TIP3    H123326   2.540   3.808   1.578 -1.7712  0.4523  1.4793
  637TIP3    H223327   2.571   3.955   1.558  2.0796 -0.5590 -0.9980
  638TIP3   OH223328   3.104   2.491   3.115 -0.1896 -0.8085 -0.2988
  638TIP3    H123329   3.158   2.568   3.099 -0.8974 -0.2525 -0.0665
  638TIP3    H223330   3.084   2.495   3.209 -1.7324 -0.2591 -0.6229
  639TIP3   OH223331   4.983   2.730   3.406  0.1932  0.1801 -0.4788
  639TIP3    H123332   4.943   2.801   3.356 -0.2283  0.5753  0.3788
  639TIP3    H223333   4.930   2.653   3.386  0.2591  0.2520 -0.9237
  640TIP3   OH223334   0.404   6.150   3.249 -0.3871 -0.1223 -0.1975
  640TIP3    H123335   0.473   6.208   3.280  1.7145 -2.7386  0.3997
  640TIP3    H223336   0.348   6.135   3.325 -0.6309  0.6507 -0.2170
  641TIP3   OH223337   5.191   2.372   2.594  1.2404 -0.0361  0.4044
  641TIP3    H123338   5.275   2.353   2.553  0.3012 -1.7206 -0.8697
  641TIP3    H223339   5.171   2.462   2.569  2.4009  0.1858  0.2625
  642TIP3   OH223340   0.584   3.603  14.514  1.0555  0.4138  0.1778
  642TIP3    H123341   0.601   3.636  14.602 -0.4569 -0.3950  0.8193
  642TIP3    H223342   0.549   3.679  14.467  2.4624  1.0122  0.0536
  643TIP3   OH223343   2.217   4.403   1.840  0.1357  0.6001  0.0624
  643TIP3    H123344   2.159   4.350   1.896 -0.0452  1.0610  0.3158
  643TIP3    H223345   2.224   4.487   1.885  1.4080  0.3928  0.2938
  644TIP3   OH223346   3.044   5.184   0.365  0.1358 -0.5286 -0.6735
  644TIP3    H123347   3.040   5.246   0.438  2.0029  1.7610 -2.3320
  644TIP3    H223348   3.005   5.232   0.291  0.2616 -1.9178 -1.6794
  645TIP3   OH223349   4.718   3.582   6.196 -0.7261  0.0963 -0.1408
  645TIP3    H123350   4.635   3.564   6.240 -0.3645  0.6178  0.7762
  645TIP3    H223351   4.765   3.499   6.199 -0.9673 -0.0430 -0.1435
  646TIP3   OH223352   2.500   6.518   6.114  0.2324  0.3798 -0.5024
  646TIP3    H123353   2.437   6.448   6.131 -0.6240  0.9520 -1.2593
  646TIP3    H223354   2.569   6.503   6.178  0.4477 -1.6064 -1.1342
  647TIP3   OH223355   0.269   5.364   4.731 -0.0977 -0.2000 -0.0637
  647TIP3    H123356   0.219   5.318   4.663 -1.4058  1.9891 -0.7076
  647TIP3    H223357   0.251   5.457   4.715  3.6855  0.7098  0.1391
  648TIP3   OH223358   4.418   0.674   2.112 -0.8617  0.9455  0.1528
  648TIP3    H123359   4.463   0.751   2.078 -0.3251 -0.9053 -3.8744
  648TIP3    H223360   4.328   0.682   2.080 -0.1358 -1.2662 -2.8270
  649TIP3   OH223361   5.725   1.054  13.036  0.0475 -0.1392  0.0463
  649TIP3    H123362   5.730   0.983  13.100  0.5705 -2.4434 -2.4052
  649TIP3    H223363   5.640   1.044  12.994 -0.7566  2.0210  0.9979
  650TIP3   OH223364   3.542   2.196  15.604 -0.1278  0.2883  0.0978
  650TIP3    H123365   3.560   2.105  15.579 -2.9282 -0.3800  0.1572
  650TIP3    H223366   3.569   2.247  15.527  0.8328 -0.6469 -0.2152
  651TIP3   OH223367   1.373   4.332   0.076  0.6825 -0.8239 -0.0613
  651TIP3    H123368   1.368   4.368  -0.012  1.8096 -2.5671 -0.8840
  651TIP3    H223369   1.283   4.309   0.098 -0.5290  4.0569  1.3226
  652TIP3   OH223370   5.109   1.249  12.670  0.1383  0.8239  0.0790
  652TIP3    H123371   5.039   1.304  12.705  0.5643  0.1149  2.1819
  652TIP3    H223372   5.151   1.212  12.747  1.6727 -0.2152 -1.1990
  653TIP3   OH223373   0.739   4.358  13.436  0.1211  0.6134 -0.1652
  653TIP3    H123374   0.752   4.276  13.388  2.1372  0.3965  0.6615
  653TIP3    H223375   0.663   4.341  13.492  0.4207 -0.6675 -0.1125
  654TIP3   OH223376   6.125   3.243   3.066 -0.0622 -0.3734 -0.1419
  654TIP3    H123377   6.139   3.256   2.973  2.6915 -0.5638  0.1507
  654TIP3    H223378   6.128   3.148   3.078  1.7213 -0.2859  0.3516
  655TIP3   OH223379   0.441   0.328   1.752  0.3911 -0.0126  0.5854
  655TIP3    H123380   0.369   0.325   1.690  0.0731  0.3025  0.9332
  655TIP3    H223381   0.513   0.284   1.707  0.6348  1.5186 -0.5919
  656TIP3   OH223382   4.098   4.825   1.099 -0.2687 -0.2846 -0.0772
  656TIP3    H123383   4.161   4.868   1.041  1.2700  0.1815  1.8200
  656TIP3    H223384   4.048   4.768   1.042  2.7481 -1.7042 -1.5368
  657TIP3   OH223385   1.873   2.017   4.649  0.1484  0.0595 -0.1954
  657TIP3    H123386   1.828   1.938   4.618 -0.7143 -0.2360  1.6652
  657TIP3    H223387   1.844   2.027   4.739  0.9747  1.9987 -0.0961
  658TIP3   OH223388   3.691   3.097  13.045  0.2952  0.5303  0.0514
  658TIP3    H123389   3.704   3.164  13.112 -1.6930 -0.0188  1.0598
  658TIP3    H223390   3.757   3.116  12.978  1.2501  2.0929  1.3825
  659TIP3   OH223391   5.973   5.676  15.395  1.1409  0.7484 -0.3588
  659TIP3    H123392   5.984   5.760  15.350 -1.1991  0.6457 -1.2757
  659TIP3    H223393   5.883   5.650  15.376  1.3373 -1.2888  1.1104
  660TIP3   OH223394   5.659   2.257  16.905  0.2096 -0.3521 -0.0092
  660TIP3    H123395   5.752   2.264  16.882  0.5871 -1.3191  1.1458
  660TIP3    H223396   5.622   2.341  16.878  1.6263  0.4557  0.4457
  661TIP3   OH223397   1.237   2.459  11.528 -0.4521  0.1727  0.5235
  661TIP3    H123398   1.262   2.398  11.596  0.1562 -0.6494 -0.4051
  661TIP3    H223399   1.223   2.405  11.450  0.3168  1.2230 -0.3832
  662TIP3   OH223400   1.350   3.477  13.688  0.7566  0.0432  0.0993
  662TIP3    H123401   1.271   3.481  13.634  0.0165  1.4990  1.2119
  662TIP3    H223402   1.419   3.513  13.632  0.1458  0.8880 -0.1410
  663TIP3   OH223403   6.026   4.254  10.994  0.3145 -0.2429  0.1698
  663TIP3    H123404   5.952   4.308  10.964  1.7456  1.0195 -1.2418
  663TIP3    H223405   5.992   4.208  11.071 -2.0333  0.0433 -0.6217
  664TIP3   OH223406   4.489   3.285   1.897  0.4090 -0.1121 -0.1382
  664TIP3    H123407   4.580   3.257   1.908  1.1379  2.1907  0.2136
  664TIP3    H223408   4.470   3.270   1.804  1.5906  0.5535 -0.4996
  665TIP3   OH223409   0.132   1.459   2.205  0.4281 -0.0575  0.2397
  665TIP3    H123410   0.193   1.471   2.132  1.0184  0.0349  0.7366
  665TIP3    H223411   0.067   1.528   2.193 -0.5188 -1.1496 -1.2080
  666TIP3   OH223412   5.645   5.903  13.697 -0.1541  0.1535  0.3085
  666TIP3    H123413   5.606   5.878  13.613  0.3445 -1.1850  0.4627
  666TIP3    H223414   5.628   5.997  13.703 -0.2494  0.2723 -1.2679
  667TIP3   OH223415   5.044   5.937  16.520 -0.1990  0.4302 -0.3649
  667TIP3    H123416   5.086   5.861  16.559  1.0097  0.3064 -1.8433
  667TIP3    H223417   5.088   5.950  16.437 -1.1350  2.0879 -0.6593
  668TIP3   OH223418   5.836   0.713   5.236 -0.6027 -0.2310  0.3240
  668TIP3    H123419   5.927   0.709   5.266 -0.3559  1.3139 -0.1336
  668TIP3    H223420   5.816   0.623   5.209  1.5319 -0.2106 -1.6714
  669TIP3   OH223421   1.153   5.753  14.882 -0.0530  0.0649  0.1127
  669TIP3    H123422   1.243   5.733  14.906  0.1483 -0.7709 -1.2282
  669TIP3    H223423   1.104   5.673  14.903 -1.0341  1.3216  3.1977
  670TIP3   OH223424   6.661   2.640   2.924 -0.3121  0.2552 -0.2680
  670TIP3    H123425   6.592   2.706   2.914  0.2342  0.8364 -0.2774
  670TIP3    H223426   6.651   2.584   2.846 -1.1986 -0.0915  0.0727
  671TIP3   OH223427   0.278   6.676   5.695  0.3495  0.3533  0.1007
  671TIP3    H123428   0.337   6.638   5.760  2.5407  1.4714 -1.1218
  671TIP3    H223429   0.333   6.693   5.619 -1.3568  2.2995 -0.8152
  672TIP3   OH223430   0.332   1.290  15.502 -0.1739 -0.5100  0.4444
  672TIP3    H123431   0.337   1.363  15.562  0.7963  0.4448 -0.7438
  672TIP3    H223432   0.244   1.295  15.465  0.4625  1.1896 -0.9520
  673TIP3   OH223433   0.364   2.485  11.683 -0.1627 -0.3777  0.1823
  673TIP3    H123434   0.283   2.519  11.720 -0.0741  2.1955 -1.6366
  673TIP3    H223435   0.336   2.431  11.609 -0.2392 -1.0630  0.7082
  674TIP3   OH223436   0.020   5.931  11.752  0.2766 -0.2228  0.0896
  674TIP3    H123437  -0.031   5.862  11.709  1.3242 -2.3592  2.0008
  674TIP3    H223438  -0.038   6.006  11.756 -1.6016 -1.5734 -0.4727
  675TIP3   OH223439   4.451   4.513   2.948  0.0748 -0.2595  0.1332
  675TIP3    H123440   4.423   4.537   2.860 -0.7501 -1.9488 -0.1115
  675TIP3    H223441   4.489   4.426   2.938  2.7797  0.7395  0.9750
  676TIP3   OH223442   1.869   3.081   2.332  0.0746 -0.0646  0.1838
  676TIP3    H123443   1.873   3.153   2.269  1.0399  0.4318  0.7852
  676TIP3    H223444   1.802   3.022   2.298 -2.8882  2.5119  1.1016
  677TIP3   OH223445   5.411   6.025  11.251 -0.3560 -0.4305  0.7747
  677TIP3    H123446   5.506   6.019  11.241 -0.0201  1.5409  2.0620
  677TIP3    H223447   5.386   6.097  11.193 -0.7781  0.1975  1.7168
  678TIP3   OH223448   5.802   2.546   3.025  0.7619  0.4473  0.0629
  678TIP3    H123449   5.737   2.515   2.962 -0.1549  2.8962 -0.3061
  678TIP3    H223450   5.761   2.533   3.111  1.5006 -1.7176  0.1513
  679TIP3   OH223451   4.980   1.923   3.693  0.8624 -0.4961 -0.4533
  679TIP3    H123452   5.040   1.964   3.631  1.4305 -0.2975  0.2149
  679TIP3    H223453   4.896   1.920   3.647  1.0813  0.3815 -0.9374
  680TIP3   OH223454   0.071   5.799  13.164  0.1047  0.5429 -0.1109
  680TIP3    H123455  -0.005   5.822  13.111 -1.2473 -1.1535  0.9683
  680TIP3    H223456   0.133   5.761  13.102 -2.4266 -3.7966 -0.4172
  681TIP3   OH223457   5.831   4.263  15.730  0.5921  0.0752  0.3819
  681TIP3    H123458   5.831   4.292  15.639  0.2523 -0.2643  0.2691
  681TIP3    H223459   5.802   4.171  15.726  1.2256 -0.1509  0.7704
  682TIP3   OH223460   3.828   6.187   3.593  0.0686  0.2824  0.5461
  682TIP3    H123461   3.761   6.184   3.525 -1.4510 -0.7138  2.0138
  682TIP3    H223462   3.854   6.280   3.597  1.0387  0.2085 -2.0897
  683TIP3   OH223463   1.394   1.262   0.706  0.1274 -0.3240 -0.0223
  683TIP3    H123464   1.474   1.238   0.752  1.1037  1.2167 -0.8439
  683TIP3    H223465   1.422   1.279   0.616 -1.3453 -0.9786 -0.6472
  684TIP3   OH223466   6.127   4.844  16.891  0.2798  0.4315 -0.2087
  684TIP3    H123467   6.168   4.759  16.902 -0.3078  0.0975 -0.5626
  684TIP3    H223468   6.036   4.830  16.917 -0.0726  0.6938 -1.2575
  685TIP3   OH223469   0.790   1.759   4.544 -0.8477  0.3041 -0.0205
  685TIP3    H123470   0.785   1.853   4.527  1.0448  0.3674 -0.3557
  685TIP3    H223471   0.843   1.752   4.623 -0.3815 -0.5091 -0.4008
  686TIP3   OH223472   4.567   0.488   2.740 -0.0556 -0.3550  0.5416
  686TIP3    H123473   4.477   0.454   2.733 -0.5636  0.0532  3.6763
  686TIP3    H223474   4.560   0.579   2.709 -1.0150  0.0312  1.8260
  687TIP3   OH223475   3.976   1.914  11.853 -0.5530 -0.2895 -0.4384
  687TIP3    H123476   3.886   1.917  11.886 -0.1268  1.1241  0.6944
  687TIP3    H223477   3.969   1.874  11.767 -1.8709 -3.2181  0.8772
  688TIP3   OH223478   5.398   4.386  14.243  0.4305 -0.0879 -0.5332
  688TIP3    H123479   5.327   4.379  14.307  0.2482  0.8729 -0.6254
  688TIP3    H223480   5.442   4.301  14.248  0.3567 -0.0752  0.7861
  689TIP3   OH223481   6.765   2.429  14.742 -0.0743 -0.3539 -0.2245
  689TIP3    H123482   6.857   2.438  14.769 -0.1389 -0.2976 -0.0198
  689TIP3    H223483   6.722   2.390  14.818 -0.3297  0.1405 -0.1127
  690TIP3   OH223484   0.983   5.111   3.217 -0.1676  0.1070 -0.2713
  690TIP3    H123485   0.890   5.130   3.211 -0.1140  0.8421  0.9025
  690TIP3    H223486   0.987   5.019   3.244 -0.4869 -0.5268 -2.2037
  691TIP3   OH223487   6.547   2.387  13.821 -0.1314 -0.2020  0.5917
  691TIP3    H123488   6.596   2.314  13.782  2.5346  1.7666 -0.0542
  691TIP3    H223489   6.604   2.420  13.890 -1.1044  1.4404  0.6577
  692TIP3   OH223490   6.627   3.071   2.107  0.0184 -0.4976 -0.5234
  692TIP3    H123491   6.620   3.023   2.189 -2.3250  3.2662  1.7697
  692TIP3    H223492   6.568   3.025   2.047  0.0073 -2.0170  0.5990
  693TIP3   OH223493   4.641   2.302   6.242  0.3280 -0.3780  0.3991
  693TIP3    H123494   4.559   2.254   6.238 -1.0178  1.7515  0.7158
  693TIP3    H223495   4.649   2.329   6.334  0.3190  1.1174 -0.0132
  694TIP3   OH223496   3.763   5.703   1.941  0.4705  0.4739  0.4794
  694TIP3    H123497   3.671   5.700   1.916 -0.1133 -4.1320  2.2803
  694TIP3    H223498   3.808   5.736   1.863 -2.2171 -2.4144 -2.5657
  695TIP3   OH223499   1.827   1.475  10.864 -0.2136  0.5429  0.6209
  695TIP3    H123500   1.806   1.395  10.913 -2.6880 -0.0055 -1.1760
  695TIP3    H223501   1.874   1.530  10.928 -0.8304 -1.2222  2.7248
  696TIP3   OH223502   5.219   2.159   2.272 -0.2280  0.1328  0.6095
  696TIP3    H123503   5.254   2.222   2.208  0.0387 -2.5686 -2.1478
  696TIP3    H223504   5.125   2.177   2.273 -0.0889  0.9612  0.3519
  697TIP3   OH223505   0.244   4.929   5.479  0.4178 -0.8079 -0.0941
  697TIP3    H123506   0.324   4.944   5.530  0.5507 -1.0448 -0.2345
  697TIP3    H223507   0.209   5.017   5.464  0.2463 -0.7453  0.6141
  698TIP3   OH223508   4.624   2.560   4.089 -0.2152 -0.0232  0.6109
  698TIP3    H123509   4.576   2.488   4.048 -0.7858  1.1534 -0.9168
  698TIP3    H223510   4.666   2.605   4.015  1.2189  0.4392  1.6702
  699TIP3   OH223511   3.668   1.443   0.344  0.0672 -0.3683  0.5269
  699TIP3    H123512   3.660   1.504   0.418  1.7247  2.9603 -1.8339
  699TIP3    H223513   3.610   1.478   0.277 -0.6771 -2.7800 -0.2129
  700TIP3   OH223514   1.562   0.275  12.314  0.5377  0.1709 -0.5296
  700TIP3    H123515   1.605   0.313  12.390  1.3713  2.3963 -2.0142
  700TIP3    H223516   1.522   0.350  12.269 -0.3133 -1.1337 -2.0480
  701TIP3   OH223517   5.570   4.104  12.054 -0.1184  0.4293 -0.5358
  701TIP3    H123518   5.627   4.036  12.018  1.2514  1.5835 -0.6227
  701TIP3    H223519   5.555   4.164  11.981 -0.2278  0.9061 -0.1318
  702TIP3   OH223520   3.810   5.000  16.751 -0.2077 -0.0879 -0.1198
  702TIP3    H123521   3.847   5.038  16.671 -0.2973 -1.8168 -1.0298
  702TIP3    H223522   3.742   4.940  16.720 -2.2865  1.3389  1.4148
  703TIP3   OH223523   0.493   6.689  15.295 -0.5726 -0.0420 -0.1893
  703TIP3    H123524   0.436   6.620  15.329 -1.6139  0.7444 -0.2828
  703TIP3    H223525   0.569   6.642  15.259 -0.1350 -0.9863  1.8380
  704TIP3   OH223526   4.338   2.726   2.050  0.3431 -0.1337 -0.0254
  704TIP3    H123527   4.329   2.821   2.061 -0.8298 -0.2976  0.5777
  704TIP3    H223528   4.359   2.714   1.958  0.0386  0.6850 -0.2066
  705TIP3   OH223529   5.079   5.914   1.380 -0.0571 -0.2071 -0.3633
  705TIP3    H123530   5.014   5.950   1.440 -0.7031 -0.6668 -0.7705
  705TIP3    H223531   5.163   5.945   1.413 -0.3539 -0.8498  1.0612
  706TIP3   OH223532   6.632   6.564   2.589  0.0226  0.1025  0.2631
  706TIP3    H123533   6.659   6.631   2.527 -0.2707  1.5676  1.6607
  706TIP3    H223534   6.540   6.584   2.607 -0.0264 -0.5887  0.8124
  707TIP3   OH223535   4.991   3.099   4.750  0.2430  0.0797 -0.2544
  707TIP3    H123536   5.069   3.123   4.701 -0.2971 -0.2721 -1.3073
  707TIP3    H223537   5.010   3.125   4.840 -0.1718  4.2425 -1.1729
  708TIP3   OH223538   2.038   6.200   1.757  0.0795  0.0247  0.3097
  708TIP3    H123539   2.064   6.119   1.712  3.6084  1.6954 -1.0885
  708TIP3    H223540   2.076   6.191   1.844  0.4317  0.1089  0.1697
  709TIP3   OH223541   2.569   1.806   0.052 -0.3292 -0.2515  0.2307
  709TIP3    H123542   2.510   1.839   0.120  0.7079 -0.7428  1.4046
  709TIP3    H223543   2.528   1.726   0.020 -1.2542  0.4384 -0.3561
  710TIP3   OH223544   1.835   3.294   1.765 -0.2424  0.3165  0.6159
  710TIP3    H123545   1.829   3.316   1.858  1.8445  1.0118  0.6491
  710TIP3    H223546   1.836   3.198   1.763  0.6008  0.2922  1.4140
  711TIP3   OH223547   5.860   3.085   3.307 -0.7199  0.4690  0.0894
  711TIP3    H123548   5.784   3.046   3.351 -0.2280 -1.0458 -0.3547
  711TIP3    H223549   5.933   3.070   3.366 -0.2880 -0.4394 -0.6562
  712TIP3   OH223550   6.294   5.041  16.779  0.2315 -0.3785 -0.6027
  712TIP3    H123551   6.248   4.981  16.837 -0.3329  0.5915 -0.0018
  712TIP3    H223552   6.386   5.035  16.807  0.1922 -1.0283 -0.6165
  713TIP3   OH223553   6.119   5.896   6.048  0.0114  0.2498 -0.1536
  713TIP3    H123554   6.131   5.889   5.953 -0.6177 -0.1125 -0.2168
  713TIP3    H223555   6.024   5.896   6.060  0.0151  2.4494  0.3344
  714TIP3   OH223556   4.551   2.605   2.175 -0.3265  0.2190 -0.4060
  714TIP3    H123557   4.592   2.665   2.237  1.7311 -0.7646 -0.7430
  714TIP3    H223558   4.470   2.649   2.149 -0.5695  1.2765  1.9077
  715TIP3   OH223559   3.948   2.150   5.769 -0.0945 -0.1631 -0.3606
  715TIP3    H123560   3.891   2.189   5.702  1.9647  0.0403 -2.1247
  715TIP3    H223561   3.903   2.166   5.851 -2.7055 -0.3024 -1.6658
  716TIP3   OH223562   0.087   4.176   0.226 -0.2781  0.2313 -0.1489
  716TIP3    H123563   0.053   4.254   0.270 -0.0077  0.4689 -0.3547
  716TIP3    H223564   0.070   4.104   0.287  0.0624  0.5519  0.3297
  717TIP3   OH223565   6.400   3.428   0.339  0.2674 -0.1339  0.3568
  717TIP3    H123566   6.375   3.491   0.406  4.0247 -0.4929  2.3569
  717TIP3    H223567   6.465   3.475   0.286  0.7779 -1.3338 -0.1072
  718TIP3   OH223568   4.735   2.603  11.538  0.3506  0.0651  0.3549
  718TIP3    H123569   4.798   2.642  11.599 -0.2750 -0.7891  1.6136
  718TIP3    H223570   4.665   2.569  11.595 -1.2309  0.9271 -0.9770
  719TIP3   OH223571   0.319   6.279   5.269  0.1207 -0.8399 -0.1265
  719TIP3    H123572   0.254   6.245   5.207  0.8361  1.1574 -2.1482
  719TIP3    H223573   0.298   6.372   5.277  1.7727 -0.4734  0.3972
  720TIP3   OH223574   4.445   1.142  16.291 -0.2181 -0.2269 -0.1007
  720TIP3    H123575   4.497   1.101  16.222  1.9924  0.0588  1.3141
  720TIP3    H223576   4.417   1.226  16.254 -0.7820 -0.9226 -1.3222
  721TIP3   OH223577   3.607   4.260   1.133  0.3441  0.3097  0.0243
  721TIP3    H123578   3.670   4.332   1.139 -0.0072  0.6635 -0.4219
  721TIP3    H223579   3.660   4.184   1.108  0.9951 -0.0159  2.2317
  722TIP3   OH223580   2.267   3.205  11.366  0.1573 -0.5592 -0.2550
  722TIP3    H123581   2.198   3.211  11.432  0.1296 -1.7318 -0.1526
  722TIP3    H223582   2.232   3.145  11.300 -0.1727  1.2436 -1.8247
  723TIP3   OH223583   4.073   0.379  15.151  0.0816  0.8562 -0.6104
  723TIP3    H123584   4.097   0.448  15.090  1.2755  0.3077 -0.7839
  723TIP3    H223585   4.122   0.302  15.122 -1.0946 -0.0424 -0.3289
  724TIP3   OH223586   1.269   4.067  11.954  0.1963  0.3863 -0.1872
  724TIP3    H123587   1.298   4.147  11.909  0.5235  0.9510  0.9920
  724TIP3    H223588   1.295   4.080  12.045 -2.5815  0.3853  0.7113
  725TIP3   OH223589   4.916   0.552   6.463 -0.7012 -0.3502 -0.3334
  725TIP3    H123590   4.974   0.511   6.527 -0.3314 -0.6046 -0.8259
  725TIP3    H223591   4.895   0.637   6.501 -1.1894 -0.8478  0.5320
  726TIP3   OH223592   1.229   4.467   1.655 -0.0474  0.3446 -0.5035
  726TIP3    H123593   1.311   4.422   1.678  0.0991  0.1571 -1.3393
  726TIP3    H223594   1.198   4.421   1.577 -0.8517  0.5463 -0.3116
  727TIP3   OH223595   5.084   0.144   3.650  0.1490 -0.4983  0.8395
  727TIP3    H123596   5.075   0.235   3.623  0.3481 -0.7186 -0.0167
  727TIP3    H223597   5.068   0.144   3.744  1.5292  0.6254  1.1077
  728TIP3   OH223598   5.265   1.822   3.598  0.0678  0.1108 -0.1954
  728TIP3    H123599   5.211   1.748   3.626  3.1554 -1.6110  1.8245
  728TIP3    H223600   5.336   1.781   3.548 -0.0119  2.1997 -2.2005
  729TIP3   OH223601   4.651   2.591  13.489  0.2755 -0.1124 -0.6229
  729TIP3    H123602   4.732   2.609  13.442 -0.1461  0.3824 -1.1797
  729TIP3    H223603   4.617   2.510  13.449  1.5279 -1.5299  1.0231
  730TIP3   OH223604   0.870   2.140   5.684  0.5002  0.0528  0.0417
  730TIP3    H123605   0.778   2.122   5.664  0.3960 -1.2296  1.5314
  730TIP3    H223606   0.902   2.188   5.607 -1.6454  1.3941 -0.0991
  731TIP3   OH223607   6.748   5.909   3.583  0.1883 -0.0718  0.2320
  731TIP3    H123608   6.770   5.928   3.674 -1.7411  1.5864  0.4184
  731TIP3    H223609   6.792   5.826   3.565  0.4557 -0.5610  2.7402
  732TIP3   OH223610   4.907   4.451   1.520 -0.8127 -0.2978  0.5798
  732TIP3    H123611   4.880   4.490   1.603  0.7231  0.7306  0.6352
  732TIP3    H223612   4.997   4.424   1.533 -1.2728 -2.3305 -0.0408
  733TIP3   OH223613   1.726   0.730  15.268 -0.1936 -0.4833 -0.4223
  733TIP3    H123614   1.703   0.776  15.348  0.5430  0.0277 -0.4934
  733TIP3    H223615   1.650   0.676  15.248 -0.5595 -0.2656  0.3667
  734TIP3   OH223616   5.108   1.126  12.164 -0.3633 -0.1790  0.3543
  734TIP3    H123617   5.075   1.160  12.080  0.2698  0.0250  0.1870
  734TIP3    H223618   5.069   1.184  12.230 -0.3921  0.0222  0.1627
  735TIP3   OH223619   0.844   0.230   3.912  0.4134  0.1564  0.1338
  735TIP3    H123620   0.935   0.232   3.941  0.4626  0.0388 -0.0122
  735TIP3    H223621   0.830   0.141   3.881  0.2377  0.1637  0.1874
  736TIP3   OH223622   4.212   3.536   5.114  0.6118 -0.0777  0.4348
  736TIP3    H123623   4.147   3.604   5.131 -0.3950 -0.7366 -0.6707
  736TIP3    H223624   4.282   3.581   5.067 -0.8156 -0.0720 -1.8463
  737TIP3   OH223625   0.693   3.955  14.038  0.0116  0.3925 -0.3228
  737TIP3    H123626   0.631   3.967  14.110  1.9050 -1.5047  1.7936
  737TIP3    H223627   0.771   4.003  14.065  1.5371 -2.1160  0.0586
  738TIP3   OH223628   3.906   5.896  12.951  0.1156 -0.5717  0.2411
  738TIP3    H123629   3.894   5.965  13.017 -2.1761  0.5874 -1.2244
  738TIP3    H223630   3.993   5.862  12.967 -0.1151  0.0699  3.4518
  739TIP3   OH223631   3.863   0.168  13.366 -0.5277 -0.4975  0.1165
  739TIP3    H123632   3.892   0.079  13.348 -0.0706 -0.0003 -1.9274
  739TIP3    H223633   3.777   0.175  13.325 -1.5409 -0.5855  2.1150
  740TIP3   OH223634   0.290   6.323  11.470  0.2043 -0.5389  0.2929
  740TIP3    H123635   0.354   6.288  11.408 -1.3089  0.3339 -1.8814
  740TIP3    H223636   0.283   6.416  11.449 -0.0537 -0.0979  2.1144
  741TIP3   OH223637   2.974   0.574  12.746 -0.3120  0.1314 -0.4640
  741TIP3    H123638   3.069   0.589  12.741 -0.4249  1.4171  0.8799
  741TIP3    H223639   2.946   0.569  12.654  1.0717 -0.4234 -0.8778
  742TIP3   OH223640   0.165   2.881   3.939  0.2050  0.2836 -0.4267
  742TIP3    H123641   0.076   2.898   3.909  0.0814  1.1199  0.3380
  742TIP3    H223642   0.177   2.787   3.931 -1.4312 -0.1198  1.2265
  743TIP3   OH223643   5.620   4.698   0.742  0.0103 -0.6549  0.2549
  743TIP3    H123644   5.664   4.744   0.813 -0.5887  0.3476 -0.0110
  743TIP3    H223645   5.531   4.733   0.742 -0.2527 -1.2985 -0.4198
  744TIP3   OH223646   6.420   4.101  13.165 -0.0894  0.0553  0.8378
  744TIP3    H123647   6.328   4.092  13.191 -1.0442  2.2643 -1.4703
  744TIP3    H223648   6.430   4.193  13.143  1.8188 -0.6971 -1.9598
  745TIP3   OH223649   2.426   1.920  14.520  0.0334  0.4255  0.0583
  745TIP3    H123650   2.461   1.831  14.510 -2.8449 -0.7829 -0.1652
  745TIP3    H223651   2.366   1.931  14.447 -0.2856  2.2596  0.5410
  746TIP3   OH223652   2.562   1.228  16.346  0.3000  0.2548 -0.0238
  746TIP3    H123653   2.522   1.288  16.283 -0.0884 -1.1746 -1.1658
  746TIP3    H223654   2.596   1.156  16.294  0.4191 -0.7249  1.3529
  747TIP3   OH223655   6.481   2.547   6.433 -0.1089  0.1254 -0.2543
  747TIP3    H123656   6.472   2.641   6.442  1.1867  0.1533  1.3979
  747TIP3    H223657   6.567   2.535   6.390  0.2667 -0.2942  0.5874
  748TIP3   OH223658   6.803   4.695   4.293 -0.2161  0.1743 -0.3157
  748TIP3    H123659   6.870   4.668   4.231  1.0085  0.2879  0.9112
  748TIP3    H223660   6.843   4.767   4.342 -1.7631  1.2063 -0.4911
  749TIP3   OH223661   4.775   6.553  13.594  0.2017 -0.2770  0.3937
  749TIP3    H123662   4.839   6.497  13.550 -0.4009 -1.2793  0.7868
  749TIP3    H223663   4.816   6.640  13.592  2.3265 -1.1353  2.0435
  750TIP3   OH223664   2.422   4.182   3.321  0.3945 -0.1443 -0.1036
  750TIP3    H123665   2.492   4.206   3.382  0.3238 -1.1116  0.3698
  750TIP3    H223666   2.413   4.259   3.264  0.3556  0.8459  1.1885
  751TIP3   OH223667   6.114   4.130  15.522  0.8598  0.2023  0.0504
  751TIP3    H123668   6.021   4.124  15.501  1.0940  0.1214 -1.0346
  751TIP3    H223669   6.157   4.145  15.438  1.7758  0.9132  0.6170
  752TIP3   OH223670   0.217   4.410  16.796  0.2003 -0.2382 -0.0505
  752TIP3    H123671   0.179   4.354  16.863  0.8723  0.7349  1.2050
  752TIP3    H223672   0.262   4.351  16.736 -0.8165 -1.1648  0.0877
  753TIP3   OH223673   6.051   4.930  16.428  0.0225 -0.1613 -0.0329
  753TIP3    H123674   5.990   4.919  16.501  0.2667 -1.9699 -0.0596
  753TIP3    H223675   6.131   4.963  16.468  0.6485 -2.5162  0.8107
  754TIP3   OH223676   6.467   0.920  13.925  0.3156 -0.1132 -0.8888
  754TIP3    H123677   6.438   0.948  14.012  1.6632 -0.9443 -0.1316
  754TIP3    H223678   6.469   0.824  13.931  0.9245 -0.1563 -1.6815
  755TIP3   OH223679   2.537   4.959   0.550 -0.2774  0.0564 -0.1272
  755TIP3    H123680   2.485   5.038   0.568 -0.2285  0.2937 -0.9392
  755TIP3    H223681   2.472   4.889   0.541 -0.2281 -0.3079  2.0177
  756TIP3   OH223682   2.723   6.259   4.972  0.2325 -0.8729 -0.1159
  756TIP3    H123683   2.777   6.335   4.993 -1.3896  0.3397 -0.1229
  756TIP3    H223684   2.653   6.294   4.916 -1.4299 -2.0480  1.1141
  757TIP3   OH223685   6.193   4.514   2.719  0.4469 -0.0130 -0.2791
  757TIP3    H123686   6.163   4.565   2.643  0.3714  0.5760  0.1408
  757TIP3    H223687   6.128   4.444   2.728 -0.0559  0.4594 -0.2028
  758TIP3   OH223688   1.913   1.569  14.030  0.0770 -0.1516  0.0971
  758TIP3    H123689   1.988   1.625  14.013 -0.9288  1.2510  0.1168
  758TIP3    H223690   1.916   1.503  13.961  0.0762  1.2178 -1.2792
  759TIP3   OH223691   2.224   4.987   3.021 -0.1248  0.0820  0.4893
  759TIP3    H123692   2.292   5.054   3.024 -1.6388  1.6653  2.5597
  759TIP3    H223693   2.158   5.022   2.960  0.3703 -0.9471 -0.6858
  760TIP3   OH223694   3.455   2.478   5.235 -0.1227  0.1130  0.4160
  760TIP3    H123695   3.408   2.560   5.250 -0.9476 -0.2458 -0.1181
  760TIP3    H223696   3.460   2.437   5.321 -0.5259  0.3069  0.5361
  761TIP3   OH223697   6.786   2.359  16.600  0.6199  0.0203 -0.3059
  761TIP3    H123698   6.790   2.313  16.684  0.5226  1.9222  0.7950
  761TIP3    H223699   6.878   2.373  16.577  0.7142  2.3357  1.1831
  762TIP3   OH223700   6.647   0.489   1.385 -0.2709 -1.0060  0.6249
  762TIP3    H123701   6.593   0.412   1.364 -2.8847  1.0775 -0.8566
  762TIP3    H223702   6.711   0.492   1.314  0.1652 -2.0070  0.9440
  763TIP3   OH223703   6.008   6.160   0.656 -0.2624 -0.1392  0.7831
  763TIP3    H123704   5.979   6.101   0.587 -1.0128 -0.1888  1.1220
  763TIP3    H223705   6.094   6.190   0.628 -0.7183  0.1650 -0.3830
  764TIP3   OH223706   4.900   0.377   5.179 -0.3829  0.0076  0.1703
  764TIP3    H123707   4.926   0.378   5.271 -0.4143  1.3559  0.1772
  764TIP3    H223708   4.869   0.287   5.164  0.5420 -0.5043  1.2000
  765TIP3   OH223709   2.458   1.810   4.458  0.2117  0.0680  0.3828
  765TIP3    H123710   2.507   1.765   4.389  3.6803  2.4304  1.0253
  765TIP3    H223711   2.476   1.760   4.537 -0.9113 -0.7084  0.1614
  766TIP3   OH223712   3.177   6.748   4.499  0.2089 -0.2189  0.0165
  766TIP3    H123713   3.246   6.685   4.519  0.6453 -0.3418 -1.7036
  766TIP3    H223714   3.200   6.826   4.550  0.4593 -0.9504  1.0432
  767TIP3   OH223715   4.026   0.377  14.370  0.3308  0.0521 -0.4501
  767TIP3    H123716   4.093   0.430  14.412 -0.5155  0.5877  0.2592
  767TIP3    H223717   4.002   0.426  14.291 -0.9906  1.1782  0.5874
  768TIP3   OH223718   4.709   2.583   1.946 -0.2799 -0.1310  0.2623
  768TIP3    H123719   4.657   2.603   2.025 -0.7951 -1.2449  0.2156
  768TIP3    H223720   4.669   2.505   1.910  0.1692  0.1710 -0.9365
  769TIP3   OH223721   3.634   6.184  13.416 -0.1763 -0.0599 -0.5011
  769TIP3    H123722   3.562   6.127  13.390 -0.1349 -0.3259 -0.0408
  769TIP3    H223723   3.654   6.158  13.506 -1.3683  1.9001  0.4112
  770TIP3   OH223724   2.279   0.655   0.267  0.3907 -0.3914  0.0180
  770TIP3    H123725   2.288   0.733   0.211  0.6051  0.0279  0.6274
  770TIP3    H223726   2.369   0.634   0.293  0.3742 -1.0842 -0.4541
  771TIP3   OH223727   6.116   5.952   3.087 -0.4604 -0.5841 -0.0341
  771TIP3    H123728   6.094   5.858   3.083 -0.5377 -0.6117  0.8020
  771TIP3    H223729   6.078   5.988   3.006 -1.9831 -0.9737  0.4589
  772TIP3   OH223730   4.330   2.193   0.634  0.3872  0.2482 -0.1528
  772TIP3    H123731   4.300   2.231   0.716 -0.5603 -0.5744 -0.0997
  772TIP3    H223732   4.351   2.102   0.656  2.1668  0.5653 -0.3757
  773TIP3   OH223733   1.520   1.574   0.388  0.3125  0.2620 -0.1319
  773TIP3    H123734   1.616   1.574   0.378  0.7257 -1.3308  2.7147
  773TIP3    H223735   1.494   1.663   0.366  2.9817  1.8502  2.4450
  774TIP3   OH223736   4.035   2.697  16.993 -0.8992 -0.3161 -0.2772
  774TIP3    H123737   4.044   2.718  16.900 -0.3389 -0.1350 -0.1881
  774TIP3    H223738   3.941   2.703  17.010 -0.9711 -0.0186 -0.7534
  775TIP3   OH223739   6.260   3.616   3.261 -0.1035 -0.1810  0.6026
  775TIP3    H123740   6.325   3.635   3.329 -0.0935  0.8995  0.3139
  775TIP3    H223741   6.291   3.535   3.221  1.6150  0.7680 -0.1360
  776TIP3   OH223742   4.109   0.038   4.233 -0.5605  0.6071  0.4133
  776TIP3    H123743   4.045   0.107   4.249  0.1839  1.6232 -0.7544
  776TIP3    H223744   4.190   0.070   4.272  0.5005  1.7579 -2.4534
  777TIP3   OH223745   1.949   0.908  14.458 -0.4272  1.0973 -0.5716
  777TIP3    H123746   2.002   0.831  14.479 -0.6309  0.0184 -3.5000
  777TIP3    H223747   1.892   0.919  14.534  0.5051 -0.8510  0.4921
  778TIP3   OH223748   2.316   4.185  14.518  0.2596 -0.4432 -0.0402
  778TIP3    H123749   2.358   4.123  14.459  1.5150  0.0638  0.2838
  778TIP3    H223750   2.357   4.269  14.498 -0.9483  0.1768 -0.0292
  779TIP3   OH223751   2.527   6.015  12.523 -0.1463  0.0816  0.4192
  779TIP3    H123752   2.534   6.109  12.538  3.0532 -0.0813  0.6618
  779TIP3    H223753   2.603   5.993  12.469 -1.7864 -2.1183 -1.1807
  780TIP3   OH223754   1.264   3.149   3.653  0.4809 -0.5397  0.2681
  780TIP3    H123755   1.193   3.086   3.642  0.7427 -0.8065  0.0762
  780TIP3    H223756   1.321   3.134   3.577 -0.3977  1.1861 -0.8072
  781TIP3   OH223757   6.250   6.416   2.577 -0.3354 -0.0808  0.1550
  781TIP3    H123758   6.280   6.506   2.593 -1.0696  0.0215  1.0609
  781TIP3    H223759   6.164   6.426   2.537  0.3873 -0.3774 -1.5259
  782TIP3   OH223760   6.199   6.573   3.206  0.5812  0.8712  0.1651
  782TIP3    H123761   6.209   6.641   3.140 -0.1299  1.0401  0.2338
  782TIP3    H223762   6.147   6.505   3.164  1.2710  0.3692  0.1021
  783TIP3   OH223763   0.951   5.808   3.132  0.0884  0.6044  0.0035
  783TIP3    H123764   0.966   5.861   3.210  0.2397  0.9336 -0.2492
  783TIP3    H223765   0.962   5.868   3.058  0.7495  0.1147 -0.3096
  784TIP3   OH223766   2.181   3.384  14.048 -0.0080 -0.1749  0.1395
  784TIP3    H123767   2.118   3.347  14.110 -0.6260  2.1561  0.9966
  784TIP3    H223768   2.144   3.363  13.962  0.5205 -2.8661  0.4885
  785TIP3   OH223769   0.558   6.335  12.932 -0.3827 -0.2719  0.4353
  785TIP3    H123770   0.499   6.400  12.895 -0.8380  0.0221  1.6328
  785TIP3    H223771   0.589   6.285  12.857 -0.8388  0.6555 -0.3862
  786TIP3   OH223772   6.154   5.307  16.865 -0.4735 -0.1650 -0.5734
  786TIP3    H123773   6.143   5.229  16.811 -0.5742 -0.7976  0.3360
  786TIP3    H223774   6.119   5.282  16.950  1.9863 -0.0408  0.5554
  787TIP3   OH223775   2.590   2.691  13.853  0.0169  0.3374 -0.2979
  787TIP3    H123776   2.600   2.651  13.767 -1.6732 -0.5023 -0.1445
  787TIP3    H223777   2.582   2.785  13.835  2.1399  0.4889 -0.8087
  788TIP3   OH223778   6.371   6.528   0.515  0.2688 -0.2558  0.1875
  788TIP3    H123779   6.375   6.613   0.559  1.5103  0.7238 -1.6903
  788TIP3    H223780   6.309   6.541   0.443 -0.0149 -1.1480  0.2553
  789TIP3   OH223781   0.644   3.892   3.372  0.4642 -0.1114 -0.8003
  789TIP3    H123782   0.613   3.821   3.428  2.6018 -0.5196 -0.0549
  789TIP3    H223783   0.740   3.886   3.375  0.7452  2.9571 -0.4879
  790TIP3   OH223784   4.191   2.583  12.805  0.1218  0.3282 -0.5386
  790TIP3    H123785   4.112   2.528  12.796 -1.6721  2.3780  1.4219
  790TIP3    H223786   4.206   2.588  12.900  1.4355  1.5837 -0.7780
  791TIP3   OH223787   0.137   5.517   0.489 -0.1930 -0.4129  0.2509
  791TIP3    H123788   0.079   5.583   0.528 -1.1041  0.0385 -1.7200
  791TIP3    H223789   0.085   5.436   0.491  0.1144 -0.5942  0.8087
  792TIP3   OH223790   6.096   1.305  13.642  0.2521 -0.0097  0.2987
  792TIP3    H123791   6.086   1.210  13.651 -0.3196 -0.0617 -0.7105
  792TIP3    H223792   6.038   1.342  13.709 -0.0779 -0.3690  0.2157
  793TIP3   OH223793   6.713   5.474  13.756 -0.5390  1.0801 -0.3288
  793TIP3    H123794   6.711   5.384  13.789  0.2318  1.2909  0.3568
  793TIP3    H223795   6.649   5.521  13.810 -0.4962  1.0634 -0.2623
  794TIP3   OH223796   0.213   1.542  16.841  0.2052  0.6008  0.7691
  794TIP3    H123797   0.250   1.565  16.926  0.3241 -0.9189  1.1540
  794TIP3    H223798   0.213   1.446  16.840  1.5807  0.5502 -1.5262
  795TIP3   OH223799   1.214   3.726   5.587 -0.4650  0.2853  0.4630
  795TIP3    H123800   1.173   3.700   5.669 -2.1752 -1.6285 -0.9019
  795TIP3    H223801   1.213   3.822   5.589 -2.4163  0.2996  1.8006
  796TIP3   OH223802   1.182   5.583  13.347  0.0779  0.4653 -0.5690
  796TIP3    H123803   1.108   5.611  13.293 -0.1059 -1.7722 -1.5793
  796TIP3    H223804   1.147   5.512  13.401  0.9412  0.8943  0.5903
  797TIP3   OH223805   3.019   3.789   2.295 -0.0270  0.3512 -0.0609
  797TIP3    H123806   3.103   3.748   2.271  0.6558  1.8573 -0.3431
  797TIP3    H223807   2.990   3.833   2.216 -0.7042  0.5004  0.2617
  798TIP3   OH223808   1.223   1.335  12.722 -0.4011  0.2586 -0.2841
  798TIP3    H123809   1.166   1.280  12.776 -0.2712 -1.5290 -1.8191
  798TIP3    H223810   1.163   1.395  12.677 -0.9694 -0.6759 -0.8323
  799TIP3   OH223811   1.790   5.592  16.232  0.9425 -0.2264  0.1006
  799TIP3    H123812   1.738   5.653  16.284  0.9668  0.6576 -0.8851
  799TIP3    H223813   1.780   5.507  16.277 -0.7639  0.0627  0.3234
  800TIP3   OH223814   6.205   3.136  12.820  0.2957  0.3172  0.9638
  800TIP3    H123815   6.181   3.148  12.912 -0.9185  2.0280  0.4819
  800TIP3    H223816   6.178   3.218  12.777  3.3077  0.6995 -0.4512
  801TIP3   OH223817   6.334   6.497  14.649  0.1010  0.0672 -0.3001
  801TIP3    H123818   6.410   6.482  14.593  1.1772  2.2028  0.4634
  801TIP3    H223819   6.317   6.412  14.691  1.1774 -0.7786 -1.5064
  802TIP3   OH223820   1.210   5.530   4.159  0.1543 -0.4586 -0.3682
  802TIP3    H123821   1.300   5.508   4.183 -0.2877 -1.8750  0.0867
  802TIP3    H223822   1.185   5.600   4.220  1.7110  1.7248 -2.0789
  803TIP3   OH223823   4.674   1.412  11.775  0.1305  0.0617 -0.1222
  803TIP3    H123824   4.633   1.411  11.689 -0.4791 -0.1880  0.1658
  803TIP3    H223825   4.767   1.424  11.757  0.3888 -2.4850 -0.9871
  804TIP3   OH223826   5.695   2.534   1.416 -0.0704 -0.3978 -0.1847
  804TIP3    H123827   5.756   2.464   1.438 -1.4630 -1.5638  0.0715
  804TIP3    H223828   5.741   2.586   1.350  2.0828  0.0923  1.5659
  805TIP3   OH223829   4.002   0.350  13.522 -0.0671  0.3832  0.1942
  805TIP3    H123830   4.069   0.369  13.457  1.1039 -1.7245  0.6953
  805TIP3    H223831   3.941   0.291  13.477 -3.3761  4.2941 -1.1897
  806TIP3   OH223832   6.779   3.698  15.254 -0.7437 -0.0093 -0.3595
  806TIP3    H123833   6.848   3.680  15.318  0.2079 -2.0892 -1.8396
  806TIP3    H223834   6.815   3.767  15.199 -0.5748  0.1468 -0.0522
  807TIP3   OH223835   1.885   4.494  13.148  0.1730  0.2956 -0.3640
  807TIP3    H123836   1.864   4.401  13.153 -1.0033  0.5744  0.2176
  807TIP3    H223837   1.914   4.517  13.236 -0.4753  0.6865 -0.2474
  808TIP3   OH223838   6.006   3.206   1.758  0.5742  0.4596  0.2875
  808TIP3    H123839   5.992   3.174   1.848 -0.0761  0.9703  0.3776
  808TIP3    H223840   6.017   3.126   1.706 -2.1891 -0.0364  0.3016
  809TIP3   OH223841   5.438   0.826   4.211  0.3757 -0.3154  0.5650
  809TIP3    H123842   5.530   0.840   4.187 -0.2945  0.8564 -1.6353
  809TIP3    H223843   5.406   0.762   4.147 -1.0201  1.4937 -0.6553
  810TIP3   OH223844   0.839   2.784  15.540 -0.0985  0.0368  0.5522
  810TIP3    H123845   0.834   2.807  15.633 -0.1053  1.3712  0.2446
  810TIP3    H223846   0.804   2.861  15.494 -0.3155 -0.6939 -0.5493
  811TIP3   OH223847   4.121   6.649   0.596  0.2010 -0.3009  0.2276
  811TIP3    H123848   4.084   6.720   0.647  0.4398 -0.0392  0.0436
  811TIP3    H223849   4.200   6.624   0.644  1.1418  0.8141 -0.6639
  812TIP3   OH223850   6.087   0.270   4.527  0.0747  0.4916 -0.7383
  812TIP3    H123851   6.091   0.257   4.433  0.1665  1.5526 -0.8970
  812TIP3    H223852   6.087   0.366   4.538  0.1724  0.3820  0.3338
  813TIP3   OH223853   0.037   5.310  15.373  0.0801 -0.8456 -0.1626
  813TIP3    H123854  -0.043   5.343  15.415 -0.9968 -2.7678 -0.5541
  813TIP3    H223855   0.070   5.383  15.321  0.5839  1.1166  2.7175
  814TIP3   OH223856   6.380   6.064  15.052 -0.6859 -0.1027  0.0139
  814TIP3    H123857   6.323   6.012  15.108 -1.2619 -0.3796 -0.8096
  814TIP3    H223858   6.343   6.152  15.054 -0.1295  0.1284  0.8336
  815TIP3   OH223859   0.165   5.601  10.700 -1.1818  0.3878 -0.5416
  815TIP3    H123860   0.099   5.534  10.681 -0.4190 -0.1842 -1.2163
  815TIP3    H223861   0.247   5.553  10.706 -0.9007  0.9856  1.0490
  816TIP3   OH223862   5.505   3.969   1.705 -0.1055 -0.2997 -0.0349
  816TIP3    H123863   5.551   4.012   1.777  2.5907  0.3567 -2.0263
  816TIP3    H223864   5.478   4.041   1.648 -2.3644 -0.8008  0.3018
  817TIP3   OH223865   2.856   6.716   4.303 -0.1818  0.4527 -0.2662
  817TIP3    H123866   2.881   6.669   4.383  1.3374 -0.0127 -0.9802
  817TIP3    H223867   2.770   6.752   4.323  0.2262  0.4968  1.6567
  818TIP3   OH223868   2.132   1.946   1.617 -0.2061 -0.1594 -0.2689
  818TIP3    H123869   2.184   1.987   1.686 -0.0406  0.1403 -0.5701
  818TIP3    H223870   2.082   1.878   1.663 -0.3724  0.2773  0.2121
  819TIP3   OH223871   1.670   2.350   3.109  0.2785  0.5461  0.1884
  819TIP3    H123872   1.696   2.388   3.193  2.1689 -1.7045  0.7246
  819TIP3    H223873   1.575   2.337   3.118 -0.3576  4.2725  0.2085
  820TIP3   OH223874   1.336   5.430  13.665 -0.2877 -0.6042 -0.5657
  820TIP3    H123875   1.296   5.506  13.707 -0.9210  0.2043 -2.5193
  820TIP3    H223876   1.274   5.359  13.680  0.6467 -0.9961  1.9006
  821TIP3   OH223877   5.020   2.531  13.688 -0.3690 -0.3475 -0.0619
  821TIP3    H123878   5.089   2.551  13.625 -0.8168 -1.2637 -0.8790
  821TIP3    H223879   5.037   2.589  13.762  0.7887  0.0128 -0.5870
  822TIP3   OH223880   1.185   1.598   5.639 -0.2618 -0.5887 -0.0351
  822TIP3    H123881   1.150   1.513   5.613  0.9305 -0.8011 -1.0449
  822TIP3    H223882   1.276   1.580   5.665  0.6623  0.6147 -2.1346
  823TIP3   OH223883   0.547   2.560  15.253 -0.1699 -0.1059  0.0906
  823TIP3    H123884   0.588   2.512  15.182 -0.6974 -1.7199  0.8097
  823TIP3    H223885   0.513   2.640  15.213  1.5859  0.1502 -0.9631
  824TIP3   OH223886   5.716   1.131   5.016 -0.1161 -0.6317 -0.3100
  824TIP3    H123887   5.774   1.078   5.072 -0.6582 -0.0948  0.7894
  824TIP3    H223888   5.718   1.087   4.931  1.9161 -0.6215 -0.3130
  825TIP3   OH223889   4.072   4.306  11.563  0.3206  0.5362 -0.9762
  825TIP3    H123890   4.087   4.376  11.499  1.8243 -0.2643 -1.5369
  825TIP3    H223891   4.154   4.256  11.564 -0.0801 -0.1507  0.7470
  826TIP3   OH223892   3.599   2.927  12.167 -0.0458 -0.6415  0.6761
  826TIP3    H123893   3.628   2.844  12.206  1.9154 -0.5005 -0.3640
  826TIP3    H223894   3.658   2.940  12.093 -2.1977  0.2309 -0.9935
  827TIP3   OH223895   5.825   5.403   2.188 -0.1080 -0.0873  0.6101
  827TIP3    H123896   5.863   5.388   2.275 -1.9623  1.2636  1.7234
  827TIP3    H223897   5.732   5.385   2.199 -0.4170  0.3339 -1.0524
  828TIP3   OH223898   5.435   4.417   0.519  0.0083 -0.1813  0.1542
  828TIP3    H123899   5.396   4.474   0.585 -0.9657 -0.2637 -0.3261
  828TIP3    H223900   5.441   4.331   0.561 -0.5760 -0.2265  0.1520
  829TIP3   OH223901   2.536   3.255   1.063  0.3036  0.1513 -0.1663
  829TIP3    H123902   2.447   3.289   1.063  0.5548  1.0320  1.9999
  829TIP3    H223903   2.526   3.161   1.046 -1.1748  0.0136  1.1981
  830TIP3   OH223904   0.954   6.326   6.170  0.0578  0.3879 -0.0567
  830TIP3    H123905   1.016   6.288   6.109 -0.6681 -0.2079 -0.4416
  830TIP3    H223906   0.868   6.296   6.140 -0.2774 -0.5694  1.7104
  831TIP3   OH223907   4.006   2.511   1.585  0.4059 -0.1127 -0.2370
  831TIP3    H123908   4.055   2.593   1.579  1.5940 -0.7686  0.3860
  831TIP3    H223909   3.970   2.510   1.674  0.8095 -0.4962 -0.0755
  832TIP3   OH223910   2.659   4.804  10.313  0.7747  0.3144  0.4565
  832TIP3    H123911   2.727   4.741  10.338 -0.4320 -1.4749 -0.6145
  832TIP3    H223912   2.590   4.792  10.378 -0.0309 -0.4558 -0.5137
  833TIP3   OH223913   0.969   3.995   0.670 -1.0468  0.4522 -0.6396
  833TIP3    H123914   1.062   3.978   0.661 -1.0538  0.1966 -0.2807
  833TIP3    H223915   0.927   3.922   0.625 -1.0759 -0.3741  0.6662
  834TIP3   OH223916   4.545   3.249   6.454  0.0138  0.2577 -0.5433
  834TIP3    H123917   4.503   3.318   6.402  0.3045  0.0544 -1.0502
  834TIP3    H223918   4.473   3.191   6.478 -0.7445  2.1498  2.2147
  835TIP3   OH223919   4.087   1.280  14.372  0.1137 -0.2296 -0.2052
  835TIP3    H123920   4.025   1.208  14.380 -1.1878  0.9523  1.0192
  835TIP3    H223921   4.032   1.357  14.353  1.4214  0.5040 -1.1557
  836TIP3   OH223922   1.252   5.221   1.914  0.4706  0.1816 -0.6362
  836TIP3    H123923   1.255   5.204   1.820 -2.5054 -1.6730 -0.5268
  836TIP3    H223924   1.265   5.136   1.955  0.1715  0.6894  0.5792
  837TIP3   OH223925   5.823   1.664  10.605 -0.5878 -0.1907  0.3050
  837TIP3    H123926   5.807   1.643  10.697  2.7825  1.0236  1.3144
  837TIP3    H223927   5.856   1.582  10.567  1.5055  0.1596  1.2220
  838TIP3   OH223928   2.946   6.470   2.622 -0.1427  0.2458 -0.1582
  838TIP3    H123929   2.884   6.409   2.583  1.5415 -1.3783 -0.4346
  838TIP3    H223930   2.991   6.509   2.546 -0.7513  1.4076  0.0402
  839TIP3   OH223931   3.117   3.119  11.593  0.5177 -0.5405  0.1283
  839TIP3    H123932   3.069   3.194  11.628  0.3906  0.7880 -2.7025
  839TIP3    H223933   3.202   3.154  11.569  0.9194 -1.6237 -0.0793
  840TIP3   OH223934   2.148   6.061   2.239  0.2184  0.3282 -0.2369
  840TIP3    H123935   2.229   6.013   2.256  1.0106  1.3747 -0.9388
  840TIP3    H223936   2.131   6.109   2.319  2.0637  2.5741 -1.0739
  841TIP3   OH223937   4.811   2.843   0.011  0.1891 -0.2319 -0.0017
  841TIP3    H123938   4.793   2.779   0.080  0.2532  1.6530  1.8666
  841TIP3    H223939   4.905   2.832  -0.008  0.0631 -1.0955 -0.1510
  842TIP3   OH223940   5.640   1.272   5.693 -0.0649  0.1164  0.2128
  842TIP3    H123941   5.663   1.269   5.600 -0.8203  2.4695 -0.1336
  842TIP3    H223942   5.551   1.237   5.697  1.0653 -2.9638  0.5962
  843TIP3   OH223943   1.726   5.889  14.942 -0.0372 -0.0452 -0.3410
  843TIP3    H123944   1.755   5.969  14.898  2.0150 -0.3851  0.2562
  843TIP3    H223945   1.675   5.919  15.016  1.3611  0.7940  0.3239
  844TIP3   OH223946   5.524   3.122   4.760 -0.2490 -0.2738 -0.2647
  844TIP3    H123947   5.565   3.115   4.674 -0.6724 -0.4739 -0.4496
  844TIP3    H223948   5.505   3.216   4.770 -0.5661 -0.3072 -0.5562
  845TIP3   OH223949   2.389   6.544   3.341  0.1856  0.0560 -0.9149
  845TIP3    H123950   2.451   6.618   3.347 -0.0310  0.1921 -0.3469
  845TIP3    H223951   2.379   6.514   3.431 -1.3780  0.6992 -0.8534
  846TIP3   OH223952   6.316   3.254  13.443  0.2331  0.0513 -0.3368
  846TIP3    H123953   6.305   3.293  13.357  1.0718  0.9182 -0.0653
  846TIP3    H223954   6.274   3.316  13.503  0.3723 -0.1398 -0.0395
  847TIP3   OH223955   0.316   4.092  15.213  0.2250  0.3471  0.0860
  847TIP3    H123956   0.401   4.053  15.191 -0.0672  0.0663 -0.5757
  847TIP3    H223957   0.288   4.045  15.291 -1.1429 -2.4283 -1.9197
  848TIP3   OH223958   0.898   5.364  15.368  0.2175 -0.1903 -0.0439
  848TIP3    H123959   0.980   5.322  15.394  0.4202 -0.2955 -0.8474
  848TIP3    H223960   0.895   5.444  15.420  1.1537  0.1412 -0.4869
  849TIP3   OH223961   2.701   2.234  12.994 -0.2706  0.2053  0.1214
  849TIP3    H123962   2.620   2.235  12.944 -0.0549  0.1436 -0.2330
  849TIP3    H223963   2.714   2.324  13.021  1.8032  1.1926 -3.5147
  850TIP3   OH223964   3.019   5.755  10.161  0.3839 -0.1679 -0.4553
  850TIP3    H123965   3.023   5.694  10.087  1.1826  1.5566 -1.9084
  850TIP3    H223966   3.023   5.699  10.238  2.1461 -1.9372 -1.7183
  851TIP3   OH223967   3.876   3.571  14.536  0.2973 -0.2582 -0.5244
  851TIP3    H123968   3.892   3.487  14.579  0.1995  0.0157  0.0592
  851TIP3    H223969   3.795   3.557  14.486 -0.6844 -0.0293  0.9242
  852TIP3   OH223970   1.172   3.070   2.486  0.2490 -0.6467 -0.0266
  852TIP3    H123971   1.254   3.044   2.445 -0.9909 -0.0623 -3.1793
  852TIP3    H223972   1.111   2.999   2.465 -0.6559  0.0830  0.0725
  853TIP3   OH223973   4.796   5.958  11.663  0.0477 -0.0170 -0.0729
  853TIP3    H123974   4.877   5.933  11.619 -1.0849  0.2955 -2.5022
  853TIP3    H223975   4.788   5.898  11.737  1.6854 -1.1003 -0.7361
  854TIP3   OH223976   0.857   2.537  16.449 -0.3016 -0.0498 -0.0215
  854TIP3    H123977   0.819   2.460  16.491 -1.4363  1.4301  1.7800
  854TIP3    H223978   0.884   2.505  16.363 -3.7555 -1.7272 -0.6747
  855TIP3   OH223979   5.624   2.908   3.905 -0.4970  0.4226 -0.3096
  855TIP3    H123980   5.601   2.918   3.998 -1.5904  0.6998 -0.6018
  855TIP3    H223981   5.691   2.840   3.905  0.3751  1.2454  0.7964
  856TIP3   OH223982   4.308   1.375   3.001 -0.3919 -0.0228  0.0358
  856TIP3    H123983   4.309   1.322   2.921  1.7001 -1.7539  1.1214
  856TIP3    H223984   4.254   1.325   3.062  1.2308 -0.7456  0.9284
  857TIP3   OH223985   3.537   2.367  13.818 -0.3156  0.0082  0.2143
  857TIP3    H123986   3.448   2.376  13.853 -0.1850  1.0116  0.3322
  857TIP3    H223987   3.575   2.295  13.867 -0.6848  0.3306  0.9994
  858TIP3   OH223988   2.541   5.633   4.785 -0.5612  0.5358 -0.2509
  858TIP3    H123989   2.518   5.549   4.824 -0.7236  0.7949  0.2244
  858TIP3    H223990   2.496   5.698   4.839  2.5539  1.2058  1.7622
  859TIP3   OH223991   1.129   0.222   2.062 -0.0129  0.2332  0.0270
  859TIP3    H123992   1.115   0.262   2.147  3.7190  1.5619  0.1533
  859TIP3    H223993   1.158   0.133   2.081 -1.2543 -0.2088 -0.0150
  860TIP3   OH223994   3.213   5.988  16.634 -0.0664 -0.1815  0.5825
  860TIP3    H123995   3.145   5.970  16.569 -1.6358  0.0079  2.1124
  860TIP3    H223996   3.258   5.904  16.645 -0.7255 -0.5802  0.3078
  861TIP3   OH223997   4.118   3.419   4.697 -0.1408  0.5226  0.0463
  861TIP3    H123998   4.214   3.415   4.707 -0.0444 -0.0750 -0.9146
  861TIP3    H223999   4.105   3.432   4.603 -0.9978  1.7216  0.3186
  862TIP3   OH224000   4.510   5.503   1.520  0.0181  0.1078  0.4796
  862TIP3    H124001   4.559   5.420   1.521 -1.1494 -0.6961 -1.6695
  862TIP3    H224002   4.477   5.510   1.430 -1.1462  2.1969  1.0048
  863TIP3   OH224003   3.551   2.615   3.168  0.2761  0.1035  0.1486
  863TIP3    H124004   3.585   2.692   3.214 -2.0003  0.6359  1.1105
  863TIP3    H224005   3.495   2.652   3.100 -0.0182 -0.7127 -0.0557
  864TIP3   OH224006   0.565   1.129  15.544  0.0897 -0.4089  0.0537
  864TIP3    H124007   0.617   1.165  15.472  0.6288 -1.3259 -0.0359
  864TIP3    H224008   0.484   1.180  15.543  0.8478  0.8554  0.0043
  865TIP3   OH224009   0.825   3.181  12.129  0.2279 -0.2485  0.0095
  865TIP3    H124010   0.746   3.232  12.110  0.6929  0.1226 -1.0414
  865TIP3    H224011   0.889   3.245  12.160  0.4268 -0.3749 -0.1306
  866TIP3   OH224012   0.022   1.468   6.330 -0.0282  0.0530 -0.8661
  866TIP3    H124013  -0.019   1.465   6.243  0.4335 -0.3407 -1.0782
  866TIP3    H224014   0.109   1.506   6.314  1.0967 -2.3720 -1.0326
  867TIP3   OH224015   4.040   6.487   5.961  0.1900 -0.8659  0.1543
  867TIP3    H124016   3.993   6.512   5.882  0.0803  0.2199  0.5468
  867TIP3    H224017   4.090   6.565   5.985  0.3986 -1.2548  1.0204
  868TIP3   OH224018   4.646   2.806  14.806 -0.0626  0.3417 -0.7443
  868TIP3    H124019   4.658   2.863  14.730  1.2223  0.4474 -0.4777
  868TIP3    H224020   4.697   2.728  14.786  0.5966  0.5248  0.1531
  869TIP3   OH224021   5.931   6.285  14.684  0.3010  0.1001  0.3421
  869TIP3    H124022   5.923   6.367  14.733 -1.2668  0.6400 -0.7119
  869TIP3    H224023   5.843   6.248  14.684  0.7484 -1.0120 -0.1549
  870TIP3   OH224024   3.569   3.933   0.007  0.6677  0.6019 -0.0275
  870TIP3    H124025   3.624   3.858   0.028 -1.1121 -0.8063 -0.0813
  870TIP3    H224026   3.580   3.947  -0.087  0.0231 -0.4905 -0.2859
  871TIP3   OH224027   2.348   1.987  10.910 -0.3633 -0.0409 -0.0636
  871TIP3    H124028   2.387   2.060  10.862  0.0004  0.8671  1.5317
  871TIP3    H224029   2.421   1.946  10.955 -0.7815 -0.3936  0.3055
  872TIP3   OH224030   0.729   2.527  13.946  0.2284 -0.0321 -0.7553
  872TIP3    H124031   0.746   2.518  13.852  1.0697  0.1043 -0.6215
  872TIP3    H224032   0.808   2.493  13.988 -0.2983 -0.4543 -0.0830
  873TIP3   OH224033   5.265   2.900  15.874  0.0693  0.0789 -0.1295
  873TIP3    H124034   5.236   2.816  15.910  0.2686 -0.5259 -1.3249
  873TIP3    H224035   5.360   2.891  15.867 -0.0422 -0.2074 -1.6722
  874TIP3   OH224036   0.984   5.506  13.501  0.4618  0.1745  0.2495
  874TIP3    H124037   0.924   5.572  13.467 -0.1056 -1.9616 -3.3395
  874TIP3    H224038   0.955   5.493  13.592 -1.2622  2.6981  0.1679
  875TIP3   OH224039   3.320   6.581   0.376  0.5753 -0.4036 -0.4629
  875TIP3    H124040   3.271   6.633   0.313  1.9592 -0.0480 -1.2872
  875TIP3    H224041   3.338   6.499   0.332  2.0197  0.0526 -0.7729
  876TIP3   OH224042   3.668   0.332   1.099 -0.0081 -0.0531  0.2179
  876TIP3    H124043   3.634   0.295   1.018  0.5645 -0.8996  0.3471
  876TIP3    H224044   3.748   0.282   1.116  2.7844  3.4165 -1.3848
  877TIP3   OH224045   2.132   5.401   1.104  0.4333  0.0634 -0.0481
  877TIP3    H124046   2.059   5.413   1.165 -0.4568 -0.4218 -0.9872
  877TIP3    H224047   2.090   5.373   1.022  1.5398  1.2514 -1.0560
  878TIP3   OH224048   0.196   6.166  11.679  0.2901 -0.1401  0.1908
  878TIP3    H124049   0.213   6.222  11.603 -1.6344 -0.5665 -0.6127
  878TIP3    H224050   0.109   6.191  11.709 -0.0986 -1.8092  0.5839
  879TIP3   OH224051   3.772   2.706   4.647  0.0197  0.1743 -0.4957
  879TIP3    H124052   3.792   2.710   4.741 -2.2205  0.0177  0.0541
  879TIP3    H224053   3.818   2.628   4.616 -0.8583 -0.9800  0.9574
  880TIP3   OH224054   6.473   5.409  14.987 -0.1810  0.8233 -0.3908
  880TIP3    H124055   6.443   5.403  15.077  0.1255 -0.7246 -0.3569
  880TIP3    H224056   6.522   5.491  14.983 -0.0318  0.8175  0.8988
  881TIP3   OH224057   4.906   0.117   0.784  0.3524  0.3675  0.3456
  881TIP3    H124058   4.868   0.205   0.777  0.9240  0.7305  1.4349
  881TIP3    H224059   4.955   0.105   0.703 -1.8932 -0.0423 -1.0135
  882TIP3   OH224060   1.658   0.631  14.219  0.0639 -0.1647  0.2302
  882TIP3    H124061   1.623   0.620  14.131 -0.4170 -1.5912  0.5690
  882TIP3    H224062   1.742   0.585  14.217 -1.0677 -2.4170  1.1439
  883TIP3   OH224063   2.686   2.357   1.189 -0.5086  0.0685 -0.1133
  883TIP3    H124064   2.641   2.281   1.153 -1.0952  0.5313 -0.3926
  883TIP3    H224065   2.649   2.367   1.277  1.2566 -1.3343  0.8389
  884TIP3   OH224066   0.765   0.856  11.434 -0.9613 -0.1258  0.7890
  884TIP3    H124067   0.829   0.841  11.365 -2.0528  1.5786 -0.6752
  884TIP3    H224068   0.804   0.924  11.489 -0.4552 -0.8965  1.4136
  885TIP3   OH224069   6.083   6.315   1.275 -0.7878  0.1293  0.2793
  885TIP3    H124070   6.133   6.347   1.200 -0.3625  0.1689  0.5753
  885TIP3    H224071   6.002   6.365   1.273 -0.3106  0.9245  0.4844
  886TIP3   OH224072   1.873   0.734   5.738 -0.3311  0.1176  0.1044
  886TIP3    H124073   1.884   0.639   5.727  2.3061  0.1921  1.4116
  886TIP3    H224074   1.837   0.744   5.826 -1.4646  0.3372 -0.3641
  887TIP3   OH224075   3.876   2.484  16.803  0.3046  0.4424 -0.7363
  887TIP3    H124076   3.966   2.451  16.795 -0.6345 -2.0886 -2.2339
  887TIP3    H224077   3.858   2.523  16.717  0.4745  2.4875  0.1182
  888TIP3   OH224078   5.051   2.187  14.251  0.7356  0.4428 -0.4586
  888TIP3    H124079   5.135   2.166  14.211 -0.0400 -2.0791 -0.9384
  888TIP3    H224080   5.065   2.172  14.345  0.2121 -2.7294 -0.7741
  889TIP3   OH224081   2.555   6.664   0.960 -0.4927  1.0053  0.3315
  889TIP3    H124082   2.542   6.574   0.989 -0.0432  1.1311  0.9193
  889TIP3    H224083   2.551   6.659   0.864 -0.3040  0.3357  0.3562
  890TIP3   OH224084   2.434   2.972  11.664  0.0606  0.0143  0.3780
  890TIP3    H124085   2.399   2.907  11.603  0.1594 -0.3031  0.6503
  890TIP3    H224086   2.366   3.039  11.671 -1.1201 -1.2601  1.9468
  891TIP3   OH224087   3.268   1.601   6.082 -0.1600  0.0056  0.4549
  891TIP3    H124088   3.270   1.695   6.099 -2.7900  0.0328  1.0246
  891TIP3    H224089   3.199   1.568   6.139 -0.7536 -1.9171 -1.2775
  892TIP3   OH224090   1.596   4.917   3.140 -0.2737 -0.7251 -0.0317
  892TIP3    H124091   1.573   4.831   3.176 -0.1338  0.1429  2.2302
  892TIP3    H224092   1.553   4.980   3.197 -0.3359  0.7638 -1.6231
  893TIP3   OH224093   1.803   4.638   5.843 -0.7036 -0.5559  0.2516
  893TIP3    H124094   1.813   4.548   5.876 -1.2494 -0.5163  0.5300
  893TIP3    H224095   1.709   4.650   5.833 -0.5471 -0.6484 -1.5971
  894TIP3   OH224096   5.089   6.716  16.336 -0.0698 -0.3187 -0.0164
  894TIP3    H124097   5.055   6.756  16.256  0.1243 -1.8631 -0.9269
  894TIP3    H224098   5.048   6.629  16.338  2.4754 -1.6456 -0.2947
  895TIP3   OH224099   1.520   4.681   5.510  0.5673  0.0615 -0.1918
  895TIP3    H124100   1.553   4.714   5.593  0.1649 -0.5136  0.2011
  895TIP3    H224101   1.426   4.676   5.522  0.4796  0.2226 -0.7777
  896TIP3   OH224102   2.585   2.418  11.487  0.0412  0.1039  0.1639
  896TIP3    H124103   2.628   2.365  11.555 -0.8623  1.5004  1.9187
  896TIP3    H224104   2.560   2.498  11.532 -0.1065  1.3451 -2.0104
  897TIP3   OH224105   2.027   5.225  14.387 -0.3239  0.0457  0.1695
  897TIP3    H124106   2.058   5.215  14.297  1.9038  0.4786  0.8241
  897TIP3    H224107   1.989   5.312  14.390  1.9753  1.1242  0.2130
  898TIP3   OH224108   5.780   5.266   4.398 -0.1967  0.3799 -0.9064
  898TIP3    H124109   5.721   5.197   4.429  0.0674  0.6104  0.1328
  898TIP3    H224110   5.766   5.269   4.303  0.4717 -1.7245 -1.1049
  899TIP3   OH224111   4.107   3.530  12.442  0.1708 -0.7383 -0.6382
  899TIP3    H124112   4.100   3.462  12.376  0.0947 -0.6901 -0.6785
  899TIP3    H224113   4.034   3.515  12.501 -1.5499  1.0002 -2.1910
  900TIP3   OH224114   2.717   3.331   4.234 -0.4379  0.0428  0.4677
  900TIP3    H124115   2.652   3.274   4.192 -1.3271  2.4150 -1.6369
  900TIP3    H224116   2.801   3.292   4.210 -0.9847 -1.7576  1.2521
  901TIP3   OH224117   2.671   6.743  15.309 -0.0920 -0.1107 -0.6091
  901TIP3    H124118   2.744   6.692  15.342  0.0291  1.2261  1.3345
  901TIP3    H224119   2.594   6.707  15.353 -0.0253  1.2231  0.6588
  902TIP3   OH224120   1.384   4.221  16.771  0.0654 -0.5844  0.0527
  902TIP3    H124121   1.464   4.263  16.738  0.7700 -1.7392  0.2540
  902TIP3    H224122   1.405   4.128  16.774 -1.0152 -0.8206  0.8997
  903TIP3   OH224123   4.067   1.601  16.361  0.5051  0.1564 -0.6416
  903TIP3    H124124   4.084   1.560  16.446 -3.6670  1.4959  1.0812
  903TIP3    H224125   4.033   1.530  16.306  0.0336 -0.0834 -0.0474
  904TIP3   OH224126   4.571   6.032   2.752 -0.3007  0.2306  0.3487
  904TIP3    H124127   4.564   5.941   2.723 -0.3320  0.4133 -0.2336
  904TIP3    H224128   4.658   6.060   2.724 -0.6266  0.6478 -0.2801
  905TIP3   OH224129   3.591   4.903  11.277 -0.1936  0.3247 -0.8534
  905TIP3    H124130   3.537   4.982  11.277 -1.8121 -0.5790  2.8521
  905TIP3    H224131   3.680   4.935  11.265 -0.8894  2.5999 -0.4230
  906TIP3   OH224132   5.430   3.374  12.560 -0.1815  0.2025 -0.3379
  906TIP3    H124133   5.468   3.388  12.473  0.0268 -2.4350 -0.7736
  906TIP3    H224134   5.505   3.370  12.619 -0.2105  0.5600 -0.2779
  907TIP3   OH224135   4.834   3.487  13.861  0.0008 -0.4824 -0.0061
  907TIP3    H124136   4.770   3.435  13.909 -0.6628  0.7595  0.4780
  907TIP3    H224137   4.873   3.545  13.927  0.8158 -0.4428 -0.5101
  908TIP3   OH224138   1.013   0.028   5.195 -0.1135 -0.0777  0.0309
  908TIP3    H124139   1.108   0.023   5.196  0.0357  1.7684 -0.5732
  908TIP3    H224140   0.994   0.122   5.200 -1.8926 -0.3915 -0.1550
  909TIP3   OH224141   4.527   3.581   3.315 -0.2372 -0.2252 -0.0761
  909TIP3    H124142   4.501   3.608   3.227 -1.5298 -0.9084  0.0749
  909TIP3    H224143   4.533   3.663   3.364  2.2544  0.3552 -1.1995
  910TIP3   OH224144   1.076   3.363  13.524 -0.1606 -0.4814  0.4783
  910TIP3    H124145   1.051   3.341  13.614 -0.8634  0.1887  0.4570
  910TIP3    H224146   1.000   3.410  13.489 -0.0766 -1.1257 -0.6170
  911TIP3   OH224147   1.350   1.452   1.043 -0.1081 -0.2281  0.2505
  911TIP3    H124148   1.418   1.516   1.067  1.1729 -0.7785 -1.6663
  911TIP3    H224149   1.275   1.506   1.018 -0.2189  0.4071  1.8477
  912TIP3   OH224150   4.537   5.358   4.232  0.0132  0.1082 -0.5614
  912TIP3    H124151   4.625   5.382   4.261  0.3609 -0.5994 -1.0069
  912TIP3    H224152   4.548   5.273   4.189 -0.9344 -0.1269 -0.3678
  913TIP3   OH224153   4.785   6.087  13.772  0.4553 -0.0397  0.4168
  913TIP3    H124154   4.770   6.180  13.789  0.2829 -0.1829  1.0836
  913TIP3    H224155   4.700   6.055  13.740  1.2829  0.6530 -2.8389
  914TIP3   OH224156   6.467   4.766   2.550 -0.5521  0.3545  0.3642
  914TIP3    H124157   6.386   4.732   2.511 -0.6429  0.9962 -0.0224
  914TIP3    H224158   6.518   4.688   2.572 -1.2589 -0.0574  0.5718
  915TIP3   OH224159   4.845   5.613  13.668 -0.3770 -0.2551 -0.6875
  915TIP3    H124160   4.850   5.599  13.573 -1.1317 -1.2045 -0.6065
  915TIP3    H224161   4.888   5.697  13.682 -0.1563 -0.1498 -1.8581
  916TIP3   OH224162   6.796   4.432  14.874  0.7679  0.1606  0.0047
  916TIP3    H124163   6.752   4.405  14.954  2.5146 -0.8736  0.6560
  916TIP3    H224164   6.844   4.511  14.898 -0.3135  1.0234 -0.5841
  917TIP3   OH224165   5.567   5.702   4.876 -0.1146  0.2285 -0.0086
  917TIP3    H124166   5.643   5.673   4.826  0.0567  0.2175  0.2598
  917TIP3    H224167   5.564   5.797   4.862 -0.2081  0.1916 -0.2364
  918TIP3   OH224168   5.789   4.909   5.507  0.8673 -0.1738  0.3136
  918TIP3    H124169   5.837   4.880   5.584 -0.4982 -0.5661  1.0495
  918TIP3    H224170   5.857   4.943   5.448  2.1114 -1.4218  0.9692
  919TIP3   OH224171   6.277   2.379   6.330 -0.5364  0.2674  0.5485
  919TIP3    H124172   6.199   2.401   6.382  0.6397 -0.6507  2.8722
  919TIP3    H224173   6.349   2.420   6.377  0.6833 -1.1547  0.0018
  920TIP3   OH224174   6.052   0.420   1.631  0.7766  0.1728  0.2763
  920TIP3    H124175   5.995   0.400   1.706  1.7124  1.4392  1.3659
  920TIP3    H224176   5.991   0.439   1.560 -0.1321 -1.2998  0.6175
  921TIP3   OH224177   3.727   4.932  14.628  0.1674  0.2627  0.8011
  921TIP3    H124178   3.693   4.859  14.576 -2.2242  3.1397 -2.0524
  921TIP3    H224179   3.674   4.930  14.708  0.8233 -1.5838  1.2545
  922TIP3   OH224180   3.009   3.223  15.555  0.4257 -0.0828 -0.2123
  922TIP3    H124181   3.039   3.133  15.551 -2.4165 -1.1004 -0.5974
  922TIP3    H224182   3.089   3.275  15.558  2.1780 -2.6441  1.9196
  923TIP3   OH224183   5.661   1.935   1.149  0.4000  0.3414 -0.3316
  923TIP3    H124184   5.577   1.956   1.109  1.1723 -0.2364 -2.3810
  923TIP3    H224185   5.641   1.926   1.242 -1.4985  1.7201 -0.5441
  924TIP3   OH224186   4.202   5.188   3.979 -0.7219  0.4079  0.0619
  924TIP3    H124187   4.250   5.255   3.930 -0.0277 -0.5906 -0.6681
  924TIP3    H224188   4.182   5.121   3.914  0.0645 -0.8792  1.0906
  925TIP3   OH224189   1.813   1.408   5.169  0.1376  0.6117  0.0901
  925TIP3    H124190   1.759   1.352   5.114  0.4930  0.0601  0.2993
  925TIP3    H224191   1.752   1.444   5.234  0.2509 -1.0975  1.1907
  926TIP3   OH224192   3.599   1.438   3.070 -0.0359  0.2060  0.7244
  926TIP3    H124193   3.528   1.389   3.111  0.5597 -1.0441  0.3299
  926TIP3    H224194   3.586   1.424   2.976 -0.5267  1.7988  0.5258
  927TIP3   OH224195   3.643   4.752  12.070 -0.2243 -0.1524 -0.0634
  927TIP3    H124196   3.639   4.662  12.038  3.3449  0.5187 -3.1775
  927TIP3    H224197   3.586   4.802  12.011 -0.3009 -0.0414  0.1021
  928TIP3   OH224198   4.929   6.701  10.657 -0.1010  0.0213  0.6006
  928TIP3    H124199   5.005   6.644  10.656  0.6200  0.9384  1.4050
  928TIP3    H224200   4.860   6.648  10.697  0.5787 -0.2852  1.4106
  929TIP3   OH224201   6.273   6.395  14.100 -0.1240 -0.0469  0.3916
  929TIP3    H124202   6.299   6.433  14.016  0.8706 -0.1096  0.6604
  929TIP3    H224203   6.338   6.427  14.162 -0.4281 -0.5947  1.0035
  930TIP3   OH224204   3.431   5.456   3.586  0.0023  0.3491 -0.6106
  930TIP3    H124205   3.465   5.545   3.596  0.3512  0.2964 -1.2423
  930TIP3    H224206   3.508   5.400   3.592 -0.2274  0.0798 -0.1365
  931TIP3   OH224207   6.250   4.353   2.124  0.3233 -0.0468 -0.3862
  931TIP3    H124208   6.329   4.407   2.124 -0.3961  1.0406 -0.6541
  931TIP3    H224209   6.279   4.267   2.154  1.4223  0.5958  0.4412
  932TIP3   OH224210   2.136   2.455  13.629 -0.3215 -0.6671  0.2990
  932TIP3    H124211   2.152   2.361  13.626 -0.7856 -0.7320 -0.2782
  932TIP3    H224212   2.192   2.492  13.561 -1.5472 -0.7503 -0.8066
  933TIP3   OH224213   0.282   3.149  12.960  0.5441  1.2200 -0.0050
  933TIP3    H124214   0.266   3.086  13.030 -0.7879  0.9996 -0.4968
  933TIP3    H224215   0.307   3.096  12.885  1.5350  1.4336  0.1485
  934TIP3   OH224216   0.455   2.085   4.326  0.5082 -0.0644  0.4538
  934TIP3    H124217   0.533   2.130   4.293  1.7593 -1.8366  0.8054
  934TIP3    H224218   0.423   2.034   4.252  0.9383 -0.9366  0.8493
  935TIP3   OH224219   3.178   4.505  16.672 -0.4275  0.5438  0.3603
  935TIP3    H124220   3.237   4.495  16.598  0.1277  1.2958  0.6780
  935TIP3    H224221   3.214   4.447  16.739  1.1722  2.4295  1.2486
  936TIP3   OH224222   5.819   3.115   5.063  0.1467  0.1381  0.2733
  936TIP3    H124223   5.765   3.187   5.029 -2.8482 -2.1433 -0.2138
  936TIP3    H224224   5.885   3.100   4.996  0.0724  1.5940 -0.1710
  937TIP3   OH224225   4.379   5.847  11.924  0.3138  0.3680  0.3847
  937TIP3    H124226   4.324   5.925  11.917  0.6463  0.6588  0.9113
  937TIP3    H224227   4.323   5.775  11.896 -0.2780  0.6855  0.7343
  938TIP3   OH224228   2.813   2.695  16.497  0.0803 -0.0950  0.3503
  938TIP3    H124229   2.771   2.711  16.581 -2.3220  0.0616 -0.7713
  938TIP3    H224230   2.896   2.653  16.519 -0.9614 -1.1020  2.7699
  939TIP3   OH224231   1.827   4.440  11.514  0.0053  0.2857  0.3318
  939TIP3    H124232   1.856   4.349  11.525  0.8582  0.4284 -0.5575
  939TIP3    H224233   1.738   4.441  11.548  0.3345 -0.6492  1.2701
  940TIP3   OH224234   2.493   1.834  13.046 -0.3186  0.5728  0.2919
  940TIP3    H124235   2.400   1.831  13.071 -0.9183  0.5808 -1.7039
  940TIP3    H224236   2.522   1.922  13.069 -1.1468  0.9548 -0.0854
  941TIP3   OH224237   4.825   5.498  10.672 -0.4882 -0.0869  0.4355
  941TIP3    H124238   4.807   5.530  10.760  0.5418  0.0840  0.5886
  941TIP3    H224239   4.901   5.548  10.642 -1.3448  0.4817 -0.8955
  942TIP3   OH224240   1.433   4.087  11.195  0.4508  0.3018 -0.4059
  942TIP3    H124241   1.368   4.026  11.159 -0.3499 -0.1016  1.6318
  942TIP3    H224242   1.515   4.063  11.152 -0.1686 -1.1435 -0.8229
  943TIP3   OH224243   1.560   1.528   4.164  0.5408  0.6434 -0.4879
  943TIP3    H124244   1.566   1.586   4.240  1.4100  0.7574 -0.6251
  943TIP3    H224245   1.651   1.513   4.139  0.2695  0.5000 -1.4256
  944TIP3   OH224246   4.050   5.048  13.188 -0.3958  0.4296  0.3932
  944TIP3    H124247   4.145   5.058  13.198 -0.4561 -0.3471  2.2244
  944TIP3    H224248   4.015   5.136  13.202 -0.1151  0.1865  3.1228
  945TIP3   OH224249   1.450   0.827  15.700 -0.4064 -0.5331 -0.4952
  945TIP3    H124250   1.538   0.805  15.729  0.1601  1.2967 -0.6994
  945TIP3    H224251   1.425   0.755  15.641  0.9520 -1.0498 -0.4694
  946TIP3   OH224252   0.464   1.202  12.384 -0.0454 -0.2743  0.1197
  946TIP3    H124253   0.544   1.164  12.420 -0.8761 -1.8395  0.4034
  946TIP3    H224254   0.400   1.131  12.387 -1.2374  0.7092 -0.8333
  947TIP3   OH224255   1.507   5.122   5.048 -0.5798  0.7957 -0.4215
  947TIP3    H124256   1.518   5.213   5.074 -1.8071  1.2494 -1.3748
  947TIP3    H224257   1.422   5.119   5.005 -0.2144 -0.6383 -1.1313
  948TIP3   OH224258   1.328   2.708  11.609 -1.1954 -0.3986  0.5259
  948TIP3    H124259   1.302   2.621  11.579  0.2974 -0.6542 -0.0924
  948TIP3    H224260   1.262   2.767  11.573 -1.8361 -1.1925  0.3811
  949TIP3   OH224261   2.305   0.032  16.229 -0.6955 -0.1776  0.1814
  949TIP3    H124262   2.268   0.112  16.267  0.9361  1.2854 -1.1008
  949TIP3    H224263   2.392   0.026  16.267 -0.9274 -1.6013  0.5406
  950TIP3   OH224264   3.458   1.272  14.329  0.3994  0.7776 -0.4712
  950TIP3    H124265   3.456   1.360  14.292  0.6614  0.4737 -1.2321
  950TIP3    H224266   3.544   1.264  14.370  0.1247  1.1000  0.1846
  951TIP3   OH224267   3.897   2.444   5.183  0.1273 -0.1335 -0.0742
  951TIP3    H124268   3.938   2.514   5.132 -2.3290  0.7985 -0.8929
  951TIP3    H224269   3.971   2.400   5.226  1.9826  1.2380 -1.6673
  952TIP3   OH224270   3.870   4.653  14.994  0.1936  0.0561 -0.2716
  952TIP3    H124271   3.868   4.562  14.964 -1.3435 -0.0498  0.1044
  952TIP3    H224272   3.963   4.678  14.988  0.5546 -1.3512 -0.8904
  953TIP3   OH224273   1.311   3.978  14.304 -0.5509  0.5599 -0.1193
  953TIP3    H124274   1.309   3.928  14.222 -0.9051  1.1157 -0.4523
  953TIP3    H224275   1.377   4.046  14.290 -0.4014  0.4761  0.1652
  954TIP3   OH224276   5.804   5.615   2.801  0.2789  0.7031 -0.1000
  954TIP3    H124277   5.772   5.679   2.737  0.1282  0.7221 -0.0062
  954TIP3    H224278   5.724   5.578   2.839  0.3645  0.4185 -0.1956
  955TIP3   OH224279   4.960   3.975   6.002  0.5171 -0.5121 -0.1920
  955TIP3    H124280   4.985   3.898   6.053 -0.1694 -0.8789 -0.4086
  955TIP3    H224281   4.940   4.042   6.069  0.1417 -0.8262  0.0144
  956TIP3   OH224282   0.625   2.406  10.289 -0.4454 -0.2541  0.1565
  956TIP3    H124283   0.596   2.317  10.268 -1.0107  0.0446 -0.3366
  956TIP3    H224284   0.557   2.463  10.255  0.1995  0.4082 -0.0613
  957TIP3   OH224285   6.076   4.404   1.511  0.9446 -0.4308 -0.0413
  957TIP3    H124286   6.005   4.429   1.570  1.4223 -1.7478  1.1687
  957TIP3    H224287   6.134   4.481   1.510 -0.1299  0.3923 -0.4924
  958TIP3   OH224288   6.671   6.472   5.777  0.0964  0.3921  0.1394
  958TIP3    H124289   6.590   6.455   5.825 -1.3455  2.4596 -1.3595
  958TIP3    H224290   6.730   6.508   5.843 -1.0354  1.0519  0.8356
  959TIP3   OH224291   3.482   6.502   4.893  0.0194  0.7754 -1.0427
  959TIP3    H124292   3.392   6.536   4.899 -0.4291 -0.2294 -1.7700
  959TIP3    H224293   3.471   6.409   4.875  1.2159  0.4206 -0.1232
  960TIP3   OH224294   0.642   4.176   2.278  0.2287 -0.2282 -0.3508
  960TIP3    H124295   0.676   4.111   2.339  0.8909  0.0951 -0.3699
  960TIP3    H224296   0.720   4.213   2.236 -0.1559  0.3952 -0.5279
  961TIP3   OH224297   3.864   5.248   1.958 -0.2231  0.1256 -0.1037
  961TIP3    H124298   3.829   5.305   1.889  1.0973  2.2888  0.8821
  961TIP3    H224299   3.959   5.256   1.950  0.0335 -2.1883 -0.0382
  962TIP3   OH224300   5.231   2.204   5.554  0.5001 -0.5991  0.4829
  962TIP3    H124301   5.324   2.181   5.547  0.5105 -0.9276  1.4865
  962TIP3    H224302   5.195   2.139   5.615  0.2212  1.1626  2.3025
  963TIP3   OH224303   4.194   4.620   6.026 -0.1886 -0.6040  0.4189
  963TIP3    H124304   4.210   4.714   6.036  0.3968 -0.5147 -1.0491
  963TIP3    H224305   4.112   4.604   6.071  0.4175  0.3402  1.9202
  964TIP3   OH224306   3.339   1.813  14.187 -0.5799  0.2572  0.3946
  964TIP3    H124307   3.247   1.800  14.211 -0.8878  2.8309  0.9471
  964TIP3    H224308   3.337   1.826  14.092 -0.3622 -2.2984 -0.0390
  965TIP3   OH224309   0.941   4.531   0.643 -0.2688 -0.0168 -1.3157
  965TIP3    H124310   0.869   4.541   0.581 -0.6872 -1.0151 -1.0148
  965TIP3    H224311   0.905   4.478   0.714  0.3598  0.6535 -0.4726
  966TIP3   OH224312   0.569   1.603  15.708  0.5803  0.6299  0.6375
  966TIP3    H124313   0.561   1.628  15.616  2.7115  0.3102  0.3221
  966TIP3    H224314   0.639   1.538  15.710 -0.4839 -0.5610  2.3047
  967TIP3   OH224315   2.832   3.657  11.376 -0.0373 -0.3483  0.3508
  967TIP3    H124316   2.840   3.630  11.467 -2.2843 -1.1237  0.3688
  967TIP3    H224317   2.772   3.593  11.337  1.6719 -0.6972 -1.9748
  968TIP3   OH224318   0.764   2.843   1.453  0.5992 -0.2137 -0.0387
  968TIP3    H124319   0.791   2.823   1.364 -1.2518 -1.4815 -0.3762
  968TIP3    H224320   0.833   2.806   1.508  1.2156 -0.3762 -0.9000
  969TIP3   OH224321   6.701   5.318   0.518  0.2405  0.2843  0.2884
  969TIP3    H124322   6.650   5.395   0.544 -1.7515 -0.6750 -0.5803
  969TIP3    H224323   6.665   5.247   0.572  0.4591 -0.4691 -0.5383
  970TIP3   OH224324   4.099   3.065   2.687 -0.5471 -0.4036 -0.0141
  970TIP3    H124325   4.172   3.088   2.631 -0.8978  2.0375  0.4144
  970TIP3    H224326   4.110   3.120   2.765 -1.7966 -1.3739  0.8980
  971TIP3   OH224327   3.229   4.973  15.111 -0.4057 -0.1906  0.1496
  971TIP3    H124328   3.249   4.882  15.132 -0.6722 -0.4100 -0.5314
  971TIP3    H224329   3.278   5.023  15.175 -0.4351 -0.8185  0.6759
  972TIP3   OH224330   3.801   6.288   2.700  0.4019  0.1996 -0.1792
  972TIP3    H124331   3.712   6.319   2.715  0.4823  0.9079 -1.0859
  972TIP3    H224332   3.856   6.365   2.711  0.4525  0.9084 -4.0649
  973TIP3   OH224333   2.803   1.573   0.579  0.1719  0.0136 -0.4017
  973TIP3    H124334   2.805   1.493   0.527  4.6072 -0.2672 -0.2065
  973TIP3    H224335   2.813   1.643   0.514  2.9695 -0.1687 -0.2983
  974TIP3   OH224336   5.908   4.045   3.947  0.4645  0.0145  0.4207
  974TIP3    H124337   5.839   3.984   3.922  1.0329 -1.1425  1.5415
  974TIP3    H224338   5.988   4.006   3.910  0.9221 -0.2936  1.6945
  975TIP3   OH224339   3.380   1.028   2.208 -0.1193  0.9645 -0.1250
  975TIP3    H124340   3.403   1.013   2.116 -0.0218  1.0271 -0.1109
  975TIP3    H224341   3.292   0.991   2.217  0.4122 -0.3181  0.0848
  976TIP3   OH224342   0.008   5.699   2.138  0.2977  0.0606  0.5479
  976TIP3    H124343   0.008   5.774   2.079 -0.6283 -0.1397  0.2814
  976TIP3    H224344  -0.019   5.736   2.222  0.8537  0.2048  0.6675
  977TIP3   OH224345   4.616   4.370   2.433 -0.1030  0.4864  0.4446
  977TIP3    H124346   4.654   4.297   2.384  1.0215 -0.0106  1.9594
  977TIP3    H224347   4.632   4.446   2.378  1.5979  0.0238  0.2244
  978TIP3   OH224348   2.700   1.100   3.097  0.0711 -0.7235  0.0516
  978TIP3    H124349   2.788   1.063   3.095  0.8685  1.0233  0.4811
  978TIP3    H224350   2.645   1.031   3.134  1.5700 -1.2398  1.4118
  979TIP3   OH224351   2.198   2.153   3.799 -0.1489  0.2936 -0.2212
  979TIP3    H124352   2.186   2.145   3.893 -0.5943 -0.3143 -0.3179
  979TIP3    H224353   2.190   2.246   3.781 -0.1806  0.3980  0.3298
  980TIP3   OH224354   0.415   0.990   1.536  0.3550  0.3654 -0.1669
  980TIP3    H124355   0.422   0.953   1.448  1.8852  2.0210 -0.7887
  980TIP3    H224356   0.447   0.921   1.594 -0.1876 -0.5549 -0.9473
  981TIP3   OH224357   5.690   6.532  12.329 -0.0149 -0.3667 -0.8696
  981TIP3    H124358   5.638   6.452  12.333  0.2544 -0.6073 -1.8753
  981TIP3    H224359   5.684   6.560  12.238  1.5698 -0.3867 -1.0155
  982TIP3   OH224360   2.852   3.426   5.143 -0.7642 -0.4046 -0.7313
  982TIP3    H124361   2.940   3.389   5.148 -0.0023  1.3165 -0.6834
  982TIP3    H224362   2.862   3.506   5.090 -2.0145  0.5900  0.4390
  983TIP3   OH224363   2.370   6.719  11.372 -0.2725 -0.2028  0.1293
  983TIP3    H124364   2.391   6.751  11.459 -1.5217  0.9726  0.0199
  983TIP3    H224365   2.328   6.634  11.388 -0.9935  0.2583  0.7010
  984TIP3   OH224366   3.103   4.038   2.149  0.0407  0.1611 -0.1800
  984TIP3    H124367   3.109   3.968   2.084 -0.0343 -0.7344  0.7483
  984TIP3    H224368   3.179   4.094   2.133  0.8324 -0.8675 -0.1160
  985TIP3   OH224369   1.079   4.056   4.384  0.1256  0.0348  0.3189
  985TIP3    H124370   1.171   4.072   4.402  0.3123 -1.2013  0.5760
  985TIP3    H224371   1.078   4.011   4.300 -0.3677  1.3258 -0.3851
  986TIP3   OH224372   5.896   5.248  12.440 -0.5871  0.2364  0.0895
  986TIP3    H124373   5.821   5.271  12.384 -2.0572  1.2287  2.3028
  986TIP3    H224374   5.971   5.290  12.399 -0.5657 -3.0726 -3.7778
  987TIP3   OH224375   4.530   0.390  13.042 -0.0413  0.1659 -0.1056
  987TIP3    H124376   4.601   0.433  12.996 -0.4726  0.6326 -0.3379
  987TIP3    H224377   4.476   0.351  12.973  0.1756 -0.4957  0.0861
  988TIP3   OH224378   1.035   4.365  16.356 -0.6249 -0.0074 -0.1734
  988TIP3    H124379   0.974   4.381  16.285  1.1529 -0.0354 -1.7939
  988TIP3    H224380   1.079   4.284  16.332 -0.0586 -0.0747  1.0220
  989TIP3   OH224381   6.593   4.879   0.866 -0.1694 -0.3915  1.0392
  989TIP3    H124382   6.631   4.797   0.834 -0.7354 -0.5363  0.7386
  989TIP3    H224383   6.669   4.935   0.882  0.1061  0.3055 -2.1432
  990TIP3   OH224384   5.806   0.584   4.586 -0.4761 -0.0648 -0.0138
  990TIP3    H124385   5.760   0.624   4.660  2.8382  1.5475  1.3565
  990TIP3    H224386   5.802   0.650   4.517 -0.0754  0.1516  0.1688
  991TIP3   OH224387   3.154   0.838   5.204  0.1832  0.4169  0.0444
  991TIP3    H124388   3.202   0.919   5.185 -0.1248  0.8557  1.0543
  991TIP3    H224389   3.144   0.838   5.299 -1.9008  0.4064 -0.1328
  992TIP3   OH224390   0.087   0.537  11.320 -0.0608 -0.1870 -0.6692
  992TIP3    H124391   0.158   0.497  11.370 -0.9470 -0.9084  0.0615
  992TIP3    H224392   0.128   0.566  11.239  1.0625 -0.5913 -0.2674
  993TIP3   OH224393   3.588   4.903   4.334 -0.1899 -0.4901 -0.6116
  993TIP3    H124394   3.681   4.918   4.319 -0.2970 -0.0927 -0.8849
  993TIP3    H224395   3.583   4.813   4.365  0.2380 -0.6621 -1.0388
  994TIP3   OH224396   6.109   6.004   2.588 -0.4450 -0.3920  0.0633
  994TIP3    H124397   6.128   5.925   2.537  1.0706  1.2307 -2.0998
  994TIP3    H224398   6.157   6.073   2.543 -1.6037  1.7732  1.9413
  995TIP3   OH224399   4.725   3.879   5.474 -0.3723 -0.3186  0.0355
  995TIP3    H124400   4.641   3.904   5.435 -0.9864 -0.1453  1.3946
  995TIP3    H224401   4.760   3.813   5.415 -1.0258  0.2573 -1.0418
  996TIP3   OH224402   3.420   3.998   0.508  0.0427 -0.2479 -0.4583
  996TIP3    H124403   3.409   4.006   0.603  0.5812  1.2103 -0.4834
  996TIP3    H224404   3.368   3.922   0.484 -1.6387  0.4546  0.7637
  997TIP3   OH224405   0.757   2.700   4.414 -0.1117 -0.4811 -0.4149
  997TIP3    H124406   0.745   2.661   4.501 -2.1802 -0.0053 -0.4543
  997TIP3    H224407   0.761   2.625   4.355 -0.2594 -0.7508 -0.0845
  998TIP3   OH224408   5.575   2.169  12.368  0.3193 -0.1071 -0.1109
  998TIP3    H124409   5.601   2.084  12.404 -0.5888 -0.7429 -0.9037
  998TIP3    H224410   5.480   2.161  12.356  0.4300  0.5026 -1.5321
  999TIP3   OH224411   6.357   5.230   0.037  0.2170 -0.2764  0.0794
  999TIP3    H124412   6.344   5.309  -0.016  1.3834 -1.0977 -1.5291
  999TIP3    H224413   6.384   5.164  -0.026 -0.2630 -1.8492  1.4670
 1000TIP3   OH224414   3.293   5.280  12.247  0.1985 -0.6131  0.2325
 1000TIP3    H124415   3.218   5.284  12.306  0.5247  0.0629  0.6208
 1000TIP3    H224416   3.263   5.324  12.167 -0.8539 -3.1288 -0.8554
 1001TIP3   OH224417   4.823   4.981   2.178  0.0229  0.6370  0.1651
 1001TIP3    H124418   4.880   5.008   2.250  1.7981  1.0269 -1.3266
 1001TIP3    H224419   4.862   4.901   2.144  0.3574  1.5017 -1.5773
 1002TIP3   OH224420   4.603   5.930   5.755 -0.3540 -0.2665 -0.0155
 1002TIP3    H124421   4.569   5.842   5.744 -0.6027 -0.3002  0.9236
 1002TIP3    H224422   4.683   5.919   5.805  0.0323 -0.0198 -0.5652
 1003TIP3   OH224423   2.547   3.890  10.639 -0.0881 -0.2567 -0.1230
 1003TIP3    H124424   2.575   3.971  10.597  0.9564 -0.7244 -0.3439
 1003TIP3    H224425   2.569   3.821  10.577  0.8386 -0.8955  0.8766
 1004TIP3   OH224426   5.281   6.549   2.507  0.0373  0.6667  0.2828
 1004TIP3    H124427   5.316   6.468   2.471  1.4568  0.8713  1.1244
 1004TIP3    H224428   5.283   6.610   2.433  0.3918  0.3486  0.0243
 1005TIP3   OH224429   1.467   0.558  13.624  0.3921 -0.2144 -0.5528
 1005TIP3    H124430   1.413   0.599  13.556  1.2411  0.6015 -0.7499
 1005TIP3    H224431   1.405   0.539  13.695 -0.1080  1.0225 -0.6311
 1006TIP3   OH224432   5.954   4.439   3.839  0.3014  0.5574 -0.0998
 1006TIP3    H124433   5.976   4.472   3.926 -1.2889 -0.2691  0.6562
 1006TIP3    H224434   5.997   4.354   3.833  0.6651  0.7480 -0.2649
 1007TIP3   OH224435   1.925   1.153   0.253  0.4564  0.6669 -0.1432
 1007TIP3    H124436   1.918   1.108   0.169  1.1047  1.0121 -0.3878
 1007TIP3    H224437   1.965   1.237   0.233  3.3050 -0.3129  0.7995
 1008TIP3   OH224438   6.522   1.904  13.893  0.1465  0.6583 -0.3694
 1008TIP3    H124439   6.517   1.844  13.818  0.8997 -0.9631  0.8360
 1008TIP3    H224440   6.435   1.900  13.933 -0.0925  1.1117 -0.8362
 1009TIP3   OH224441   0.475   1.851   3.559 -0.4159  0.6655 -0.0545
 1009TIP3    H124442   0.473   1.818   3.648 -0.2176  0.4949 -0.1104
 1009TIP3    H224443   0.561   1.894   3.551 -0.2687  0.3361 -0.2801
 1010TIP3   OH224444   5.719   1.501   2.714 -0.4464  0.0941 -0.1537
 1010TIP3    H124445   5.743   1.482   2.804  1.4026  0.8101 -0.4583
 1010TIP3    H224446   5.711   1.415   2.672  1.5596 -0.2226  0.0171
 1011TIP3   OH224447   3.740   1.651  16.706  0.2735  0.0231  0.3195
 1011TIP3    H124448   3.734   1.729  16.651  1.4988 -1.4077 -1.9699
 1011TIP3    H224449   3.730   1.577  16.646  0.8342 -1.6354  2.1394
 1012TIP3   OH224450   3.224   6.557  11.683  0.4759  0.4140  0.1007
 1012TIP3    H124451   3.240   6.518  11.769 -0.7150  0.7083  0.4712
 1012TIP3    H224452   3.165   6.496  11.639  2.4496 -0.6437 -1.2407
 1013TIP3   OH224453   5.008   0.363  11.971 -0.4307  0.2031  0.2526
 1013TIP3    H124454   4.938   0.424  11.950 -0.1390 -0.2679 -2.5139
 1013TIP3    H224455   5.082   0.419  11.996 -1.2304  0.7711  1.4131
 1014TIP3   OH224456   3.947   4.446   1.676  0.4608  0.1194  0.0824
 1014TIP3    H124457   3.943   4.360   1.717 -1.5438  0.4567  0.6811
 1014TIP3    H224458   3.912   4.506   1.741 -0.2075  1.0707 -1.0994
 1015TIP3   OH224459   0.312   4.936  13.727 -0.0997 -0.1935 -0.9475
 1015TIP3    H124460   0.282   4.951  13.637 -1.1684  0.1009 -0.5603
 1015TIP3    H224461   0.311   4.841  13.737 -1.7345 -0.1874 -0.7092
 1016TIP3   OH224462   4.004   4.376  12.653 -0.3999  0.3694  0.3501
 1016TIP3    H124463   3.925   4.375  12.706 -0.7508 -0.2527 -0.1674
 1016TIP3    H224464   3.992   4.452  12.595 -1.2696 -0.4947 -0.6552
 1017TIP3   OH224465   0.652   1.309   0.118 -0.1705 -0.0979  0.2811
 1017TIP3    H124466   0.626   1.336   0.206  1.4759  1.1647  0.4379
 1017TIP3    H224467   0.658   1.214   0.123 -0.8487 -0.1065  1.2998
 1018TIP3   OH224468   1.795   0.454   3.038  0.5120 -0.4574 -0.2590
 1018TIP3    H124469   1.784   0.407   2.956  0.5263 -1.1583  0.1346
 1018TIP3    H224470   1.706   0.477   3.065  0.4033 -1.2896  0.1319
 1019TIP3   OH224471   4.888   3.395  15.816 -0.3985 -0.4677  0.0044
 1019TIP3    H124472   4.816   3.350  15.770 -0.8278 -0.7061  0.8771
 1019TIP3    H224473   4.959   3.398  15.753 -1.1453 -0.3311 -0.8437
 1020TIP3   OH224474   3.680   2.164  12.280  0.0090  0.1113  0.5493
 1020TIP3    H124475   3.588   2.175  12.257  0.4826 -0.3729 -1.8327
 1020TIP3    H224476   3.698   2.072  12.260  1.1693  0.3771  0.3364
 1021TIP3   OH224477   5.523   3.815   6.030  0.1400  0.8057  0.0674
 1021TIP3    H124478   5.606   3.862   6.019  0.9417 -0.5932 -0.1001
 1021TIP3    H224479   5.495   3.795   5.941  0.3848  0.0203  0.1563
 1022TIP3   OH224480   0.681   4.451  11.233 -0.3805 -0.0360  0.1172
 1022TIP3    H124481   0.650   4.391  11.301  0.6723  1.0349  1.6170
 1022TIP3    H224482   0.616   4.520  11.231 -0.7830 -0.4237 -0.4982
 1023TIP3   OH224483   2.193   0.449  11.994 -0.5083 -0.1537 -0.1374
 1023TIP3    H124484   2.141   0.495  12.060 -2.9455 -1.7818 -0.8153
 1023TIP3    H224485   2.136   0.445  11.917  2.2279  1.7000 -2.4915
 1024TIP3   OH224486   0.474   3.215  11.519 -0.6409 -0.7862  0.4704
 1024TIP3    H124487   0.483   3.144  11.582  0.6187 -1.6846 -0.6717
 1024TIP3    H224488   0.559   3.221  11.476  0.2648  3.2525  2.3371
 1025TIP3   OH224489   4.430   0.682   4.482 -0.6026  0.0592  0.3998
 1025TIP3    H124490   4.346   0.636   4.484 -0.5930 -0.0072 -0.4054
 1025TIP3    H224491   4.460   0.681   4.573 -0.2879 -2.0902  0.3288
 1026TIP3   OH224492   1.617   3.672  15.151  0.4106 -0.0298 -0.4615
 1026TIP3    H124493   1.644   3.670  15.060 -2.0080  1.2759 -1.2984
 1026TIP3    H224494   1.541   3.730  15.153 -1.7021 -2.5638  1.7949
 1027TIP3   OH224495   0.820   0.464  15.367  0.0698 -0.0282  0.0473
 1027TIP3    H124496   0.783   0.469  15.279 -0.6593  1.4356  0.3986
 1027TIP3    H224497   0.818   0.371  15.389 -1.7730 -0.1938 -0.6351
 1028TIP3   OH224498   6.365   4.315   3.040 -0.4695  0.1589  0.1700
 1028TIP3    H124499   6.313   4.374   3.095  0.9568  0.4370  1.2540
 1028TIP3    H224500   6.434   4.370   3.004 -0.3847 -0.4027 -0.5461
 1029TIP3   OH224501   6.511   2.312  14.155  0.1431 -0.8964 -0.0273
 1029TIP3    H124502   6.562   2.253  14.099  0.8166 -2.1461  1.8116
 1029TIP3    H224503   6.435   2.335  14.102  1.8817 -0.1043 -2.3381
 1030TIP3   OH224504   4.614   1.466   1.760  0.2418 -0.5800 -0.4976
 1030TIP3    H124505   4.703   1.468   1.724  0.6995  1.7635  0.5835
 1030TIP3    H224506   4.566   1.531   1.710 -0.1368  0.0354  0.6277
 1031TIP3   OH224507   0.557   4.638  15.329 -0.1796 -0.0829 -0.1150
 1031TIP3    H124508   0.580   4.582  15.255 -0.9673  0.0473 -0.4749
 1031TIP3    H224509   0.544   4.725  15.290  0.0310  0.1228  0.2743
 1032TIP3   OH224510   0.145   1.605  13.932  0.0217 -0.1063 -0.0011
 1032TIP3    H124511   0.088   1.539  13.970 -0.5686  0.3528 -0.0704
 1032TIP3    H224512   0.212   1.620  14.000  1.1909 -1.9860 -0.6586
 1033TIP3   OH224513   1.694   4.323  14.077  0.2100  0.3247  0.1494
 1033TIP3    H124514   1.763   4.319  14.012 -1.0926 -0.0894 -1.2840
 1033TIP3    H224515   1.713   4.402  14.129  1.3186  0.6273 -0.6966
 1034TIP3   OH224516   4.117   1.395  15.030 -0.4233 -0.5791  0.0566
 1034TIP3    H124517   4.051   1.422  15.094  1.6929  1.4217  1.5453
 1034TIP3    H224518   4.194   1.373  15.082  0.4410 -1.9196 -1.6772
 1035TIP3   OH224519   1.061   1.080   0.184  0.3539 -0.3222 -0.0546
 1035TIP3    H124520   0.970   1.082   0.213  0.8581 -1.2287  1.7061
 1035TIP3    H224521   1.095   0.996   0.216  1.7150 -0.1861 -1.0350
 1036TIP3   OH224522   2.808   4.294   2.904  0.6099 -0.0678  0.0946
 1036TIP3    H124523   2.731   4.263   2.952 -0.7432 -0.5362 -2.1872
 1036TIP3    H224524   2.859   4.215   2.888  1.5419  0.2263  1.5067
 1037TIP3   OH224525   0.362   1.269  14.536  0.4260  0.2445 -0.0489
 1037TIP3    H124526   0.400   1.271  14.447  0.0543  2.7160 -0.2194
 1037TIP3    H224527   0.277   1.228  14.524 -0.2601  1.8856 -1.1673
 1038TIP3   OH224528   6.441   2.989  13.005  0.0723 -0.2350 -0.4341
 1038TIP3    H124529   6.430   2.894  13.003 -1.2369 -0.1039 -2.4034
 1038TIP3    H224530   6.358   3.022  13.041  0.0807  0.1745 -0.7735
 1039TIP3   OH224531   5.000   0.603  16.389 -0.2284  0.4228 -0.6534
 1039TIP3    H124532   5.074   0.560  16.345 -0.8949 -1.6922  0.1496
 1039TIP3    H224533   5.038   0.682  16.427  1.9472 -1.1631  0.7131
 1040TIP3   OH224534   2.118   1.749  13.513  0.3032  0.0513  0.3776
 1040TIP3    H124535   2.138   1.703  13.432 -1.3710  0.1337 -0.1171
 1040TIP3    H224536   2.068   1.826  13.486 -2.9296 -1.4529  1.5772
 1041TIP3   OH224537   2.424   4.280  13.778  0.4396  0.1013  0.7463
 1041TIP3    H124538   2.486   4.346  13.747 -0.6360  0.7225 -0.1330
 1041TIP3    H224539   2.339   4.309  13.745 -0.4834 -0.2645  2.6738
 1042TIP3   OH224540   1.441   5.996   0.121 -0.1995  0.2103  0.1775
 1042TIP3    H124541   1.492   6.049   0.182  0.8012 -1.0322  0.4826
 1042TIP3    H224542   1.506   5.939   0.080 -1.1232 -0.2443 -0.6850
 1043TIP3   OH224543   6.266   3.947   3.536 -0.1123  0.2572 -0.1299
 1043TIP3    H124544   6.352   3.948   3.579 -0.3839 -1.9827  0.6070
 1043TIP3    H224545   6.206   3.918   3.605 -1.2061  0.2868 -1.0460
 1044TIP3   OH224546   3.472   4.258   4.754 -0.3852  0.3166 -0.1036
 1044TIP3    H124547   3.405   4.291   4.813  0.3149  0.2309  0.7511
 1044TIP3    H224548   3.423   4.208   4.688 -1.1822  0.4953  0.3389
 1045TIP3   OH224549   1.563   0.675   2.202  0.4897  0.5714 -0.3666
 1045TIP3    H124550   1.541   0.673   2.295  1.8880  1.6180  0.0295
 1045TIP3    H224551   1.570   0.583   2.177  1.8235  0.2586  1.0140
 1046TIP3   OH224552   1.666   2.408  11.109 -0.5461  0.2910 -0.1237
 1046TIP3    H124553   1.709   2.408  11.024 -0.8134  1.0482 -0.2705
 1046TIP3    H224554   1.703   2.333  11.155 -0.8733 -0.5219 -1.1369
 1047TIP3   OH224555   0.985   1.346  15.832  0.3093 -0.4243  0.6845
 1047TIP3    H124556   0.995   1.434  15.867  0.2026 -0.5022  0.9140
 1047TIP3    H224557   0.942   1.297  15.902  3.3374 -1.5347  1.8963
 1048TIP3   OH224558   1.458   1.860   1.468  0.4538 -0.4568 -0.7696
 1048TIP3    H124559   1.391   1.791   1.466  1.5290 -1.5361 -0.8644
 1048TIP3    H224560   1.412   1.938   1.499 -1.1635 -0.8061 -2.1434
 1049TIP3   OH224561   2.510   5.882  14.441  0.4226 -0.1732  0.0160
 1049TIP3    H124562   2.546   5.963  14.406 -0.0765  0.2854  0.5573
 1049TIP3    H224563   2.472   5.837  14.364  0.9527 -0.0367 -0.3289
 1050TIP3   OH224564   1.392   3.361   3.459  0.1497  0.0479 -0.2650
 1050TIP3    H124565   1.312   3.315   3.434  0.7868 -0.9854 -0.4637
 1050TIP3    H224566   1.376   3.391   3.548  0.0674 -1.4220  0.2418
 1051TIP3   OH224567   4.859   1.487   6.255  0.2049  0.0124 -0.0515
 1051TIP3    H124568   4.916   1.433   6.309  0.9821  0.3482 -0.5280
 1051TIP3    H224569   4.834   1.431   6.182  1.5296  0.4786 -0.8872
 1052TIP3   OH224570   6.123   2.300   1.412  0.0340  0.2016 -0.5602
 1052TIP3    H124571   6.143   2.235   1.344  1.1564  0.3099 -0.3552
 1052TIP3    H224572   6.175   2.273   1.488 -1.4803 -0.1341  0.4111
 1053TIP3   OH224573   4.462   4.195   5.223  0.1219 -0.2904 -0.0134
 1053TIP3    H124574   4.478   4.233   5.310 -0.7444  0.1723 -0.0406
 1053TIP3    H224575   4.418   4.265   5.175  0.2932 -0.6637 -0.7199
 1054TIP3   OH224576   0.234   3.403  15.215 -0.0690 -0.1355 -0.0445
 1054TIP3    H124577   0.221   3.463  15.289  1.1538  0.2649 -0.1310
 1054TIP3    H224578   0.301   3.341  15.246  0.1873 -0.1827 -0.6801
 1055TIP3   OH224579   5.352   1.111   0.048  0.7213 -0.0656 -0.5759
 1055TIP3    H124580   5.426   1.113   0.109  0.3403  0.1048 -0.1124
 1055TIP3    H224581   5.289   1.173   0.085  1.2030  1.3960 -2.0720
 1056TIP3   OH224582   5.195   0.961   5.025  0.1322  0.3043  0.6968
 1056TIP3    H124583   5.112   0.975   4.978  0.4605  0.7362  0.2384
 1056TIP3    H224584   5.218   1.048   5.059 -0.3432 -0.0838  2.0795
 1057TIP3   OH224585   2.027   3.735  13.665  0.0732 -0.5813 -0.5909
 1057TIP3    H124586   2.113   3.696  13.681 -0.1857 -0.7112  0.5397
 1057TIP3    H224587   2.045   3.808  13.606  0.6872 -1.8132 -2.0079
 1058TIP3   OH224588   0.233   3.729   4.130 -0.1896 -0.2925  0.5609
 1058TIP3    H124589   0.265   3.726   4.040 -1.6514  2.2169 -0.1245
 1058TIP3    H224590   0.257   3.643   4.166  1.9719 -0.7430 -1.6366
 1059TIP3   OH224591   5.056   0.063   0.540 -0.0521 -0.0510 -0.1628
 1059TIP3    H124592   5.093   0.145   0.572 -0.5855  0.4981 -0.8979
 1059TIP3    H224593   5.123   0.028   0.481  0.4959 -0.5394  0.7394
 1060TIP3   OH224594   2.425   6.689  15.870  1.0717 -0.0525  0.0788
 1060TIP3    H124595   2.348   6.740  15.897  1.7766  0.6057  0.8901
 1060TIP3    H224596   2.391   6.629  15.803 -0.0999  0.3838  0.2516
 1061TIP3   OH224597   0.768   5.910   2.289 -1.1807 -0.2087  0.0858
 1061TIP3    H124598   0.820   5.891   2.211  0.2307  2.1146  0.3454
 1061TIP3    H224599   0.755   5.826   2.331  1.0005 -1.0923 -0.8655
 1062TIP3   OH224600   4.431   3.776   1.444  0.1333  0.9490  0.4185
 1062TIP3    H124601   4.515   3.729   1.444 -1.0371 -1.3558  2.0243
 1062TIP3    H224602   4.447   3.854   1.391  2.7037 -0.4196 -1.0239
 1063TIP3   OH224603   5.051   1.519  10.518 -0.3318 -0.4264  0.5623
 1063TIP3    H124604   5.099   1.519  10.601  1.4589 -0.2042 -0.4344
 1063TIP3    H224605   5.117   1.541  10.452 -1.5469 -1.3671 -1.0284
 1064TIP3   OH224606   2.688   5.609  14.323  0.0007 -0.9464 -0.6132
 1064TIP3    H124607   2.732   5.528  14.348  0.1356 -0.4794  0.7495
 1064TIP3    H224608   2.706   5.669  14.396 -0.2686  0.2393 -1.4990
 1065TIP3   OH224609   4.193   4.668  12.918 -0.2496  0.1441 -0.1862
 1065TIP3    H124610   4.282   4.688  12.944 -0.8723  3.3757 -0.1017
 1065TIP3    H224611   4.155   4.623  12.993  0.2618  2.2207  1.4188
 1066TIP3   OH224612   6.795   3.666   3.905  0.0865 -0.3544 -0.1141
 1066TIP3    H124613   6.796   3.571   3.917  0.5318 -0.1161  2.1061
 1066TIP3    H224614   6.776   3.701   3.992  0.9753  1.6307 -0.6655
 1067TIP3   OH224615   6.026   3.810  11.711 -0.1100  0.3947  0.0966
 1067TIP3    H124616   5.936   3.777  11.706  0.4706 -1.0890 -1.2701
 1067TIP3    H224617   6.021   3.899  11.676 -0.6751 -0.5467 -2.3833
 1068TIP3   OH224618   2.679   4.857  12.541 -0.3025  0.5939 -0.3602
 1068TIP3    H124619   2.677   4.774  12.493 -0.8401 -0.0997  0.7956
 1068TIP3    H224620   2.763   4.855  12.588 -0.8962  0.0345  0.7324
 1069TIP3   OH224621   3.146   0.117   5.522  0.3576 -0.0686  0.4873
 1069TIP3    H124622   3.143   0.143   5.614  1.0827 -0.0346  0.5051
 1069TIP3    H224623   3.219   0.166   5.485  1.5252 -1.7581  0.4371
 1070TIP3   OH224624   1.286   1.014  14.601 -0.3979 -0.1035 -0.0420
 1070TIP3    H124625   1.280   0.930  14.555 -0.3526  0.0483 -0.3321
 1070TIP3    H224626   1.291   0.991  14.693  1.4548 -0.5227 -0.2070
 1071TIP3   OH224627   2.134   4.965   1.586  0.2191 -0.3667 -0.7390
 1071TIP3    H124628   2.161   5.021   1.513  1.0425  0.2874  0.0447
 1071TIP3    H224629   2.089   5.025   1.647  1.6232 -0.4015  0.3871
 1072TIP3   OH224630   5.826   2.702  11.808  0.2904  0.1361 -0.1566
 1072TIP3    H124631   5.848   2.729  11.719 -2.6271  1.2615 -0.6560
 1072TIP3    H224632   5.731   2.712  11.813  0.4195  0.7888  3.3039
 1073TIP3   OH224633   6.109   3.323   3.550 -0.4486  0.2678 -0.2316
 1073TIP3    H124634   6.105   3.388   3.620  1.2028  1.1158 -0.8619
 1073TIP3    H224635   6.036   3.345   3.492 -0.8916  0.5216  0.4093
 1074TIP3   OH224636   2.597   3.623   5.016  0.7020 -0.5226 -0.0971
 1074TIP3    H124637   2.665   3.578   4.966  1.5746 -0.2700  0.8326
 1074TIP3    H224638   2.643   3.662   5.090  0.0189  2.0884 -0.9671
 1075TIP3   OH224639   5.499   6.404  16.112 -0.0322 -0.2886 -0.4818
 1075TIP3    H124640   5.438   6.429  16.182 -0.0418 -2.3251  0.3288
 1075TIP3    H224641   5.555   6.337  16.152 -0.4238 -1.9746 -2.5737
 1076TIP3   OH224642   3.315   6.137   0.780 -0.0235 -0.1692  0.0024
 1076TIP3    H124643   3.345   6.047   0.772 -0.5767 -0.3144 -0.5660
 1076TIP3    H224644   3.389   6.185   0.816  0.7233 -0.6018 -0.9093
 1077TIP3   OH224645   2.835   6.040  16.890  0.2281 -0.3695  0.5031
 1077TIP3    H124646   2.806   6.063  16.802  1.7282  1.3575  0.3804
 1077TIP3    H224647   2.930   6.033  16.883  0.1868 -2.9502  1.4546
 1078TIP3   OH224648   1.545   5.383  16.913  0.1538  0.1965 -0.4987
 1078TIP3    H124649   1.584   5.449  16.856  0.3593 -0.1638 -0.7854
 1078TIP3    H224650   1.592   5.302  16.891 -0.7482 -0.2445 -0.8385
 1079TIP3   OH224651   5.439   5.092   5.184  0.1582  0.2970  0.1909
 1079TIP3    H124652   5.381   5.023   5.217 -0.2471  0.5247 -0.0359
 1079TIP3    H224653   5.527   5.062   5.205  0.0934 -1.0025 -1.2108
 1080TIP3   OH224654   5.534   2.099   2.883 -0.6939  0.1018  0.1164
 1080TIP3    H124655   5.491   2.066   2.804 -0.2566  1.4017 -0.6954
 1080TIP3    H224656   5.595   2.029   2.908  0.3575  0.3137 -1.6668
 1081TIP3   OH224657   5.596   1.108  13.771  0.5152  0.1671  0.3823
 1081TIP3    H124658   5.566   1.115  13.862  1.7078 -0.7701  0.8811
 1081TIP3    H224659   5.675   1.163  13.768 -0.4605  1.5832 -0.5709
 1082TIP3   OH224660   3.334   3.854   3.774  0.6058 -0.4919  0.0406
 1082TIP3    H124661   3.310   3.772   3.816  1.3221 -1.1467 -0.7895
 1082TIP3    H224662   3.314   3.922   3.839 -4.5467 -0.7568 -0.8768
 1083TIP3   OH224663   2.713   2.679   1.838  0.2856  0.5517 -0.3257
 1083TIP3    H124664   2.780   2.721   1.785  0.1447  1.2266  0.0159
 1083TIP3    H224665   2.731   2.585   1.831  2.3350  0.7876  1.1700
 1084TIP3   OH224666   0.219   5.010  11.309 -0.2435 -0.0218  0.3086
 1084TIP3    H124667   0.178   5.034  11.392 -2.6553 -0.8614 -0.5455
 1084TIP3    H224668   0.227   5.093  11.262 -0.1394  0.2745  0.8377
 1085TIP3   OH224669   0.480   5.454   3.836  0.8059 -0.1844 -0.3658
 1085TIP3    H124670   0.521   5.370   3.855  1.9993  0.7350  1.5132
 1085TIP3    H224671   0.550   5.507   3.798  0.9709  0.8610  1.2768
 1086TIP3   OH224672   3.589   4.340  15.247  0.1585  0.1835 -0.0054
 1086TIP3    H124673   3.565   4.247  15.249 -1.2229  0.5356  0.4948
 1086TIP3    H224674   3.584   4.364  15.155  1.3977 -0.4388 -0.2586
 1087TIP3   OH224675   5.903   2.969   2.478  0.3050  0.2825  0.4290
 1087TIP3    H124676   5.985   2.975   2.430  1.2028  0.9586  1.9738
 1087TIP3    H224677   5.917   3.023   2.556 -2.1620  1.7616 -0.0270
 1088TIP3   OH224678   5.418   0.022   5.200 -0.3630 -0.1072  0.0004
 1088TIP3    H124679   5.467   0.069   5.268 -0.5513  1.5852 -0.9650
 1088TIP3    H224680   5.484  -0.022   5.148  0.0091  0.6427 -0.1830
 1089TIP3   OH224681   5.389   6.166  16.034  0.6414  0.2763  0.0254
 1089TIP3    H124682   5.420   6.131  15.950 -0.5246 -0.3649 -0.1561
 1089TIP3    H224683   5.382   6.261  16.019 -0.4163  0.0708 -0.9040
 1090TIP3   OH224684   2.462   1.772   1.850 -0.2444  0.0358 -0.3064
 1090TIP3    H124685   2.523   1.788   1.778 -0.3841  0.6054 -0.2988
 1090TIP3    H224686   2.388   1.726   1.810 -0.0367 -0.2207 -0.4035
 1091TIP3   OH224687   5.975   1.195   6.339  0.4639 -0.3758 -0.0494
 1091TIP3    H124688   6.067   1.179   6.317 -0.0135  0.3401 -2.8689
 1091TIP3    H224689   5.976   1.280   6.383  1.1026 -0.1284 -0.5137
 1092TIP3   OH224690   5.888   1.733   3.322 -0.0861  0.2821 -0.5941
 1092TIP3    H124691   5.860   1.793   3.391  1.2488  0.5389 -0.2527
 1092TIP3    H224692   5.847   1.649   3.345 -0.1367  0.5138  0.1762
 1093TIP3   OH224693   6.417   6.148  11.761 -0.0789 -0.1654 -0.0537
 1093TIP3    H124694   6.380   6.209  11.697  1.4596  0.9465  0.0574
 1093TIP3    H224695   6.490   6.105  11.714 -0.7078 -1.4348  0.0886
 1094TIP3   OH224696   4.662   4.726  14.490 -0.2439  0.2474 -0.0286
 1094TIP3    H124697   4.733   4.787  14.509 -1.1677  0.9283  1.3498
 1094TIP3    H224698   4.592   4.750  14.550 -1.0275 -1.5124 -0.1623
 1095TIP3   OH224699   4.592   6.176   2.417 -0.5128 -0.1451 -0.6781
 1095TIP3    H124700   4.671   6.158   2.468 -0.4002  1.2946 -0.3293
 1095TIP3    H224701   4.625   6.211   2.334 -0.7873  1.2220 -0.2238
 1096TIP3   OH224702   5.435   5.129   1.664 -0.2500 -0.4877 -0.1383
 1096TIP3    H124703   5.364   5.075   1.697 -1.1364  0.9224  0.3711
 1096TIP3    H224704   5.512   5.073   1.669 -0.6366 -0.9257  2.7708
 1097TIP3   OH224705   2.131   4.808  13.139 -0.0836 -0.0831 -0.0043
 1097TIP3    H124706   2.081   4.781  13.062 -1.6351  1.0768  0.5408
 1097TIP3    H224707   2.220   4.821  13.107 -0.8584  1.1554 -1.8165
 1098TIP3   OH224708   3.872   6.625  14.781 -0.3423  0.2591  0.1931
 1098TIP3    H124709   3.827   6.562  14.726  1.7005 -1.0189 -0.0993
 1098TIP3    H224710   3.849   6.600  14.871  1.2903 -1.6886  0.1418
 1099TIP3   OH224711   6.423   5.368  13.808 -0.2289  0.3330 -0.0984
 1099TIP3    H124712   6.508   5.324  13.805 -0.8488 -1.0111  0.8245
 1099TIP3    H224713   6.428   5.435  13.740  0.4307 -1.7939 -2.2688
 1100TIP3   OH224714   1.360   4.132   4.357  0.2968 -0.1900 -0.0518
 1100TIP3    H124715   1.395   4.162   4.273  0.2695 -0.3285 -0.1120
 1100TIP3    H224716   1.416   4.174   4.423  0.8528 -0.7637 -0.1555
 1101TIP3   OH224717   6.596   3.190  13.405 -0.0327  0.3232  0.6992
 1101TIP3    H124718   6.505   3.218  13.417  0.3730  2.0420 -0.0418
 1101TIP3    H224719   6.637   3.204  13.490 -0.2704  0.2618  0.8253
 1102TIP3   OH224720   3.377   5.770  10.962 -0.4049 -0.7225 -0.3599
 1102TIP3    H124721   3.351   5.827  10.889 -1.5080 -1.5559 -0.6293
 1102TIP3    H224722   3.473   5.774  10.962 -0.4320  0.1867 -1.1307
 1103TIP3   OH224723   2.213   4.009   5.572 -0.8456  0.1401  0.3432
 1103TIP3    H124724   2.248   3.920   5.567 -1.0306  0.1016 -0.3560
 1103TIP3    H224725   2.119   3.997   5.589 -1.1722  0.1440 -1.2854
 1104TIP3   OH224726   6.800   0.663  14.769 -0.1634  0.0584 -0.0966
 1104TIP3    H124727   6.854   0.737  14.742  1.2206 -0.1601  1.8161
 1104TIP3    H224728   6.767   0.688  14.856 -2.5830 -0.1502 -0.8755
 1105TIP3   OH224729   0.661   5.816   0.569 -0.2492  0.2444  0.1210
 1105TIP3    H124730   0.682   5.728   0.537 -1.4904 -0.1317  0.3046
 1105TIP3    H224731   0.743   5.865   0.559  0.6241 -1.0727  0.5336
 1106TIP3   OH224732   6.290   4.602  16.756 -0.1244  0.0314 -0.4387
 1106TIP3    H124733   6.196   4.596  16.737 -0.3520 -0.6590  0.7787
 1106TIP3    H224734   6.316   4.513  16.779  0.5702  0.4166  0.3493
 1107TIP3   OH224735   1.671   5.151  14.508 -0.1309 -0.5603 -0.5067
 1107TIP3    H124736   1.632   5.066  14.526  0.5934 -0.5819  1.2427
 1107TIP3    H224737   1.750   5.132  14.457 -0.9726 -0.7472 -1.7602
 1108TIP3   OH224738   5.760   1.599   5.199 -0.6736  0.2482  0.6484
 1108TIP3    H124739   5.837   1.541   5.203 -1.7485 -1.3132 -0.2508
 1108TIP3    H224740   5.771   1.647   5.118 -0.9268 -0.4228  0.2052
 1109TIP3   OH224741   4.682   5.464  10.931  0.0922  0.1840  0.6591
 1109TIP3    H124742   4.662   5.378  10.967 -0.5688  0.4479  0.9465
 1109TIP3    H224743   4.753   5.498  10.985  0.2486 -0.1157  0.6403
 1110TIP3   OH224744   0.813   1.935  14.075  0.4023 -0.2579  0.3287
 1110TIP3    H124745   0.863   1.965  13.999  0.4876  1.2114  0.9304
 1110TIP3    H224746   0.737   1.992  14.078 -1.3836 -2.4646 -0.5539
 1111TIP3   OH224747   3.929   5.295   3.655 -0.7465  0.3985 -0.3060
 1111TIP3    H124748   3.939   5.356   3.728 -0.7253 -2.2666  2.1030
 1111TIP3    H224749   4.019   5.282   3.623 -0.4353  0.0094  0.6642
 1112TIP3   OH224750   3.853   5.737  15.740  0.6483  0.2823  0.5661
 1112TIP3    H124751   3.814   5.821  15.717 -0.2906 -0.0751  0.7918
 1112TIP3    H224752   3.783   5.673  15.725  1.6985 -0.6137 -0.6961
 1113TIP3   OH224753   5.583   1.542  14.017  0.3879 -0.3832  0.6131
 1113TIP3    H124754   5.571   1.635  14.001 -0.4636 -0.0966  2.6169
 1113TIP3    H224755   5.653   1.516  13.957 -0.7844  1.0411 -1.4851
 1114TIP3   OH224756   2.758   0.072  13.318 -0.0352  0.1130  0.3085
 1114TIP3    H124757   2.841   0.068  13.270  0.7231 -0.3660  1.5863
 1114TIP3    H224758   2.765   0.151  13.372 -0.9993  0.8115 -0.5651
 1115TIP3   OH224759   3.560   3.451   0.089  0.2980 -0.0547  0.5292
 1115TIP3    H124760   3.520   3.450   0.002 -0.0198 -1.6947  0.6661
 1115TIP3    H224761   3.523   3.375   0.134  2.4616 -0.8326  1.1602
 1116TIP3   OH224762   5.591   4.789   3.833 -0.2414  0.0749 -0.2514
 1116TIP3    H124763   5.560   4.815   3.919 -1.0047 -1.2487 -0.1042
 1116TIP3    H224764   5.604   4.872   3.786  2.8976  1.0196  1.9739
 1117TIP3   OH224765   6.481   5.155  14.739 -0.3390  0.3746  0.0253
 1117TIP3    H124766   6.407   5.213  14.721 -1.3168  0.1171  2.7096
 1117TIP3    H224767   6.548   5.211  14.777 -0.2690  0.1672  0.2120
 1118TIP3   OH224768   1.724   3.859   3.678  0.4917  0.2041 -0.1118
 1118TIP3    H124769   1.741   3.782   3.624 -2.1220  0.0151 -0.8110
 1118TIP3    H224770   1.703   3.928   3.615 -2.5682 -0.0014  0.5120
 1119TIP3   OH224771   5.450   0.529   6.724 -0.3042  0.5538 -0.0598
 1119TIP3    H124772   5.502   0.536   6.643  2.0918  0.5551  1.3955
 1119TIP3    H224773   5.446   0.619   6.757  1.3937  0.1698  1.3370
 1120TIP3   OH224774   0.010   6.489   1.403 -0.9109 -0.2594 -0.1709
 1120TIP3    H124775  -0.037   6.565   1.368  0.5619  1.4182  1.2741
 1120TIP3    H224776   0.057   6.454   1.328 -1.6481  0.2259 -0.8804
 1121TIP3   OH224777   6.588   2.921   2.351 -0.5010  0.2255 -0.5532
 1121TIP3    H124778   6.545   2.973   2.419 -1.4045 -1.0753 -0.0910
 1121TIP3    H224779   6.565   2.831   2.371  1.3479 -0.4132 -1.1116
 1122TIP3   OH224780   2.110   0.154  14.710 -0.1060 -0.0578  0.3908
 1122TIP3    H124781   2.086   0.221  14.775  1.3513  0.0513  0.8395
 1122TIP3    H224782   2.108   0.200  14.626 -0.5293  0.1713  0.5212
 1123TIP3   OH224783   5.157   0.080  16.967 -0.2807 -0.1543 -0.0344
 1123TIP3    H124784   5.194   0.102  16.882 -1.1840  1.8448  0.0477
 1123TIP3    H224785   5.090   0.014  16.948 -0.0026 -0.2258 -0.7717
 1124TIP3   OH224786   1.355   2.022  11.334  0.0193 -0.1361 -0.1713
 1124TIP3    H124787   1.416   1.967  11.286 -0.2136  0.3404 -1.0441
 1124TIP3    H224788   1.321   2.083  11.268 -0.4488  0.4180  0.5641
 1125TIP3   OH224789   0.308   0.847   0.522  0.2094  0.8266  0.4213
 1125TIP3    H124790   0.390   0.834   0.570  0.5280  0.6903 -0.1373
 1125TIP3    H224791   0.317   0.789   0.446  0.1909  1.8436 -0.3676
 1126TIP3   OH224792   1.145   4.717   3.458  0.2182 -0.3833 -0.3100
 1126TIP3    H124793   1.174   4.808   3.471 -0.4400 -0.2798  0.5096
 1126TIP3    H224794   1.195   4.667   3.522 -0.2440 -0.4392  0.0036
 1127TIP3   OH224795   2.160   3.746   3.490 -0.0366 -0.1490  0.1980
 1127TIP3    H124796   2.219   3.748   3.566 -0.6641 -0.7458  0.7171
 1127TIP3    H224797   2.172   3.831   3.448 -1.1435  1.0289  2.1065
 1128TIP3   OH224798   1.393   0.872   1.117  0.0211 -0.3923 -0.0212
 1128TIP3    H124799   1.451   0.938   1.081  0.5640 -0.4016  0.8136
 1128TIP3    H224800   1.305   0.897   1.087  0.1059  1.1778  0.9598
 1129TIP3   OH224801   5.178   6.293  12.479 -0.9133  0.2146  0.0849
 1129TIP3    H124802   5.200   6.377  12.437 -2.3754  0.9543  0.7497
 1129TIP3    H224803   5.146   6.239  12.407  0.9829 -0.1769 -0.5364
 1130TIP3   OH224804   1.692   1.539  15.595  0.3536  0.4767 -0.0472
 1130TIP3    H124805   1.708   1.631  15.577 -0.5429  0.8467  0.9078
 1130TIP3    H224806   1.637   1.539  15.674  1.9095 -0.9344  1.1244
 1131TIP3   OH224807   5.869   3.435   0.540 -0.2158  0.0436  0.1678
 1131TIP3    H124808   5.905   3.517   0.574  0.0107 -0.1618  0.4201
 1131TIP3    H224809   5.896   3.433   0.448  1.0442 -0.4589  0.5384
 1132TIP3   OH224810   4.828   5.845   5.892 -0.7007  0.2473  0.5498
 1132TIP3    H124811   4.816   5.783   5.964 -1.9100 -0.3365 -0.1104
 1132TIP3    H224812   4.905   5.896   5.916 -0.1853 -0.9410  1.5213
 1133TIP3   OH224813   4.103   2.352   3.540 -0.0105  0.8831  0.5386
 1133TIP3    H124814   4.143   2.285   3.596 -0.2390  0.1579 -0.1574
 1133TIP3    H224815   4.009   2.334   3.544  0.1117 -0.7836 -2.0454
 1134TIP3   OH224816   1.546   4.540   3.026  0.0663  0.3785  0.3616
 1134TIP3    H124817   1.517   4.540   3.117 -1.3960  0.1875 -0.0741
 1134TIP3    H224818   1.577   4.629   3.010  0.3368  0.4108  1.0427
 1135TIP3   OH224819   5.875   3.230  14.933 -0.3033 -0.3245 -0.7082
 1135TIP3    H124820   5.931   3.257  15.006  2.8658  1.2066 -3.4345
 1135TIP3    H224821   5.827   3.310  14.909  1.1606  0.1644 -2.2248
 1136TIP3   OH224822   4.220   0.269  17.075  0.6125 -0.2256 -0.3446
 1136TIP3    H124823   4.223   0.221  16.992 -0.9881 -1.1947  0.0930
 1136TIP3    H224824   4.189   0.203  17.138 -2.0908  1.4104  0.2114
 1137TIP3   OH224825   6.018   5.112   2.561 -0.2397 -0.5721 -0.2274
 1137TIP3    H124826   6.034   5.146   2.649 -1.5978  1.0995 -0.5506
 1137TIP3    H224827   6.043   5.184   2.503  0.2506 -1.4964 -1.1917
 1138TIP3   OH224828   1.310   5.561  12.249 -0.1677  0.0857 -0.9896
 1138TIP3    H124829   1.332   5.608  12.329 -3.2776 -0.8270  0.5953
 1138TIP3    H224830   1.344   5.473  12.262 -2.9616 -0.8862  0.7695
 1139TIP3   OH224831   6.635   3.681  13.954 -0.5817 -0.6229 -0.2955
 1139TIP3    H124832   6.540   3.692  13.944 -0.7002 -2.2285 -1.3159
 1139TIP3    H224833   6.646   3.659  14.046 -1.1933 -0.3352 -0.1438
 1140TIP3   OH224834   2.663   0.567  14.574 -0.1862  0.2277 -0.4461
 1140TIP3    H124835   2.704   0.609  14.650  1.5327 -0.7553 -0.7895
 1140TIP3    H224836   2.645   0.478  14.603  0.6575 -0.2124 -1.2189
 1141TIP3   OH224837   6.128   4.722   4.502 -0.7191 -0.5301 -0.5037
 1141TIP3    H124838   6.124   4.741   4.596 -1.1813 -1.9899 -0.2099
 1141TIP3    H224839   6.039   4.738   4.471 -0.9195 -1.4022 -0.4037
 1142TIP3   OH224840   2.264   6.208  15.913 -0.4798 -0.1335 -0.0327
 1142TIP3    H124841   2.298   6.118  15.914 -0.0497  0.0287 -0.0247
 1142TIP3    H224842   2.184   6.202  15.860  0.1064 -0.3190 -0.9251
 1143TIP3   OH224843   0.620   3.704  14.761 -0.1395  0.0300 -0.4846
 1143TIP3    H124844   0.550   3.731  14.820 -0.5200 -1.1615 -0.3673
 1143TIP3    H224845   0.701   3.725  14.808 -0.4387 -0.3678  0.2196
 1144TIP3   OH224846   5.808   6.152  15.305  0.6043  0.3488 -0.3102
 1144TIP3    H124847   5.734   6.098  15.278  0.6827  0.1090 -0.0408
 1144TIP3    H224848   5.865   6.093  15.354  1.4869  0.2679 -1.3929
 1145TIP3   OH224849   5.718   3.479   0.012 -0.3322  0.0051  0.0797
 1145TIP3    H124850   5.763   3.563   0.007  3.1381 -1.6919 -0.5641
 1145TIP3    H224851   5.694   3.460  -0.079 -0.1382 -0.1855  0.0683
 1146TIP3   OH224852   3.240   6.081   6.231 -0.3481  0.4824 -0.0773
 1146TIP3    H124853   3.201   6.011   6.179  3.8734 -3.4521  1.3676
 1146TIP3    H224854   3.280   6.140   6.167  1.0437 -1.8192 -1.4591
 1147TIP3   OH224855   2.150   1.609  12.105 -0.0979  0.6164  0.1276
 1147TIP3    H124856   2.074   1.666  12.117 -0.0960  0.3916  1.3241
 1147TIP3    H224857   2.223   1.658  12.143  0.1010  0.2633  0.2082
 1148TIP3   OH224858   1.094   1.331   1.383  0.3547  0.6627  0.2311
 1148TIP3    H124859   1.189   1.332   1.394  0.3921 -0.9656  0.4007
 1148TIP3    H224860   1.067   1.244   1.413 -1.2981  1.3774  0.9634
 1149TIP3   OH224861   4.628   3.556  16.793  0.0392 -0.0923  0.0388
 1149TIP3    H124862   4.624   3.461  16.789  1.9724 -0.2026 -0.6517
 1149TIP3    H224863   4.708   3.574  16.843 -1.4732  1.2109  2.1270
 1150TIP3   OH224864   6.657   1.510   3.012 -0.0956  0.0828 -0.1594
 1150TIP3    H124865   6.746   1.474   3.005  0.6822  1.5373  1.4300
 1150TIP3    H224866   6.659   1.587   2.955 -0.2001  0.3547  0.2037
 1151TIP3   OH224867   1.328   1.328  16.931  0.0220  0.0099 -0.3425
 1151TIP3    H124868   1.296   1.252  16.980 -1.4545 -0.0037 -1.2563
 1151TIP3    H224869   1.376   1.380  16.995 -0.3809 -0.8606  0.6973
 1152TIP3   OH224870   1.735   0.594   5.245 -0.5716 -0.1464 -0.0360
 1152TIP3    H124871   1.829   0.575   5.245 -0.1530  1.7359 -1.4111
 1152TIP3    H224872   1.726   0.673   5.298 -1.4451 -0.4822  0.3411
 1153TIP3   OH224873   0.505   3.660  16.583 -0.3688  0.1727  0.1057
 1153TIP3    H124874   0.558   3.740  16.579  0.6202 -0.3762  1.3671
 1153TIP3    H224875   0.535   3.616  16.663 -0.4826 -1.7461 -0.8481
 1154TIP3   OH224876   5.582   5.226  11.711  0.4006  0.2106  0.2114
 1154TIP3    H124877   5.561   5.133  11.709 -0.1039  0.3238  0.1425
 1154TIP3    H224878   5.612   5.242  11.800 -0.6267  0.2163  0.5729
 1155TIP3   OH224879   4.980   0.560   2.799 -0.6859  0.3398 -0.1758
 1155TIP3    H124880   5.004   0.651   2.818 -2.1606  0.8553 -0.7022
 1155TIP3    H224881   4.920   0.536   2.869 -0.3754 -0.2198 -0.0939
 1156TIP3   OH224882   1.884   6.221   4.051  0.0957  0.2491  0.0989
 1156TIP3    H124883   1.848   6.285   3.990  0.4140 -0.1479 -0.5104
 1156TIP3    H224884   1.977   6.217   4.030  0.1499 -0.1299  0.3982
 1157TIP3   OH224885   1.935   6.785   4.495  0.1563  0.0265  0.3344
 1157TIP3    H124886   2.010   6.830   4.533  0.5027 -0.9955  0.9129
 1157TIP3    H224887   1.916   6.714   4.557 -0.6457 -0.3404 -0.3143
 1158TIP3   OH224888   3.752   5.426   0.276 -0.3522  0.1606  0.4217
 1158TIP3    H124889   3.810   5.351   0.292  0.5062  0.9754  1.1875
 1158TIP3    H224890   3.665   5.393   0.298 -0.1185 -0.9041 -0.1903
 1159TIP3   OH224891   5.749   4.241   1.392  0.1427  0.4132 -0.0237
 1159TIP3    H124892   5.801   4.260   1.470 -1.3579  0.4269  1.0149
 1159TIP3    H224893   5.765   4.315   1.334  0.5887  0.8397  0.6309
 1160TIP3   OH224894   2.617   6.758   4.514 -0.1709  0.0707 -0.2194
 1160TIP3    H124895   2.692   6.739   4.570  0.3220 -0.2982 -0.9844
 1160TIP3    H224896   2.569   6.827   4.560  0.2398 -0.1963  0.6266
 1161TIP3   OH224897   3.984   2.325  16.184 -0.3164  0.3232  0.2428
 1161TIP3    H124898   3.953   2.340  16.273 -0.8469 -2.3430  0.6083
 1161TIP3    H224899   3.971   2.231  16.170  2.5343  0.0674 -1.5663
 1162TIP3   OH224900   4.051   6.403  12.064  0.1592 -0.2464  0.1864
 1162TIP3    H124901   4.081   6.493  12.079  0.5662 -0.6552  2.0094
 1162TIP3    H224902   4.124   6.361  12.018  0.5090  0.0206  0.4909
 1163TIP3   OH224903   0.308   1.875   0.040 -0.0204  0.5144 -0.3307
 1163TIP3    H124904   0.288   1.867   0.134  0.9806  1.1606 -0.0442
 1163TIP3    H224905   0.224   1.869  -0.003 -0.5311  0.4744  0.6365
 1164TIP3   OH224906   2.932   4.613  13.264  0.2188 -0.4828  0.1461
 1164TIP3    H124907   2.932   4.687  13.203  1.8254 -0.5642  0.0240
 1164TIP3    H224908   2.960   4.538  13.212 -1.2856 -1.1898  0.2996
 1165TIP3   OH224909   3.840   5.760   3.420  0.0339 -0.3219  0.1007
 1165TIP3    H124910   3.929   5.796   3.425  0.7720 -2.0986  0.7257
 1165TIP3    H224911   3.840   5.705   3.342 -0.0177 -1.4876  0.8893
 1166TIP3   OH224912   3.816   6.798   5.015 -0.3407 -0.3656 -0.3407
 1166TIP3    H124913   3.775   6.811   4.930  0.7469 -0.1176 -0.8533
 1166TIP3    H224914   3.776   6.719   5.050 -0.4391 -0.7606 -1.3185
 1167TIP3   OH224915   1.047   5.892  15.811  0.1724  0.6825 -0.0933
 1167TIP3    H124916   1.068   5.811  15.766 -0.2599  0.5792 -0.1101
 1167TIP3    H224917   1.064   5.874  15.904  1.5403  1.0485 -0.2529
 1168TIP3   OH224918   1.266   4.860  15.809  0.2694 -0.4401 -0.0686
 1168TIP3    H124919   1.278   4.812  15.891  2.7176  1.3735  0.7507
 1168TIP3    H224920   1.176   4.891  15.812  0.2272 -0.6538  1.8104
 1169TIP3   OH224921   5.804   0.909   2.132 -0.3376 -0.3344 -0.7381
 1169TIP3    H124922   5.847   0.848   2.073 -0.1935 -2.7666  1.6884
 1169TIP3    H224923   5.803   0.992   2.084 -0.6504 -2.1919 -4.2469
 1170TIP3   OH224924   4.480   1.150  12.897 -0.1739  0.4162  0.2069
 1170TIP3    H124925   4.432   1.203  12.833  1.8974 -0.1313 -1.9214
 1170TIP3    H224926   4.474   1.061  12.863  0.9626  0.1152  0.7614
 1171TIP3   OH224927   6.675   3.656   3.642 -0.2938 -0.2751  0.3897
 1171TIP3    H124928   6.719   3.667   3.726 -0.0818  0.3478  0.2100
 1171TIP3    H224929   6.742   3.620   3.584  0.2058  1.2553 -0.0483
 1172TIP3   OH224930   4.147   0.247  11.095  0.4260  0.2570  0.1581
 1172TIP3    H124931   4.101   0.202  11.024 -1.3332  0.0909  1.3525
 1172TIP3    H224932   4.145   0.185  11.168  0.8240  1.0239  0.8315
 1173TIP3   OH224933   2.984   3.585  12.207 -0.2794  0.3244  0.6379
 1173TIP3    H124934   2.943   3.601  12.122 -0.7553 -1.0312  0.6038
 1173TIP3    H224935   3.011   3.494  12.204  0.2585  0.4358  1.7218
 1174TIP3   OH224936   4.007   1.111  15.461  0.3786  0.4927 -0.3703
 1174TIP3    H124937   3.920   1.148  15.445  0.8444  2.1180  0.6554
 1174TIP3    H224938   3.999   1.066  15.545  0.3472 -0.0440 -0.6516
 1175TIP3   OH224939   2.615   4.415   3.196  0.5683  0.1218 -0.3693
 1175TIP3    H124940   2.542   4.420   3.256  2.5158  1.5384  2.0497
 1175TIP3    H224941   2.616   4.324   3.167  0.2497 -0.9933  2.7709
 1176TIP3   OH224942   0.138   1.341  14.736 -0.6601  0.4159 -0.2335
 1176TIP3    H124943   0.232   1.337  14.721 -0.9255 -0.8121 -1.8276
 1176TIP3    H224944   0.099   1.331  14.649 -2.2753 -1.3146  0.6197
 1177TIP3   OH224945   0.641   3.182   3.235 -0.1870  0.1409 -0.3967
 1177TIP3    H124946   0.676   3.095   3.217 -0.9410 -0.5007  1.1327
 1177TIP3    H224947   0.679   3.207   3.319 -0.4141  1.0751 -0.5566
 1178TIP3   OH224948   5.070   0.122   5.834 -0.2885  0.3199  0.1244
 1178TIP3    H124949   5.124   0.183   5.783  1.1860 -0.1771  1.0046
 1178TIP3    H224950   5.070   0.159   5.922 -0.3005 -0.3614  0.4174
 1179TIP3   OH224951   5.120   5.859   5.938  0.1598 -0.2307  0.0438
 1179TIP3    H124952   5.210   5.836   5.964  0.4830  0.2448 -0.6146
 1179TIP3    H224953   5.067   5.840   6.016  0.5405 -2.2244 -0.1122
 1180TIP3   OH224954   3.570   4.789  15.653 -0.3365 -0.3670  0.2126
 1180TIP3    H124955   3.529   4.703  15.644 -1.5413  0.2082  0.0005
 1180TIP3    H224956   3.658   4.778  15.617 -1.5244 -0.7564 -2.8054
 1181TIP3   OH224957   5.321   5.380   4.413 -0.2324 -0.3827  0.8835
 1181TIP3    H124958   5.359   5.339   4.490  2.3654 -1.4981 -0.8505
 1181TIP3    H224959   5.247   5.323   4.389  0.7530 -1.7304  0.9248
 1182TIP3   OH224960   5.414   5.500   4.960 -0.3950  0.4521  0.2106
 1182TIP3    H124961   5.375   5.518   5.045 -0.3346  1.8531 -0.0362
 1182TIP3    H224962   5.437   5.586   4.925 -0.3012 -0.1042 -1.1710
 1183TIP3   OH224963   6.234   1.754  16.390 -0.8314  0.1969 -0.6510
 1183TIP3    H124964   6.263   1.683  16.334 -0.5648  1.5305 -2.2875
 1183TIP3    H224965   6.236   1.717  16.479 -1.8789 -2.1724 -1.5312
 1184TIP3   OH224966   3.503   6.766  14.755 -0.2089 -0.2382 -0.4442
 1184TIP3    H124967   3.474   6.857  14.753 -0.0758 -0.1983 -2.2655
 1184TIP3    H224968   3.472   6.733  14.839 -0.2985  1.4637  0.2336
 1185TIP3   OH224969   6.691   1.201   0.522 -0.2644 -0.2918  0.7347
 1185TIP3    H124970   6.675   1.164   0.609  1.2006  0.2692  1.2749
 1185TIP3    H224971   6.711   1.126   0.466 -1.0648 -0.6406  0.9080
 1186TIP3   OH224972   5.387   0.616  17.005 -0.2055  0.4980 -0.0710
 1186TIP3    H124973   5.317   0.682  16.999 -1.8416 -1.0766  0.6202
 1186TIP3    H224974   5.403   0.608  17.099  1.8907  1.7539 -0.2703
 1187TIP3   OH224975   5.005   2.809  14.168  0.3560 -0.4913 -0.3779
 1187TIP3    H124976   5.036   2.894  14.139 -1.9151  0.3041 -0.6260
 1187TIP3    H224977   5.037   2.802  14.258 -1.1862  1.6423  0.4289
 1188TIP3   OH224978   1.415   3.451  15.159  0.1642 -0.0256  0.2283
 1188TIP3    H124979   1.489   3.439  15.218 -0.9123 -0.8083  1.4589
 1188TIP3    H224980   1.453   3.443  15.071  1.2054 -2.7297  0.8302
 1189TIP3   OH224981   5.279   5.341   2.904  0.6952  0.6467 -0.0767
 1189TIP3    H124982   5.263   5.406   2.835  1.5449  0.5446 -0.3792
 1189TIP3    H224983   5.250   5.384   2.985 -0.0304  0.8801 -0.4501
 1190TIP3   OH224984   3.191   5.470   0.995 -0.0474 -0.6241  0.0190
 1190TIP3    H124985   3.236   5.440   0.915 -2.3898  0.4491 -1.8206
 1190TIP3    H224986   3.251   5.534   1.033  0.6678 -0.3412 -1.5044
 1191TIP3   OH224987   5.503   6.239   2.689 -0.5528 -0.3224 -0.0679
 1191TIP3    H124988   5.465   6.177   2.627 -0.9808 -0.4991  0.3702
 1191TIP3    H224989   5.451   6.229   2.769 -2.1125  2.1719 -0.6465
 1192TIP3   OH224990   3.375   3.228   2.724 -0.4158 -0.1369  0.4339
 1192TIP3    H124991   3.372   3.316   2.760 -1.0121 -0.5162  1.3499
 1192TIP3    H224992   3.463   3.197   2.745 -0.4728 -0.0435  0.8181
 1193TIP3   OH224993   3.401   2.374  14.245 -0.0405 -0.6044  0.8683
 1193TIP3    H124994   3.444   2.404  14.325  2.4381  1.4048 -1.0350
 1193TIP3    H224995   3.368   2.454  14.205  1.2808 -1.1163 -1.4229
 1194TIP3   OH224996   1.619   4.752  11.818 -0.4189 -0.1590 -0.4780
 1194TIP3    H124997   1.581   4.731  11.903  2.9130  0.8994  1.4176
 1194TIP3    H224998   1.608   4.847  11.809  0.7059 -0.0195 -0.4397
 1195TIP3   OH224999   0.532   4.782   4.618  0.5872  0.5077  0.0448
 1195TIP3    H125000   0.613   4.739   4.645 -0.0788 -0.0938  1.1172
 1195TIP3    H225001   0.501   4.730   4.544  0.8038  0.3261  0.0812
 1196TIP3   OH225002   0.149   0.303   3.535 -0.8592  0.2683 -0.5404
 1196TIP3    H125003   0.092   0.244   3.487 -0.7027  0.4977 -1.0232
 1196TIP3    H225004   0.221   0.248   3.566 -1.5938 -0.1115  0.4984
 1197TIP3   OH225005   6.100   5.406   0.189  0.1860 -0.1003 -0.5168
 1197TIP3    H125006   6.068   5.417   0.279  0.1089 -2.2693 -0.2121
 1197TIP3    H225007   6.044   5.462   0.136  1.1293  2.3164  0.9051
 1198TIP3   OH225008   0.812   3.250   4.683 -0.1861 -0.4526 -0.0385
 1198TIP3    H125009   0.894   3.297   4.695  0.7410 -1.5161 -1.7392
 1198TIP3    H225010   0.766   3.299   4.615 -0.2440 -0.7232 -0.1974
 1199TIP3   OH225011   5.700   3.944  14.118 -0.0889  0.2090  0.0303
 1199TIP3    H125012   5.680   3.995  14.040 -1.9311 -0.1174  0.2330
 1199TIP3    H225013   5.708   3.854  14.087  0.8825  0.2957 -0.0023
 1200TIP3   OH225014   4.491   3.884   0.164  0.0063  0.1711  1.0343
 1200TIP3    H125015   4.574   3.928   0.147 -0.7909  1.4844  0.4033
 1200TIP3    H225016   4.503   3.796   0.128  0.4153  1.0025 -1.0212
 1201TIP3   OH225017   0.967   5.997   1.449  0.4440  0.2279 -0.3410
 1201TIP3    H125018   0.901   5.949   1.399 -0.5599  1.0864  0.1099
 1201TIP3    H225019   0.979   5.945   1.529 -0.9357  0.8715  0.3339
 1202TIP3   OH225020   3.520   4.658   4.449  0.0112 -0.0879 -0.3587
 1202TIP3    H125021   3.495   4.612   4.529 -1.2276  0.9650 -0.1032
 1202TIP3    H225022   3.579   4.597   4.404  0.5854 -0.7830  1.2442
 1203TIP3   OH225023   2.115   2.892  16.734 -0.7563 -0.2115 -0.0877
 1203TIP3    H125024   2.188   2.853  16.784  0.4356  1.3449 -0.5176
 1203TIP3    H225025   2.122   2.853  16.647  0.1160  0.5248 -0.3707
 1204TIP3   OH225026   5.496   6.345   1.798  0.9305 -0.2312  0.7791
 1204TIP3    H125027   5.414   6.334   1.750  0.9288 -0.3179  0.8027
 1204TIP3    H225028   5.551   6.272   1.770  1.5879  0.6902 -0.4576
 1205TIP3   OH225029   2.823   3.580  16.825 -0.1636 -0.0456 -0.1879
 1205TIP3    H125030   2.773   3.500  16.809  0.5329 -0.9456  1.8491
 1205TIP3    H225031   2.867   3.597  16.741  0.1889 -2.1714 -0.5037
 1206TIP3   OH225032   6.722   2.489  13.554 -0.5519 -0.2180  0.2364
 1206TIP3    H125033   6.756   2.495  13.643 -2.0055 -0.3339  0.8214
 1206TIP3    H225034   6.737   2.399  13.528  0.4256 -0.0322  0.1230
 1207TIP3   OH225035   0.542   5.599  11.355 -0.6627 -0.4050  0.2532
 1207TIP3    H125036   0.603   5.526  11.358  0.4939  0.5442  1.6818
 1207TIP3    H225037   0.597   5.676  11.373 -1.9550  0.7171 -0.4733
 1208TIP3   OH225038   1.180   2.832   5.629  0.3322 -0.5826 -0.3015
 1208TIP3    H125039   1.121   2.837   5.553 -0.9110  1.3216  0.6905
 1208TIP3    H225040   1.128   2.868   5.701  2.4327  0.4097  0.8128
 1209TIP3   OH225041   3.097   5.800   0.770 -0.2518 -0.6132 -0.1163
 1209TIP3    H125042   3.095   5.707   0.750  2.1905 -0.3262 -2.1894
 1209TIP3    H225043   3.027   5.837   0.715 -0.9909 -1.1349  0.4455
 1210TIP3   OH225044   5.320   5.166   4.966 -0.2550 -0.4236 -0.0560
 1210TIP3    H125045   5.339   5.259   4.956 -0.6789 -0.4831 -1.6726
 1210TIP3    H225046   5.376   5.138   5.038 -1.3693  1.4177  1.6225
 1211TIP3   OH225047   3.732   1.414  10.455 -0.0811 -0.2900 -0.6132
 1211TIP3    H125048   3.731   1.450  10.544  1.1729 -1.6763  0.0159
 1211TIP3    H225049   3.824   1.416  10.429 -0.0822 -2.0781 -0.9067
 1212TIP3   OH225050   0.959   4.067   1.252  0.0183  0.2483 -0.6296
 1212TIP3    H125051   0.927   3.976   1.252 -2.6415  1.0516  1.0352
 1212TIP3    H225052   0.988   4.082   1.342 -1.7990  1.6516 -0.2110
 1213TIP3   OH225053   2.044   5.619  13.308  0.2815  0.2646 -0.4645
 1213TIP3    H125054   2.108   5.556  13.342 -2.3188 -1.1837  2.2316
 1213TIP3    H225055   2.012   5.579  13.227  1.7791  0.3447 -1.1203
 1214TIP3   OH225056   1.056   2.906  13.598 -0.0511 -0.4636  0.1311
 1214TIP3    H125057   1.064   2.834  13.534  0.5490 -0.4218  0.1497
 1214TIP3    H225058   1.147   2.931  13.616 -0.2567  0.2772  0.1551
 1215TIP3   OH225059   5.774   1.889  14.135  0.6634  0.4942  0.6399
 1215TIP3    H125060   5.806   1.821  14.074  0.6700  0.5161  0.6191
 1215TIP3    H225061   5.737   1.956  14.078  0.9985  0.6840  0.6459
 1216TIP3   OH225062   3.653   5.120  12.544  0.1210  0.3516  0.0700
 1216TIP3    H125063   3.694   5.178  12.480 -2.4355  3.4694  0.9979
 1216TIP3    H225064   3.716   5.114  12.616  0.8640  1.1208 -0.4987
 1217TIP3   OH225065   4.040   4.140  13.453  0.5347  0.5910 -0.0992
 1217TIP3    H125066   4.059   4.151  13.546  1.1795  0.9121 -0.2556
 1217TIP3    H225067   4.075   4.220  13.412  0.6371  0.2665 -0.6611
 1218TIP3   OH225068   5.469   2.769  13.126 -0.0876 -0.2139 -0.3548
 1218TIP3    H125069   5.472   2.761  13.030  0.3991  0.3007 -0.3938
 1218TIP3    H225070   5.547   2.820  13.147 -1.0872  1.1340  0.1692
 1219TIP3   OH225071   5.830   2.510  16.580 -0.4451  0.0478 -0.6157
 1219TIP3    H125072   5.855   2.472  16.496  0.0204  0.5613 -0.7161
 1219TIP3    H225073   5.877   2.594  16.584  2.2285 -1.4123  1.6058
 1220TIP3   OH225074   4.760   1.721   4.837 -0.2002  0.4303  0.4448
 1220TIP3    H125075   4.688   1.722   4.900  0.1684 -0.2968  0.8863
 1220TIP3    H225076   4.720   1.750   4.755 -1.5063 -1.9085  0.1647
 1221TIP3   OH225077   2.238   6.321  12.081  0.0932 -0.0599  0.5844
 1221TIP3    H125078   2.322   6.337  12.124  0.0476  1.9295  0.0431
 1221TIP3    H225079   2.253   6.346  11.990 -0.4359 -2.0739 -0.1235
 1222TIP3   OH225080   1.675   5.081  14.799 -0.1919 -0.6248  0.0588
 1222TIP3    H125081   1.751   5.046  14.753  0.2793 -0.4243  0.6804
 1222TIP3    H225082   1.615   5.006  14.806 -0.3520 -0.6157 -1.0244
 1223TIP3   OH225083   6.736   2.940  15.840 -0.6087  0.1129 -0.4888
 1223TIP3    H125084   6.706   2.883  15.911  0.5954  1.1430  0.9122
 1223TIP3    H225085   6.661   2.998  15.823 -0.8721 -0.0716  0.0120
 1224TIP3   OH225086   4.817   2.615  15.825  0.2228 -0.1037 -0.4237
 1224TIP3    H125087   4.871   2.673  15.877 -1.6929  1.0299  0.4027
 1224TIP3    H225088   4.842   2.634  15.734  1.2715  0.2802 -0.0687
 1225TIP3   OH225089   3.509   2.276   2.510  0.0894 -0.5092 -0.1166
 1225TIP3    H125090   3.445   2.333   2.553  0.0142  1.1662 -2.2830
 1225TIP3    H225091   3.488   2.189   2.542 -2.4513  0.1534  0.2573
 1226TIP3   OH225092   5.890   5.660  11.148  0.5620  0.0164 -0.1312
 1226TIP3    H125093   5.832   5.710  11.205  1.9518  0.2846  1.1138
 1226TIP3    H225094   5.898   5.713  11.068  0.1540  0.6138  0.2180
 1227TIP3   OH225095   5.104   0.622   0.575  0.3947 -0.4239 -0.3285
 1227TIP3    H125096   5.056   0.639   0.494 -0.3471  1.3133  0.4379
 1227TIP3    H225097   5.050   0.660   0.644  1.8522 -0.3250  0.8064
 1228TIP3   OH225098   1.337   5.983   1.394 -0.0891  1.1566 -0.0185
 1228TIP3    H125099   1.290   5.902   1.414 -0.8335  1.9312  1.5380
 1228TIP3    H225100   1.428   5.955   1.379 -0.1489  0.1147  1.3796
 1229TIP3   OH225101   2.844   1.101  13.095  0.0114 -0.2075 -0.1116
 1229TIP3    H125102   2.750   1.082  13.094  0.3492 -2.2023 -1.8170
 1229TIP3    H225103   2.852   1.182  13.046 -0.6526 -1.5490 -2.6426
 1230TIP3   OH225104   3.933   3.892   2.674  0.3443  0.0048  0.2183
 1230TIP3    H125105   3.947   3.948   2.750 -1.4854  0.4013  0.2901
 1230TIP3    H225106   3.879   3.820   2.706 -2.0996  1.1680 -1.0436
 1231TIP3   OH225107   2.776   3.635   2.848 -0.0026 -0.3857  0.1051
 1231TIP3    H125108   2.726   3.560   2.815 -0.5417  0.0078  0.0263
 1231TIP3    H225109   2.814   3.675   2.769 -0.6302  0.0784  0.0325
 1232TIP3   OH225110   4.988   0.963  11.543 -0.1089  0.4118 -0.0809
 1232TIP3    H125111   4.905   0.996  11.508 -0.7893 -0.4820  0.6320
 1232TIP3    H225112   4.970   0.945  11.636  0.8427  0.0854  0.0534
 1233TIP3   OH225113   5.703   1.351  15.707 -0.2915 -0.2989  0.1983
 1233TIP3    H125114   5.651   1.429  15.726  1.0799  0.5757  0.5130
 1233TIP3    H225115   5.778   1.357  15.767  0.1025 -1.5988 -0.1293
 1234TIP3   OH225116   5.331   0.360  10.557  0.2085  0.2656  0.3982
 1234TIP3    H125117   5.271   0.420  10.514 -0.9477 -0.2894  1.2018
 1234TIP3    H225118   5.399   0.343  10.491  0.1764  1.8630 -0.0918
 1235TIP3   OH225119   2.441   1.469  15.705 -0.5637 -0.1481  0.0547
 1235TIP3    H125120   2.407   1.490  15.618  0.6584 -1.5976 -0.8285
 1235TIP3    H225121   2.479   1.551  15.736  3.7503 -0.5634 -3.1010
 1236TIP3   OH225122   3.401   2.345   4.436 -0.1046 -0.4139  0.1485
 1236TIP3    H125123   3.364   2.364   4.522 -0.7498 -0.9146 -0.0078
 1236TIP3    H225124   3.464   2.416   4.420  1.6060 -1.4343  1.9438
 1237TIP3   OH225125   3.389   1.556   0.749  0.2205 -0.0911 -0.3091
 1237TIP3    H125126   3.447   1.480   0.744  1.1383  0.5555  0.2345
 1237TIP3    H225127   3.406   1.593   0.836 -0.6212  0.4252 -0.3506
 1238TIP3   OH225128   1.334   4.195   3.224 -0.2849  0.3957 -0.8398
 1238TIP3    H125129   1.349   4.125   3.288  0.7119  2.2963  1.1599
 1238TIP3    H225130   1.239   4.206   3.222 -0.3537  0.0978  0.1440
 1239TIP3   OH225131   1.168   3.961   4.140  0.3047 -0.3569  0.6554
 1239TIP3    H125132   1.256   3.996   4.124 -0.3334  0.9204 -0.2531
 1239TIP3    H225133   1.176   3.867   4.124  1.5964 -0.3314  1.0439
 1240TIP3   OH225134   2.950   2.083   2.552 -0.0051  0.1844 -0.0639
 1240TIP3    H125135   2.864   2.100   2.514 -0.5581 -1.0660  0.5762
 1240TIP3    H225136   2.962   1.988   2.543  1.6866  0.4344 -0.9181
 1241TIP3   OH225137   4.038   5.308  15.699  0.0545 -0.1723 -0.1217
 1241TIP3    H125138   4.009   5.308  15.790  2.3255 -0.5870  0.6737
 1241TIP3    H225139   4.125   5.347  15.702  0.9435 -1.8478 -1.8180
 1242TIP3   OH225140   4.676   4.292  12.759 -0.2049  0.1090  0.2563
 1242TIP3    H125141   4.668   4.271  12.666  0.5981 -1.1308  0.4397
 1242TIP3    H225142   4.628   4.374  12.770  0.1922  0.5787 -1.3516
 1243TIP3   OH225143   3.091   1.119  12.848 -0.6919 -0.1530  0.5561
 1243TIP3    H125144   3.087   1.041  12.903 -0.3224  0.3616  1.3307
 1243TIP3    H225145   3.172   1.163  12.873 -1.5298  1.1704  1.0955
 1244TIP3   OH225146   4.533   0.437   0.781 -0.9756 -0.2222  0.2901
 1244TIP3    H125147   4.442   0.463   0.788 -0.9267 -0.3571  1.6943
 1244TIP3    H225148   4.579   0.491   0.845  0.4335  1.8152 -2.2420
 1245TIP3   OH225149   0.244   6.386  13.234 -0.6441 -0.1166 -0.1095
 1245TIP3    H125150   0.228   6.433  13.152  2.1014  0.6764 -0.2791
 1245TIP3    H225151   0.204   6.441  13.301 -1.4446  0.0845 -0.7225
 1246TIP3   OH225152   2.923   4.756   1.193 -0.2954 -0.4256 -0.2989
 1246TIP3    H125153   2.840   4.772   1.148 -0.4408 -1.5122 -0.4429
 1246TIP3    H225154   2.900   4.696   1.265  0.1562  0.2528  0.4303
 1247TIP3   OH225155   2.028   1.711   3.555  0.3987  0.1303  0.3058
 1247TIP3    H125156   2.072   1.725   3.639 -0.4613 -0.9656  0.9635
 1247TIP3    H225157   2.000   1.620   3.557 -1.5148  0.6472 -0.2642
 1248TIP3   OH225158   1.160   1.039  14.045 -0.2568 -0.5599 -0.5222
 1248TIP3    H125159   1.121   0.996  14.121  0.7099 -0.7255 -0.1015
 1248TIP3    H225160   1.254   1.029  14.057 -0.0320  0.7020 -0.9893
 1249TIP3   OH225161   4.310   1.315   2.287  0.1858  1.2268  0.2035
 1249TIP3    H125162   4.257   1.351   2.216 -0.8912 -0.0438  0.3214
 1249TIP3    H225163   4.247   1.265   2.340  1.5604 -0.7442  0.0805
 1250TIP3   OH225164   6.371   2.161  14.782 -0.1375 -0.1109  0.7075
 1250TIP3    H125165   6.339   2.251  14.784 -0.1013 -0.0585 -0.5120
 1250TIP3    H225166   6.446   2.164  14.722 -1.3863 -1.3407 -0.9860
 1251TIP3   OH225167   4.248   0.236  13.678  0.4064  0.3083  0.0536
 1251TIP3    H125168   4.222   0.153  13.716 -1.1589  0.4828 -0.5713
 1251TIP3    H225169   4.283   0.214  13.591 -0.7885  0.3564 -0.4543
 1252TIP3   OH225170   6.689   0.880  11.980  0.7721  0.0868  0.4337
 1252TIP3    H125171   6.730   0.853  11.898 -0.5535 -2.1895  0.4206
 1252TIP3    H225172   6.610   0.926  11.954 -0.3269 -1.7418  0.3283
 1253TIP3   OH225173   1.052   5.885   5.254 -0.0357  0.2185 -0.1175
 1253TIP3    H125174   1.053   5.849   5.343 -0.2223 -1.8742 -0.9070
 1253TIP3    H225175   1.142   5.914   5.240  0.2207 -0.2601  0.4526
 1254TIP3   OH225176   3.697   3.295  14.536  0.5133 -0.8558 -0.4586
 1254TIP3    H125177   3.663   3.244  14.610  2.0290 -0.9973  0.1917
 1254TIP3    H225178   3.621   3.312  14.481 -0.9232  0.2462  1.7010
 1255TIP3   OH225179   1.988   5.032  16.997  0.0497 -0.0905  0.6563
 1255TIP3    H125180   2.004   5.096  17.067  1.2829  1.2186 -0.7457
 1255TIP3    H225181   2.057   4.966  17.009  0.9737  0.7295  0.0502
 1256TIP3   OH225182   0.319   2.330  16.149 -0.2460  0.0137  0.3145
 1256TIP3    H125183   0.247   2.274  16.120 -1.5298  1.3970  0.6523
 1256TIP3    H225184   0.366   2.353  16.069 -0.1432 -0.9557  0.0908
 1257TIP3   OH225185   2.689   3.692  14.237  0.1254 -0.1680  0.0740
 1257TIP3    H125186   2.698   3.718  14.328  0.8199 -0.0936 -0.0123
 1257TIP3    H225187   2.615   3.744  14.204  0.1643  0.1364  0.4681
 1258TIP3   OH225188   4.625   4.535  16.894  0.5735  0.6241  0.6421
 1258TIP3    H125189   4.573   4.474  16.841  0.0243  2.0156 -0.4759
 1258TIP3    H225190   4.598   4.622  16.865  2.3702  1.4143  1.1770
 1259TIP3   OH225191   5.351   6.800   4.289  0.0288 -0.3167 -0.1727
 1259TIP3    H125192   5.373   6.879   4.238 -2.0768  0.1096 -0.5386
 1259TIP3    H225193   5.257   6.808   4.304 -0.0186 -2.2318  0.7564
 1260TIP3   OH225194   1.936   0.739   3.626 -0.5105 -0.0200  0.3140
 1260TIP3    H125195   1.948   0.651   3.590 -0.2520 -0.2380  0.9247
 1260TIP3    H225196   2.021   0.782   3.616 -0.2996 -0.2489  1.1119
 1261TIP3   OH225197   3.248   2.780   1.460 -0.0311 -0.2422 -0.3436
 1261TIP3    H125198   3.239   2.705   1.401 -0.4277  0.2144 -0.8678
 1261TIP3    H225199   3.159   2.804   1.482  0.0885  0.2190 -0.3590
 1262TIP3   OH225200   6.807   0.039   0.228 -0.2172  0.1902  0.1277
 1262TIP3    H125201   6.896   0.075   0.226 -0.6211  1.2280 -0.1434
 1262TIP3    H225202   6.809  -0.026   0.298  1.0060 -0.5225 -0.5412
 1263TIP3   OH225203   2.011   1.453   4.813  0.3326 -0.0870 -0.0896
 1263TIP3    H125204   1.977   1.538   4.786 -1.1223 -0.3538  0.7884
 1263TIP3    H225205   2.016   1.458   4.908 -0.7549 -1.3139  0.0572
 1264TIP3   OH225206   6.300   3.805   0.036 -0.3150 -0.2820 -0.2887
 1264TIP3    H125207   6.246   3.823  -0.042 -1.9146  1.1765  1.0689
 1264TIP3    H225208   6.316   3.711   0.032  0.0422 -0.1955 -2.5866
 1265TIP3   OH225209   1.250   3.919  16.842 -0.0195  0.0268  0.2215
 1265TIP3    H125210   1.322   3.962  16.888 -0.0799  0.6204 -0.2259
 1265TIP3    H225211   1.274   3.926  16.749 -1.6711  2.1901 -0.1128
 1266TIP3   OH225212   2.710   4.174   3.381  0.3468  0.2118 -0.4014
 1266TIP3    H125213   2.782   4.116   3.407 -0.4266 -1.2236 -1.3732
 1266TIP3    H225214   2.700   4.233   3.456  1.0409 -1.0226  0.7191
 1267TIP3   OH225215   3.001   0.866   4.779  0.4106 -0.0476  0.0362
 1267TIP3    H125216   2.922   0.898   4.737  1.0659 -0.0245 -1.2276
 1267TIP3    H225217   2.980   0.778   4.808  0.3260 -0.5688 -1.5255
 1268TIP3   OH225218   4.522   1.032   3.122  0.6071 -0.2509 -0.2278
 1268TIP3    H125219   4.596   0.975   3.143  1.2224  0.7030  0.2248
 1268TIP3    H225220   4.519   1.095   3.194 -0.5610 -0.1823 -0.3111
 1269TIP3   OH225221   2.003   0.517  16.516 -0.1428  0.5575  0.2289
 1269TIP3    H125222   2.004   0.434  16.468 -0.6208 -0.5807  2.0920
 1269TIP3    H225223   1.922   0.559  16.490  0.1939  0.5525 -0.8827
 1270TIP3   OH225224   3.209   4.407  12.064 -0.3624 -0.8397 -1.1355
 1270TIP3    H125225   3.247   4.476  12.009 -1.9254 -0.3466 -1.6402
 1270TIP3    H225226   3.260   4.411  12.145  0.3792  0.0729 -1.6189
 1271TIP3   OH225227   6.135   0.788   3.474  0.4126  0.0311  0.4720
 1271TIP3    H125228   6.064   0.852   3.474  0.1767 -0.1481 -1.8248
 1271TIP3    H225229   6.204   0.829   3.527  0.0047  1.8845 -0.3459
 1272TIP3   OH225230   1.243   5.862   0.793 -0.6191  0.0667 -0.3038
 1272TIP3    H125231   1.203   5.795   0.849 -3.0006  0.5095 -1.3305
 1272TIP3    H225232   1.237   5.942   0.845 -1.4035  0.1864 -0.5626
 1273TIP3   OH225233   3.006   1.453   2.588 -0.6031 -0.3107 -0.4577
 1273TIP3    H125234   2.982   1.479   2.677 -0.5769 -1.6974 -0.0116
 1273TIP3    H225235   3.063   1.377   2.600 -0.6293 -0.5422 -1.6586
 1274TIP3   OH225236   4.621   2.418  16.756  0.0451  0.3303  0.2040
 1274TIP3    H125237   4.651   2.413  16.665 -3.2504 -0.4011 -0.9630
 1274TIP3    H225238   4.570   2.339  16.769 -0.0599  0.7175  2.5395
 1275TIP3   OH225239   0.066   4.834  16.464  0.1709 -0.2482 -0.1629
 1275TIP3    H125240  -0.009   4.804  16.514 -0.8024 -0.1141 -1.4758
 1275TIP3    H225241   0.142   4.798  16.510 -0.6424  0.0481  1.4952
 1276TIP3   OH225242   0.137   1.343   0.610 -0.2238 -0.2776 -0.3034
 1276TIP3    H125243   0.186   1.371   0.687  1.4950  2.0757 -2.0972
 1276TIP3    H225244   0.119   1.250   0.625 -0.2582  0.1481  3.0074
 1277TIP3   OH225245   1.280   5.279  13.142  0.2557 -0.1722  0.0663
 1277TIP3    H125246   1.200   5.323  13.113  0.7844  0.1493 -0.9535
 1277TIP3    H225247   1.264   5.257  13.234 -0.6645  0.6653  0.1193
 1278TIP3   OH225248   5.919   2.849  15.569  0.0266  0.0035 -0.2433
 1278TIP3    H125249   5.982   2.920  15.556  0.9697 -0.9169 -0.8730
 1278TIP3    H225250   5.970   2.780  15.612 -0.8365 -0.3511  0.2209
 1279TIP3   OH225251   3.227   0.356   1.508 -0.5444  0.6917 -0.1200
 1279TIP3    H125252   3.240   0.445   1.541 -0.0397  1.1761 -1.5690
 1279TIP3    H225253   3.154   0.363   1.446 -0.9740 -0.0596  0.2736
 1280TIP3   OH225254   0.064   3.000  14.460 -0.2478 -0.2819 -0.0661
 1280TIP3    H125255   0.014   3.032  14.385  0.2039 -0.7766 -0.5927
 1280TIP3    H225256   0.143   3.054  14.461 -1.2296  1.1919  1.3849
 1281TIP3   OH225257   1.449   4.094  12.206  0.3490  0.2305  0.1759
 1281TIP3    H125258   1.542   4.118  12.205  0.5815 -0.6498 -0.1370
 1281TIP3    H225259   1.407   4.164  12.255  0.9043  1.6528 -1.2966
 1282TIP3   OH225260   2.973   4.218  12.776  0.6432  0.0911 -0.0200
 1282TIP3    H125261   2.991   4.229  12.683  0.3681  1.7988  0.1032
 1282TIP3    H225262   2.914   4.142  12.780 -0.6224  0.9379 -1.4129
 1283TIP3   OH225263   4.790   4.082   0.317  0.4971 -0.4267  0.0152
 1283TIP3    H125264   4.763   4.088   0.226 -2.6672 -1.1181  0.7891
 1283TIP3    H225265   4.849   4.006   0.319  0.0294 -0.8657 -1.3491
 1284TIP3   OH225266   1.742   0.277   6.921 -0.2437 -0.2843  0.2507
 1284TIP3    H125267   1.685   0.304   6.849  0.9730  2.0788  0.0678
 1284TIP3    H225268   1.692   0.298   7.001 -0.6257 -0.6228  0.1034
 1285TIP3   OH225269   5.504   0.954   4.476 -0.1199  0.1429 -0.3232
 1285TIP3    H125270   5.494   1.013   4.400 -2.7370  2.6970  1.7790
 1285TIP3    H225271   5.482   1.009   4.551  1.2691 -2.5700  2.2482
 1286TIP3   OH225272   1.401   4.808   0.922  0.6329 -0.4835 -0.4726
 1286TIP3    H125273   1.389   4.849   1.008  0.9657  0.4813 -0.8762
 1286TIP3    H225274   1.352   4.864   0.862  1.0102 -0.7403 -1.0246
 1287TIP3   OH225275   2.615   3.259   1.317  0.2653  0.4730  0.3521
 1287TIP3    H125276   2.649   3.346   1.299 -0.1580  0.8399  1.2748
 1287TIP3    H225277   2.564   3.236   1.240  1.7071  0.3495 -0.5996
 1288TIP3   OH225278   5.397   6.063   2.521  0.1681 -0.2230  0.8500
 1288TIP3    H125279   5.442   5.986   2.486 -0.7999  0.3696 -1.9013
 1288TIP3    H225280   5.305   6.048   2.502 -0.2758  0.7228  2.1426
 1289TIP3   OH225281   3.779   1.311  15.447 -0.2335 -0.0122 -0.0735
 1289TIP3    H125282   3.865   1.300  15.406 -0.8983 -0.0121 -1.5456
 1289TIP3    H225283   3.767   1.405  15.453 -0.3627 -0.0062 -0.3999
 1290TIP3   OH225284   1.585   4.622  15.805 -0.2928 -0.1918 -0.0191
 1290TIP3    H125285   1.613   4.644  15.893  1.4870  0.4744 -0.7053
 1290TIP3    H225286   1.537   4.699  15.775  1.2368  0.6231 -0.4770
 1291TIP3   OH225287   5.589   2.458   5.021  0.4614 -0.0779 -0.3433
 1291TIP3    H125288   5.542   2.524   4.970 -0.8701 -1.9037 -1.6003
 1291TIP3    H225289   5.621   2.395   4.956  2.2358 -0.4060  0.7560
 1292TIP3   OH225290   5.425   6.304  15.126 -0.1487 -0.5540  0.0496
 1292TIP3    H125291   5.351   6.285  15.183  0.3666  1.2590  1.4066
 1292TIP3    H225292   5.447   6.396  15.143  1.6928 -0.6968 -1.1505
 1293TIP3   OH225293   0.405   1.939  13.998 -0.6747  0.3213 -0.6150
 1293TIP3    H125294   0.413   1.868  14.062  0.0726  1.2241  0.3289
 1293TIP3    H225295   0.312   1.957  13.995 -0.7874 -0.1565 -0.2577
 1294TIP3   OH225296   5.155   4.282   5.030  0.0243  0.4094 -0.0195
 1294TIP3    H125297   5.236   4.328   5.008 -0.1132  0.8515  0.3770
 1294TIP3    H225298   5.135   4.309   5.119 -0.5431  0.2828 -0.1000
 1295TIP3   OH225299   5.534   2.895  15.840 -0.0925 -0.6438  0.2195
 1295TIP3    H125300   5.621   2.915  15.875 -0.6397  0.2704  1.1342
 1295TIP3    H225301   5.547   2.889  15.746  1.0233 -0.8969  0.3697
 1296TIP3   OH225302   4.552   4.250   5.510  0.1878 -0.1072  0.4970
 1296TIP3    H125303   4.478   4.206   5.551  0.8748 -0.6946  1.1413
 1296TIP3    H225304   4.627   4.224   5.564  1.0345 -0.4729 -0.8308
 1297TIP3   OH225305   0.418   4.596   0.614 -0.4245  0.0941  0.2535
 1297TIP3    H125306   0.511   4.576   0.604 -0.8254 -1.4730 -0.7448
 1297TIP3    H225307   0.378   4.568   0.532 -1.5253  2.7442 -0.2207
 1298TIP3   OH225308   5.330   1.237  14.840 -0.0948  0.1923  0.6205
 1298TIP3    H125309   5.318   1.254  14.746  1.4727  1.7358  0.6416
 1298TIP3    H225310   5.401   1.174  14.844 -1.4270 -1.3747  0.7678
 1299TIP3   OH225311   1.641   3.074  15.255  0.5167 -0.0713 -0.4667
 1299TIP3    H125312   1.658   3.025  15.175  0.7592 -1.0416  0.1640
 1299TIP3    H225313   1.603   3.011  15.316 -2.0374  1.2055 -0.6062
 1300TIP3   OH225314   4.944   0.362  14.811 -0.1717 -0.3666 -0.0283
 1300TIP3    H125315   4.879   0.296  14.788  0.4120  0.1154 -3.4877
 1300TIP3    H225316   5.028   0.316  14.805  0.0310 -0.5117  2.6061
 1301TIP3   OH225317   4.717   0.593  15.954  0.2802  0.2838  0.2076
 1301TIP3    H125318   4.692   0.546  15.875  1.4181 -0.3972  0.2348
 1301TIP3    H225319   4.636   0.598  16.006  0.1872 -1.9189  0.3485
 1302TIP3   OH225320   0.611   4.113   4.214 -0.5048 -0.3351  0.1167
 1302TIP3    H125321   0.675   4.045   4.194  0.7601  1.4056 -2.3075
 1302TIP3    H225322   0.562   4.124   4.133  0.8061  3.0027 -0.3944
 1303TIP3   OH225323   5.567   4.607   5.188  0.0041 -0.4125 -0.4877
 1303TIP3    H125324   5.499   4.615   5.256 -0.1822 -2.1542 -0.4370
 1303TIP3    H225325   5.520   4.575   5.111  0.3364  0.9104 -1.2776
 1304TIP3   OH225326   1.586   3.737   4.290  0.0004  0.2355 -0.4256
 1304TIP3    H125327   1.566   3.684   4.213 -0.9487  2.0406 -1.4722
 1304TIP3    H225328   1.640   3.809   4.257  0.1365  0.6842  0.7126
 1305TIP3   OH225329   6.740   3.114  10.082  0.1123 -0.4432  0.0920
 1305TIP3    H125330   6.707   3.203  10.088 -0.4956 -0.5981 -0.8582
 1305TIP3    H225331   6.817   3.121  10.025  1.7263 -0.1066  2.1732
 1306TIP3   OH225332   4.143   3.475  14.299  0.2083 -0.4219  0.5986
 1306TIP3    H125333   4.077   3.484  14.230 -1.3315 -0.3318  2.0265
 1306TIP3    H225334   4.122   3.393  14.342  1.1665 -0.4924  0.9584
 1307TIP3   OH225335   5.270   3.728   0.865  0.2662 -0.7224  0.0688
 1307TIP3    H125336   5.181   3.750   0.837  0.1423 -2.7284 -1.3801
 1307TIP3    H225337   5.305   3.809   0.901 -2.2101  0.0709  0.9066
 1308TIP3   OH225338   1.313   1.488  15.057  0.9245 -0.5170  0.4128
 1308TIP3    H125339   1.315   1.540  14.977 -1.3434  1.1204  1.3007
 1308TIP3    H225340   1.367   1.537  15.119  0.3844 -0.2382  0.6756
 1309TIP3   OH225341   3.245   4.909  11.619  0.9109  1.2978  0.0765
 1309TIP3    H125342   3.163   4.907  11.667  1.6761  0.1764  1.3998
 1309TIP3    H225343   3.228   4.967  11.545 -1.1456  0.8798  0.1632
 1310TIP3   OH225344   5.990   5.939  16.770  0.2555 -0.1124 -0.4365
 1310TIP3    H125345   5.970   5.869  16.708 -0.7302 -0.3196  0.0961
 1310TIP3    H225346   5.944   5.915  16.850  1.2418  0.3152  0.2889
 1311TIP3   OH225347   3.980   1.392  12.093 -0.2481 -0.0043  0.2097
 1311TIP3    H125348   4.068   1.429  12.101 -0.8737  1.3536  1.1435
 1311TIP3    H225349   3.956   1.405  12.002 -0.5104  2.1174  0.5410
 1312TIP3   OH225350   3.523   0.208  16.313 -0.0630 -0.0374  0.1998
 1312TIP3    H125351   3.595   0.155  16.347  1.2900  1.5203 -0.1653
 1312TIP3    H225352   3.562   0.292  16.291 -1.4312 -0.0033 -2.5806
 1313TIP3   OH225353   4.918   5.902  16.059  0.0519 -0.2411  0.2439
 1313TIP3    H125354   4.943   5.994  16.050 -0.8848 -0.1456 -1.8375
 1313TIP3    H225355   4.872   5.898  16.143 -2.0621  1.7511 -0.7039
 1314TIP3   OH225356   1.262   3.631  13.205 -0.4654 -0.1217  0.1413
 1314TIP3    H125357   1.191   3.568  13.192 -0.9294  0.5852 -0.8606
 1314TIP3    H225358   1.235   3.683  13.280 -0.3513 -0.7208  0.6102
 1315TIP3   OH225359   1.362   0.751   0.828 -0.1302  0.0956 -0.0253
 1315TIP3    H125360   1.336   0.782   0.915 -0.1991  0.8944 -0.3234
 1315TIP3    H225361   1.312   0.670   0.815  0.6480 -0.5901  1.0925
 1316TIP3   OH225362   4.934   5.763  14.023  0.5210 -0.4761 -0.3973
 1316TIP3    H125363   5.005   5.700  14.015 -0.4691 -1.5772 -0.7325
 1316TIP3    H225364   4.894   5.744  14.108 -0.0433 -0.5860 -0.6845
 1317TIP3   OH225365   1.867   5.160   3.787  0.2086 -0.4269 -0.0331
 1317TIP3    H125366   1.879   5.132   3.696  1.3098 -2.3746  0.6449
 1317TIP3    H225367   1.783   5.122   3.813  1.5517 -3.0835  0.7857
 1318TIP3   OH225368   6.242   5.212  13.334  0.2963  0.6746 -0.3702
 1318TIP3    H125369   6.205   5.204  13.246  1.0898 -1.6090 -0.5482
 1318TIP3    H225370   6.166   5.211  13.392 -0.1176 -0.1685 -0.9152
 1319TIP3   OH225371   0.144   6.676   0.816  0.8458 -0.5340  0.5249
 1319TIP3    H125372   0.099   6.653   0.896 -0.3820 -3.3341 -0.8275
 1319TIP3    H225373   0.077   6.717   0.761  1.1315 -0.5437  0.1614
 1320TIP3   OH225374   5.458   0.220  10.746 -0.0495 -0.2149 -0.2631
 1320TIP3    H125375   5.423   0.290  10.690 -0.4684 -1.0419 -1.0758
 1320TIP3    H225376   5.400   0.219  10.822 -0.8288 -0.5095 -0.8470
 1321TIP3   OH225377   1.433   4.462   0.310 -0.5224  0.3339  0.3923
 1321TIP3    H125378   1.429   4.424   0.223  3.3389  1.8354 -0.6386
 1321TIP3    H225379   1.404   4.391   0.368 -1.5516 -1.2733 -1.9208
 1322TIP3   OH225380   1.721   5.332   3.945 -0.2708 -0.0875  0.4501
 1322TIP3    H125381   1.795   5.283   3.910  0.0159  0.4369  0.3000
 1322TIP3    H225382   1.671   5.358   3.867 -0.4015 -0.1154  0.5251
 1323TIP3   OH225383   3.102   6.239   2.131  0.5556 -0.0098 -0.2353
 1323TIP3    H125384   3.037   6.303   2.161  0.1676 -0.0726 -0.9332
 1323TIP3    H225385   3.051   6.169   2.090  1.0660  0.0422 -0.9906
 1324TIP3   OH225386   2.811   3.028   1.338 -0.3246  0.1572  0.1750
 1324TIP3    H125387   2.798   3.103   1.280 -0.1636 -0.9655 -1.3840
 1324TIP3    H225388   2.907   3.020   1.345 -0.3385  0.9885  1.5800
 1325TIP3   OH225389   0.100   5.744   3.113  0.1473  0.1508  0.1710
 1325TIP3    H125390   0.106   5.781   3.201  0.3175  0.5692 -0.0104
 1325TIP3    H225391   0.190   5.715   3.094 -0.0331 -0.5778  0.4022
 1326TIP3   OH225392   6.390   0.755  15.584  0.3634  0.0192  0.0794
 1326TIP3    H125393   6.469   0.775  15.534  0.3470  1.3611  0.5555
 1326TIP3    H225394   6.372   0.835  15.634 -1.9548  0.1645 -0.8889
 1327TIP3   OH225395   2.373   2.741   4.426 -0.8081 -0.2895  0.2217
 1327TIP3    H125396   2.413   2.756   4.512 -0.2968 -0.2116 -0.0258
 1327TIP3    H225397   2.284   2.712   4.446  0.0022 -2.5675  0.8604
 1328TIP3   OH225398   4.508   2.113   4.559 -0.3257 -0.7393 -0.0463
 1328TIP3    H125399   4.571   2.177   4.529 -0.3920  0.0173  1.3651
 1328TIP3    H225400   4.479   2.145   4.644 -4.0126 -0.0393 -1.3896
 1329TIP3   OH225401   6.511   5.081  10.429 -0.0789  0.0656  0.2728
 1329TIP3    H125402   6.590   5.133  10.414 -0.6117  0.9094  0.3003
 1329TIP3    H225403   6.445   5.146  10.455 -1.4053 -0.2830 -1.9798
 1330TIP3   OH225404   1.306   5.758  13.510  0.2252  0.2607 -0.2979
 1330TIP3    H125405   1.237   5.740  13.573 -0.6003  1.9076 -0.6682
 1330TIP3    H225406   1.301   5.687  13.447 -1.9793  0.9487 -0.9922
 1331TIP3   OH225407   5.625   4.611   0.447 -0.8863  0.1781 -0.2513
 1331TIP3    H125408   5.633   4.642   0.537  0.4293 -1.6477  0.3079
 1331TIP3    H225409   5.572   4.531   0.454 -2.5346  1.1128 -1.4007
 1332TIP3   OH225410   0.021   4.493  13.459  0.0328 -0.4805 -0.0978
 1332TIP3    H125411   0.074   4.557  13.506 -2.1173  1.6462 -0.4174
 1332TIP3    H225412  -0.016   4.542  13.386 -2.9092 -1.6453  0.4978
 1333TIP3   OH225413   2.103   4.252   5.907 -0.0341 -0.5556  0.3802
 1333TIP3    H125414   2.166   4.183   5.883  0.7284  0.5905 -1.1751
 1333TIP3    H225415   2.063   4.222   5.988 -0.2192 -3.1343 -0.5864
 1334TIP3   OH225416   3.715   1.341  13.976  0.5601 -0.1089  0.0005
 1334TIP3    H125417   3.663   1.263  13.996 -0.4250  0.7249  0.7621
 1334TIP3    H225418   3.713   1.393  14.056  0.8272  0.9138 -0.6361
 1335TIP3   OH225419   3.313   6.205   4.111 -0.1777 -0.1418 -0.0991
 1335TIP3    H125420   3.370   6.237   4.181 -0.7657  0.6382  0.0315
 1335TIP3    H225421   3.373   6.161   4.050  0.9297  2.5716 -1.1184
 1336TIP3   OH225422   4.005   0.512  15.408 -0.1195  0.2942 -0.0562
 1336TIP3    H125423   4.023   0.490  15.316  0.3705 -0.5874  0.2314
 1336TIP3    H225424   4.091   0.506  15.450 -0.3664  0.5576  0.4815
 1337TIP3   OH225425   1.513   5.222   4.070  0.5939  0.2294  0.5875
 1337TIP3    H125426   1.545   5.293   4.015 -0.8971  0.2821 -0.2671
 1337TIP3    H225427   1.427   5.252   4.101  0.4859 -0.6780  1.2233
 1338TIP3   OH225428   5.596   5.634   4.031 -0.0483  0.4803 -0.2981
 1338TIP3    H125429   5.639   5.622   3.946 -0.5433  1.9839 -0.7982
 1338TIP3    H225430   5.518   5.578   4.026  0.1967  0.1575 -0.6237
 1339TIP3   OH225431   5.358   6.111  14.936  0.3729  0.0379 -0.1466
 1339TIP3    H125432   5.368   6.160  14.855 -0.8791 -0.7219 -0.7805
 1339TIP3    H225433   5.383   6.173  15.005 -0.0275  1.1743 -1.0068
 1340TIP3   OH225434   3.355   6.091   5.595 -0.3199 -0.1234  0.2764
 1340TIP3    H125435   3.308   6.069   5.676  0.9721  0.2628  1.1576
 1340TIP3    H225436   3.442   6.054   5.606  0.3130  1.1021 -0.3412
 1341TIP3   OH225437   5.137   5.313  11.512 -0.0391 -0.4348  0.0825
 1341TIP3    H125438   5.190   5.287  11.437 -2.1244  0.9673 -2.0063
 1341TIP3    H225439   5.068   5.247  11.517 -0.2395 -0.2048  0.4038
 1342TIP3   OH225440   4.469   5.631   0.872 -0.3150 -0.0243  0.0524
 1342TIP3    H125441   4.517   5.584   0.804 -2.1139 -0.8316 -0.7129
 1342TIP3    H225442   4.388   5.659   0.830 -1.8196 -1.1856  1.9977
 1343TIP3   OH225443   4.493   4.717  13.025 -0.0999  0.1883  0.5316
 1343TIP3    H125444   4.538   4.800  13.013 -1.2882  0.5877 -1.7813
 1343TIP3    H225445   4.433   4.732  13.098 -1.2942  1.8870 -0.7189
 1344TIP3   OH225446   2.880   4.009  12.183  0.1104  0.0827 -0.2133
 1344TIP3    H125447   2.794   4.040  12.211  0.3085  1.6798 -1.1860
 1344TIP3    H225448   2.940   4.079  12.210  1.1760 -1.1127  0.6761
 1345TIP3   OH225449   1.945   5.083   4.214  0.7634 -0.1969  0.1094
 1345TIP3    H125450   2.026   5.102   4.167 -0.1315  1.1225 -0.9997
 1345TIP3    H225451   1.902   5.169   4.222  0.0366 -0.6760  1.7443
 1346TIP3   OH225452   5.546   3.401  12.328 -0.2830 -0.6355  0.0266
 1346TIP3    H125453   5.590   3.482  12.300  0.6560 -0.6599  1.3928
 1346TIP3    H225454   5.519   3.360  12.246  2.7643 -0.9258 -0.9420
 1347TIP3   OH225455   5.721   6.128   1.303 -0.3577 -0.7045 -0.0963
 1347TIP3    H125456   5.701   6.139   1.210  1.6811 -1.3431 -0.6666
 1347TIP3    H225457   5.706   6.035   1.319  0.4976 -0.8532 -0.1240
 1348TIP3   OH225458   4.728   3.134   4.129 -0.6604  0.4570 -0.1806
 1348TIP3    H125459   4.668   3.137   4.053 -0.1660  2.2824 -0.5378
 1348TIP3    H225460   4.680   3.177   4.199 -0.9090 -0.7725  0.4410
 1349TIP3   OH225461   6.456   4.107   4.623  0.4925 -0.3467  1.1650
 1349TIP3    H125462   6.397   4.177   4.598  1.0022 -0.1192  0.5899
 1349TIP3    H225463   6.542   4.148   4.629  0.6293 -0.7063  1.8450
 1350TIP3   OH225464   0.004   2.114  13.753  0.1661  0.7457 -0.0298
 1350TIP3    H125465   0.093   2.150  13.751  0.0528  1.0629  0.5241
 1350TIP3    H225466   0.016   2.021  13.732  0.5754  0.8862 -0.4349
 1351TIP3   OH225467   0.599   4.352   3.361  0.3189 -0.2466 -0.4687
 1351TIP3    H125468   0.645   4.270   3.343  0.0690 -0.0738 -2.0952
 1351TIP3    H225469   0.581   4.388   3.274 -1.8944  0.2342  0.1174
 1352TIP3   OH225470   0.043   5.769   4.491  0.2225  0.4032 -0.2933
 1352TIP3    H125471   0.070   5.845   4.440 -0.6821 -0.0926 -1.5501
 1352TIP3    H225472   0.100   5.698   4.461  0.0768  0.2381 -0.1807
 1353TIP3   OH225473   4.070   6.157  16.810  0.8148 -0.4119  0.0509
 1353TIP3    H125474   4.093   6.239  16.766  1.5452 -0.5804  0.1097
 1353TIP3    H225475   3.993   6.178  16.862  0.0914 -0.1334 -1.0929
 1354TIP3   OH225476   0.312   6.443   6.206  0.5526 -0.2574  0.0989
 1354TIP3    H125477   0.356   6.373   6.158 -0.9446 -0.8596 -0.4526
 1354TIP3    H225478   0.372   6.464   6.278  1.5313 -1.3270 -0.3695
 1355TIP3   OH225479   5.100   6.040  15.005 -0.4465  0.0415  0.0466
 1355TIP3    H125480   5.192   6.056  14.981 -0.9121  1.8465 -0.7034
 1355TIP3    H225481   5.093   5.944  15.009  1.3136 -0.1565 -0.4734
 1356TIP3   OH225482   1.246   6.286   3.736  0.1317  0.4297 -0.2798
 1356TIP3    H125483   1.260   6.353   3.802  2.4719  0.5436 -0.8177
 1356TIP3    H225484   1.152   6.290   3.717 -0.2145  1.8195  1.4699
 1357TIP3   OH225485   1.785   1.817   2.965  0.6795 -0.0451  0.2309
 1357TIP3    H125486   1.718   1.796   2.900  0.6209  1.5732 -0.2906
 1357TIP3    H225487   1.806   1.734   3.006 -0.8504 -0.7680 -0.3639
 1358TIP3   OH225488   3.838   1.287  12.990  0.3686  0.7005  0.1709
 1358TIP3    H125489   3.749   1.283  13.025  0.7980 -0.6020  1.1859
 1358TIP3    H225490   3.883   1.350  13.046  0.4436  0.3367  0.5216
 1359TIP3   OH225491   0.657   2.575  11.134 -0.0023 -0.1274  0.4145
 1359TIP3    H125492   0.689   2.488  11.112  2.3861  0.4488  1.3099
 1359TIP3    H225493   0.660   2.623  11.051  0.2713 -0.4360  0.2462
 1360TIP3   OH225494   4.154   3.609  13.829  0.0854 -0.0895  0.1546
 1360TIP3    H125495   4.099   3.625  13.906 -0.7706  1.2042 -0.6880
 1360TIP3    H225496   4.114   3.534  13.786 -1.7399  1.4521 -1.0048
 1361TIP3   OH225497   5.766   2.597  16.140 -0.1708  0.2461 -0.0403
 1361TIP3    H125498   5.829   2.539  16.182  1.9417  1.4719 -1.3516
 1361TIP3    H225499   5.772   2.679  16.190  1.0362  1.1233 -1.5429
 1362TIP3   OH225500   2.620   3.120  16.775  0.2414  0.3465  0.2769
 1362TIP3    H125501   2.546   3.077  16.733  1.3289  0.8075 -2.2608
 1362TIP3    H225502   2.683   3.049  16.792  0.3431  0.3488 -0.0948
 1363TIP3   OH225503   6.238   5.984   0.527  1.0021 -0.2299 -0.3919
 1363TIP3    H125504   6.237   6.062   0.471 -1.4246  0.2706  0.2421
 1363TIP3    H225505   6.227   6.019   0.616  0.8224 -1.2504 -0.0034
 1364TIP3   OH225506   0.771   0.125  13.678  0.2492  0.3714  0.3822
 1364TIP3    H125507   0.696   0.081  13.719 -0.8182  2.0414  0.3398
 1364TIP3    H225508   0.766   0.214  13.712  1.7385  0.7266 -0.2931
 1365TIP3   OH225509   5.368   6.097  13.017 -0.0984  0.3400 -0.3001
 1365TIP3    H125510   5.366   6.015  12.967  0.5550  0.2661 -0.2196
 1365TIP3    H225511   5.460   6.125  13.013  0.1003  0.0138  1.3880
 1366TIP3   OH225512   2.435   4.850  15.404  0.5697  0.0647  0.0372
 1366TIP3    H125513   2.365   4.849  15.469  0.7287 -0.9899  0.2065
 1366TIP3    H225514   2.464   4.759  15.398  1.5246  0.3851 -0.4702
 1367TIP3   OH225515   0.835   2.225  12.922 -0.2077  0.3348 -0.0831
 1367TIP3    H125516   0.746   2.252  12.901 -1.5463 -2.5722  1.3130
 1367TIP3    H225517   0.848   2.143  12.874  2.3855  1.4682 -1.5220
 1368TIP3   OH225518   1.338   6.301  10.577 -0.3318  0.3666 -0.8496
 1368TIP3    H125519   1.277   6.360  10.533 -1.5690 -0.3074 -0.1026
 1368TIP3    H225520   1.409   6.289  10.515 -0.6131  1.7158 -1.4746
 1369TIP3   OH225521   2.130   0.710  14.181 -0.5668 -0.2870  0.0605
 1369TIP3    H125522   2.141   0.711  14.086  1.3153 -2.4184  0.1702
 1369TIP3    H225523   2.181   0.786  14.212  0.6558 -0.8404 -0.5278
 1370TIP3   OH225524   0.893   2.282   2.462  0.0268 -0.0741  0.7953
 1370TIP3    H125525   0.818   2.275   2.403 -0.4035  2.2457  0.9949
 1370TIP3    H225526   0.967   2.300   2.404 -0.1912  1.0175  0.8331
 1371TIP3   OH225527   0.391   4.683  13.272  0.1117  0.1245  0.4145
 1371TIP3    H125528   0.455   4.629  13.318 -0.8082 -1.0148  0.4003
 1371TIP3    H225529   0.418   4.679  13.180 -0.6183 -1.3269  0.2351
 1372TIP3   OH225530   0.847   5.038  11.368  0.4120  0.2961 -0.4445
 1372TIP3    H125531   0.757   5.067  11.386  0.4765 -0.4955  1.3829
 1372TIP3    H225532   0.878   5.097  11.299 -0.5762  2.3923  0.8005
 1373TIP3   OH225533   6.693   1.154  13.820  0.0890  0.0688 -0.0991
 1373TIP3    H125534   6.694   1.075  13.765  0.7095 -0.2564  0.3659
 1373TIP3    H225535   6.622   1.138  13.882  0.0037  0.0226 -0.2071
 1374TIP3   OH225536   5.027   3.964  14.471 -0.6571  0.2969 -0.2180
 1374TIP3    H125537   4.976   3.988  14.548  0.2242 -0.6563  0.7049
 1374TIP3    H225538   4.975   3.993  14.397 -3.5071 -2.2203  0.5836
 1375TIP3   OH225539   4.818   1.238  12.073 -0.0955 -0.2723 -0.7581
 1375TIP3    H125540   4.787   1.229  12.163  1.4407 -0.3804 -0.2104
 1375TIP3    H225541   4.788   1.158  12.029 -0.1255 -0.6230 -0.1143
 1376TIP3   OH225542   2.540   6.203  15.213  0.2055  0.3930 -0.4969
 1376TIP3    H125543   2.526   6.117  15.174 -0.6264  0.5730 -0.6057
 1376TIP3    H225544   2.628   6.228  15.183  0.5228 -0.4805 -0.3219
 1377TIP3   OH225545   0.857   1.917   4.764 -0.5886  0.5275 -0.6005
 1377TIP3    H125546   0.841   1.860   4.840  0.2584 -0.7439 -1.3434
 1377TIP3    H225547   0.773   1.960   4.749 -1.4347 -0.9465 -0.3306
 1378TIP3   OH225548   2.373   6.320  15.415  0.1277  0.4759 -0.8422
 1378TIP3    H125549   2.427   6.276  15.349  0.3599 -1.1934  0.4008
 1378TIP3    H225550   2.364   6.256  15.485 -2.9429  0.9013 -0.6974
 1379TIP3   OH225551   1.010   6.646  15.008  0.0206  0.4138  0.6136
 1379TIP3    H125552   1.000   6.598  15.091  1.5642 -0.0009  0.5769
 1379TIP3    H225553   0.936   6.616  14.955 -1.7853  1.6854  2.2725
 1380TIP3   OH225554   3.674   3.622   3.053  0.1961 -0.3437 -0.2176
 1380TIP3    H125555   3.602   3.645   3.112 -0.5742 -1.2134 -0.7929
 1380TIP3    H225556   3.682   3.527   3.061  0.0901 -0.4695 -1.4913
 1381TIP3   OH225557   4.190   3.589   1.421 -0.0774 -0.2434 -0.3171
 1381TIP3    H125558   4.261   3.636   1.377 -0.1383  1.1585  0.9921
 1381TIP3    H225559   4.139   3.551   1.349  1.6733 -0.8655 -1.2996
 1382TIP3   OH225560   4.977   3.844   3.010 -0.2348  0.1148 -0.2867
 1382TIP3    H125561   5.058   3.794   3.014 -0.2102  0.2163  0.6910
 1382TIP3    H225562   4.915   3.795   3.064 -0.5383  0.5451 -0.2338
 1383TIP3   OH225563   1.784   0.898  11.637 -0.4371 -0.1517  0.3777
 1383TIP3    H125564   1.713   0.958  11.661 -0.6070 -0.5098  0.7810
 1383TIP3    H225565   1.843   0.951  11.584 -0.7346  0.2941  0.4851
 1384TIP3   OH225566   2.524   0.392   1.833 -0.1844  0.2194  0.1439
 1384TIP3    H125567   2.528   0.379   1.738  2.6400  1.1412  0.0422
 1384TIP3    H225568   2.505   0.305   1.868 -0.5845 -0.2777 -1.2279
 1385TIP3   OH225569   1.238   6.690   5.434 -0.5509  0.8105  0.4644
 1385TIP3    H125570   1.212   6.652   5.350 -0.8527 -0.7133  1.2062
 1385TIP3    H225571   1.322   6.731   5.418 -0.3566  0.0690 -0.4607
 1386TIP3   OH225572   2.033   0.003  11.387 -0.2488  0.3132  0.2654
 1386TIP3    H125573   2.058  -0.016  11.296 -0.7598  1.1173 -0.0583
 1386TIP3    H225574   2.035  -0.082  11.431  3.1185  0.2727  0.3131
 1387TIP3   OH225575   6.364   2.684  14.546 -0.0379 -0.4219  0.4754
 1387TIP3    H125576   6.324   2.771  14.542  1.6981  0.3672 -1.3810
 1387TIP3    H225577   6.295   2.625  14.515 -0.7046  0.5187  0.1030
 1388TIP3   OH225578   6.461   4.225  12.101  0.4646  0.4066 -0.6232
 1388TIP3    H125579   6.553   4.233  12.075  0.4072  0.6106 -0.7750
 1388TIP3    H225580   6.424   4.163  12.038  0.6556 -0.2127 -0.1376
 1389TIP3   OH225581   5.986   4.072   4.758  0.2406 -0.0574  0.1655
 1389TIP3    H125582   5.893   4.087   4.744  0.1995  0.8813  1.2685
 1389TIP3    H225583   6.030   4.130   4.696  0.1806 -2.2952 -2.1697
 1390TIP3   OH225584   5.307   0.911  13.752  0.7031  0.0063 -0.2011
 1390TIP3    H125585   5.332   0.982  13.693  1.8759  1.1858  1.6434
 1390TIP3    H225586   5.292   0.953  13.836  0.8317 -1.8669  0.8100
 1391TIP3   OH225587   5.692   6.420   3.877 -0.6447 -0.3961 -0.0478
 1391TIP3    H125588   5.715   6.504   3.918  0.6871 -0.9814  0.4773
 1391TIP3    H225589   5.653   6.369   3.948  2.9590 -1.9369  1.0632
 1392TIP3   OH225590   5.283   1.393   5.242  0.3894 -0.3267  0.4512
 1392TIP3    H125591   5.378   1.406   5.241  0.3328  0.1996 -0.9744
 1392TIP3    H225592   5.249   1.468   5.292  0.6754 -0.0700  0.2647
 1393TIP3   OH225593   1.687   3.148  14.387  0.5640 -0.0780  0.0942
 1393TIP3    H125594   1.602   3.105  14.391  0.5817 -0.0729  0.5265
 1393TIP3    H225595   1.686   3.195  14.304 -0.4187  1.1191  0.7530
 1394TIP3   OH225596   1.012   0.507  12.502  0.3605  0.5151 -0.3107
 1394TIP3    H125597   1.099   0.468  12.498 -0.0615 -0.3732 -2.0298
 1394TIP3    H225598   1.001   0.550  12.417 -1.0860  0.1209 -0.3577
 1395TIP3   OH225599   6.539   0.972  12.250 -0.0693 -0.6925  0.2756
 1395TIP3    H125600   6.469   0.948  12.189 -2.5341 -1.9939  3.3044
 1395TIP3    H225601   6.514   1.057  12.284  0.6900 -0.4555  0.2622
 1396TIP3   OH225602   1.163   2.299   6.505  0.1179 -0.0426 -0.2948
 1396TIP3    H125603   1.070   2.317   6.519  0.0934  1.8884 -2.4537
 1396TIP3    H225604   1.207   2.379   6.532  0.7489  0.5701 -2.8697
 1397TIP3   OH225605   2.753   4.629   4.332  0.1462  0.3801  0.1235
 1397TIP3    H125606   2.678   4.621   4.274  0.7609  2.4660 -1.0737
 1397TIP3    H225607   2.772   4.540   4.360 -0.8983 -0.5666 -1.9862
 1398TIP3   OH225608   4.363   1.392  16.154  0.5378 -0.0542  0.4990
 1398TIP3    H125609   4.298   1.348  16.100 -0.3267  1.5521  0.1797
 1398TIP3    H225610   4.412   1.448  16.093  0.2043  1.0290  1.1944
 1399TIP3   OH225611   1.311   3.065   1.743  0.0148  0.1021 -0.5149
 1399TIP3    H125612   1.316   3.133   1.676  0.5947 -1.5734 -2.2519
 1399TIP3    H225613   1.383   3.006   1.722  1.1370  0.2327  2.4704
 1400TIP3   OH225614   3.973   6.050  16.066  0.1548  0.0994 -0.5515
 1400TIP3    H125615   4.059   6.016  16.044  1.1142  2.7412 -1.3336
 1400TIP3    H225616   3.983   6.087  16.154 -0.4024 -0.2345 -0.3407
 1401TIP3   OH225617   6.239   0.372   2.243  0.1725  0.2196  0.5378
 1401TIP3    H125618   6.334   0.372   2.237  0.4416  2.6345  2.9285
 1401TIP3    H225619   6.210   0.394   2.154  1.7501 -1.4538 -0.4400
 1402TIP3   OH225620   3.615   4.066  11.661  0.0763  0.3776  0.4517
 1402TIP3    H125621   3.688   4.115  11.699 -0.5853  0.3438  1.8267
 1402TIP3    H225622   3.621   4.083  11.567  0.1539  2.7395  0.8221
 1403TIP3   OH225623   5.104   1.064   2.760  0.0691 -0.2452 -0.5852
 1403TIP3    H125624   5.016   1.038   2.734  0.2910 -2.5457  0.6850
 1403TIP3    H225625   5.091   1.140   2.817 -1.2600 -1.3872  0.7148
 1404TIP3   OH225626   5.791   2.362  14.880 -0.3202 -0.0172  0.5117
 1404TIP3    H125627   5.724   2.364  14.948 -0.9351  0.4230 -0.0907
 1404TIP3    H225628   5.757   2.419  14.811  1.2123  1.1501  0.6695
 1405TIP3   OH225629   0.624   1.045  14.496 -0.0617 -0.5859 -0.0547
 1405TIP3    H125630   0.569   1.067  14.421 -0.8215  1.4839  1.0328
 1405TIP3    H225631   0.712   1.038  14.459 -0.4333  0.3070 -1.1606
 1406TIP3   OH225632   0.852   3.019   6.043 -0.2142  0.3713  0.2001
 1406TIP3    H125633   0.902   3.039   6.122  2.0805 -0.7029 -0.8493
 1406TIP3    H225634   0.830   2.926   6.052  0.3174  0.1635 -0.4991
 1407TIP3   OH225635   0.734   6.159   3.470  0.0648 -0.1697 -0.7332
 1407TIP3    H125636   0.812   6.185   3.521  0.0707  0.5755 -1.1069
 1407TIP3    H225637   0.701   6.082   3.515  0.0182  0.5245  0.4691
 1408TIP3   OH225638   5.157   4.097   6.271  0.1127 -0.8177 -0.3880
 1408TIP3    H125639   5.071   4.116   6.233  0.0188  0.6770  0.4678
 1408TIP3    H225640   5.205   4.179   6.261  0.7656 -1.0290  0.8825
 1409TIP3   OH225641   1.542   2.658  12.519 -0.0514  0.4245 -0.1579
 1409TIP3    H125642   1.547   2.573  12.561  0.3955  1.4878  2.0719
 1409TIP3    H225643   1.632   2.691  12.520  0.0789  0.3093 -2.4606
 1410TIP3   OH225644   5.734   0.097   2.129 -0.1137  0.2358 -0.1524
 1410TIP3    H125645   5.802   0.083   2.063 -1.5248  1.5848 -2.0016
 1410TIP3    H225646   5.757   0.181   2.168 -0.2459  0.2762 -0.1632
 1411TIP3   OH225647   6.419   3.706   1.739  0.2969  0.3664 -0.5762
 1411TIP3    H125648   6.342   3.733   1.688  0.2733  0.2164 -0.6186
 1411TIP3    H225649   6.402   3.615   1.761  0.9263  0.0269 -1.4355
 1412TIP3   OH225650   5.505   5.412   1.612  0.3761  0.4216  0.5611
 1412TIP3    H125651   5.437   5.355   1.646 -0.4906  1.6009  0.8543
 1412TIP3    H225652   5.474   5.437   1.525  1.5981 -0.9212 -0.3182
 1413TIP3   OH225653   4.236   3.522   4.076 -0.3682  0.2849 -0.3022
 1413TIP3    H125654   4.161   3.538   4.019 -1.0944 -1.4821  0.0993
 1413TIP3    H225655   4.292   3.462   4.026 -1.1304 -1.4792  0.8533
 1414TIP3   OH225656   6.796   1.529  16.704  0.4976 -0.1684  0.4027
 1414TIP3    H125657   6.871   1.570  16.746 -0.3710  1.3799  0.5025
 1414TIP3    H225658   6.808   1.545  16.611  0.9052 -1.0061  0.3024
 1415TIP3   OH225659   2.756   2.814  12.265 -0.5493 -0.0519 -0.7875
 1415TIP3    H125660   2.756   2.730  12.218  0.6225  0.1299 -1.1382
 1415TIP3    H225661   2.742   2.879  12.196 -0.1911  0.1232 -0.6948
 1416TIP3   OH225662   3.807   3.185   3.331  0.8018 -0.4394 -0.1264
 1416TIP3    H125663   3.733   3.242   3.351  2.2276  1.5986 -0.3470
 1416TIP3    H225664   3.801   3.114   3.395 -0.9688  0.0163  0.2547
 1417TIP3   OH225665   5.029   5.581  14.430  0.1666  0.6350 -0.8022
 1417TIP3    H125666   4.973   5.652  14.401 -0.5900 -0.5390 -2.3958
 1417TIP3    H225667   5.003   5.506  14.376  0.0122 -1.2302  1.6616
 1418TIP3   OH225668   5.320   0.275  12.121  0.0690 -0.0187  0.6258
 1418TIP3    H125669   5.288   0.342  12.061  1.1081  0.6814  0.8433
 1418TIP3    H225670   5.333   0.321  12.204  1.4880 -0.3104  0.5860
 1419TIP3   OH225671   2.930   6.380   1.483  0.1924  1.0177  0.2832
 1419TIP3    H125672   2.855   6.368   1.541 -0.8070 -0.8080 -1.2645
 1419TIP3    H225673   2.893   6.412   1.401  1.0573  0.0471 -0.5236
 1420TIP3   OH225674   1.538   5.164  13.189  0.0659  0.0696 -0.3291
 1420TIP3    H125675   1.456   5.206  13.165  0.0227  1.3905  1.8765
 1420TIP3    H225676   1.606   5.221  13.153 -0.0010  1.9085  2.1626
 1421TIP3   OH225677   0.339   5.149   2.199  0.7339  0.0660 -0.0151
 1421TIP3    H125678   0.371   5.132   2.288  1.0944  0.9838  0.0501
 1421TIP3    H225679   0.302   5.066   2.170  0.6166 -0.2489  0.9941
 1422TIP3   OH225680   4.090   6.611  14.285  0.4476 -0.2222  0.3244
 1422TIP3    H125681   4.137   6.667  14.224 -0.1623 -1.1772 -1.0637
 1422TIP3    H225682   3.998   6.627  14.268  0.2097  0.7380  2.1991
 1423TIP3   OH225683   6.218   1.796  13.653  0.3029  0.0603  0.0735
 1423TIP3    H125684   6.226   1.793  13.558  0.2382 -3.0817  0.0748
 1423TIP3    H225685   6.308   1.791  13.685  0.3089  0.8623  0.2012
 1424TIP3   OH225686   2.201   2.508  12.092 -0.0341  0.0944  0.0710
 1424TIP3    H125687   2.291   2.527  12.117  0.0177 -1.1602  0.9272
 1424TIP3    H225688   2.206   2.487  11.999  0.7663 -1.0881  0.3541
 1425TIP3   OH225689   5.129   1.749   2.702  0.1230  0.1303 -0.2485
 1425TIP3    H125690   5.112   1.696   2.623  2.0155 -0.4570 -0.3118
 1425TIP3    H225691   5.042   1.770   2.735 -0.7208 -0.1958 -2.1070
 1426TIP3   OH225692   0.798   1.380   4.795  0.4423 -0.6823 -0.1900
 1426TIP3    H125693   0.706   1.383   4.819  0.2800  0.1542 -0.8401
 1426TIP3    H225694   0.803   1.314   4.726  0.2232 -0.3333 -0.5447
 1427TIP3   OH225695   2.122   0.095   3.722  0.1288  0.2244  0.6483
 1427TIP3    H125696   2.153   0.164   3.664  1.2138  0.1706  1.1333
 1427TIP3    H225697   2.166   0.112   3.806 -0.0199 -0.7166  0.9343
 1428TIP3   OH225698   4.050   5.584   5.416  0.3527 -0.4683  0.0573
 1428TIP3    H125699   4.137   5.553   5.442  0.9858  1.6916  0.7361
 1428TIP3    H225700   4.064   5.627   5.332  0.9187  3.5052  1.9598
 1429TIP3   OH225701   5.536   3.961   0.901 -0.3530 -0.9512 -0.1740
 1429TIP3    H125702   5.527   4.055   0.885  0.4058 -1.2220 -2.7357
 1429TIP3    H225703   5.611   3.953   0.960  0.8973  0.0037 -1.5676
 1430TIP3   OH225704   6.796   2.650   1.595  0.1335 -0.1267  0.0625
 1430TIP3    H125705   6.771   2.691   1.512 -1.8446  0.0843  0.7259
 1430TIP3    H225706   6.714   2.642   1.644  1.1760 -0.7591  1.7845
 1431TIP3   OH225707   6.713   0.639   2.008 -0.0857  0.1501 -0.2449
 1431TIP3    H125708   6.674   0.630   1.921 -2.8279  0.1937  0.8866
 1431TIP3    H225709   6.720   0.733   2.022 -0.0977  0.1495 -0.2346
 1432TIP3   OH225710   0.781   6.501   1.306 -0.2268 -0.8263 -0.9906
 1432TIP3    H125711   0.802   6.590   1.277  1.2650 -1.3802 -1.6694
 1432TIP3    H225712   0.718   6.469   1.241 -1.3131 -0.0594 -0.3608
 1433TIP3   OH225713   5.536   3.900  13.162  0.8670  0.3566 -0.2543
 1433TIP3    H125714   5.450   3.930  13.191  0.2522 -0.9437 -0.6807
 1433TIP3    H225715   5.538   3.807  13.182  2.1356  0.3317 -0.3779
 1434TIP3   OH225716   2.793   3.594   1.962  0.0079 -0.1173  0.0991
 1434TIP3    H125717   2.866   3.535   1.944 -0.8281 -0.5387 -2.1520
 1434TIP3    H225718   2.728   3.539   2.006 -0.4936 -0.7419 -1.3849
 1435TIP3   OH225719   5.813   1.814   6.780  0.5433  0.1037  0.5482
 1435TIP3    H125720   5.749   1.873   6.740  1.2172 -0.6441 -1.7774
 1435TIP3    H225721   5.883   1.871   6.810 -0.4288  0.7726  1.6442
 1436TIP3   OH225722   1.790   5.652  14.301 -0.4158 -0.5594 -0.3238
 1436TIP3    H125723   1.739   5.605  14.368  0.1187  0.2628  0.6829
 1436TIP3    H225724   1.802   5.740  14.338  0.1246 -0.1791 -1.3902
 1437TIP3   OH225725   5.716   6.706  12.042 -0.2860  0.4915 -0.6789
 1437TIP3    H125726   5.743   6.665  11.960 -1.9333 -0.5719 -0.7365
 1437TIP3    H225727   5.791   6.759  12.068  1.4201 -1.4486 -1.3380
 1438TIP3   OH225728   1.318   0.442   4.182  0.6064 -0.1149  0.2499
 1438TIP3    H125729   1.324   0.415   4.273  0.8971 -0.8701  0.0088
 1438TIP3    H225730   1.228   0.422   4.157  0.5570 -0.0022  0.3325
 1439TIP3   OH225731   0.294   3.035   0.449 -0.6985 -0.4462  0.3490
 1439TIP3    H125732   0.365   2.976   0.474 -0.5047 -0.0146  0.8510
 1439TIP3    H225733   0.309   3.053   0.356 -0.9025 -1.3703  0.1355
 1440TIP3   OH225734   4.538   6.204   3.623 -0.0948 -0.0481  0.5245
 1440TIP3    H125735   4.452   6.242   3.638 -0.3544 -0.4131 -0.0089
 1440TIP3    H225736   4.599   6.269   3.659 -0.5817  0.2676  0.7945
 1441TIP3   OH225737   3.193   2.278   3.002 -0.7044  0.0327  0.0934
 1441TIP3    H125738   3.154   2.360   3.033 -0.8501 -0.6152  1.7534
 1441TIP3    H225739   3.287   2.296   2.998 -0.8175  0.5247 -0.3719
 1442TIP3   OH225740   6.634   1.405   3.277  0.5811  0.6401  0.0056
 1442TIP3    H125741   6.635   1.444   3.189 -0.6643  0.6751 -0.0056
 1442TIP3    H225742   6.668   1.474   3.334  0.4232  0.9849 -0.3160
 1443TIP3   OH225743   0.766   4.657  16.099 -0.1837 -0.4189 -0.3461
 1443TIP3    H125744   0.767   4.747  16.132 -1.1861 -0.7931  0.7414
 1443TIP3    H225745   0.686   4.651  16.047 -1.1994 -1.2317  1.2390
 1444TIP3   OH225746   3.821   3.807  17.052 -0.1638  0.5329 -0.2403
 1444TIP3    H125747   3.790   3.717  17.061  0.7105  0.1257 -1.1162
 1444TIP3    H225748   3.914   3.803  17.077 -0.4830  1.5115  1.2323
 1445TIP3   OH225749   0.783   0.749  13.635  0.2764  0.1122  0.4941
 1445TIP3    H125750   0.857   0.699  13.671  0.6282 -0.8577 -1.4768
 1445TIP3    H225751   0.811   0.840  13.641  1.0599 -0.1475  1.0187
 1446TIP3   OH225752   4.891   6.272  17.051  0.2187 -0.2184 -0.2449
 1446TIP3    H125753   4.824   6.227  17.101  1.1396 -1.0806  0.2531
 1446TIP3    H225754   4.851   6.290  16.966 -2.3643  3.7160  1.5046
 1447TIP3   OH225755   1.269   2.453  12.340 -0.1557  0.5961  0.2975
 1447TIP3    H125756   1.356   2.445  12.377  0.1890  0.9354 -0.4221
 1447TIP3    H225757   1.283   2.478  12.249 -0.9858  0.0311 -0.0052
 1448TIP3   OH225758   1.130   1.154  10.631 -0.2615  0.3105 -0.3585
 1448TIP3    H125759   1.138   1.061  10.654  0.9697  0.2498 -0.9839
 1448TIP3    H225760   1.056   1.156  10.569 -2.3005  0.2108  1.9111
 1449TIP3   OH225761   4.720   3.766   1.166  0.0057 -0.2925  0.4315
 1449TIP3    H125762   4.792   3.823   1.193 -1.4385  1.6878  0.3345
 1449TIP3    H225763   4.713   3.701   1.236  1.9147 -0.5871  0.3886
 1450TIP3   OH225764   3.394   5.633  12.526  0.2927  0.3371 -0.1942
 1450TIP3    H125765   3.403   5.727  12.541  0.1805  0.2495  0.4816
 1450TIP3    H225766   3.475   5.595  12.559  0.5164  0.2336 -0.8533
 1451TIP3   OH225767   0.888   1.039   5.756 -0.7922 -0.0322 -0.4256
 1451TIP3    H125768   0.815   1.097   5.735  1.2142  2.2110 -1.7453
 1451TIP3    H225769   0.912   1.062   5.846 -2.2515 -1.4844  0.3796
 1452TIP3   OH225770   2.895   1.026  16.563  0.0048  0.4855 -0.2306
 1452TIP3    H125771   2.936   0.946  16.596  0.9891  0.6747 -0.9675
 1452TIP3    H225772   2.930   1.037  16.475 -2.5673 -0.0014 -1.4139
 1453TIP3   OH225773   2.273   4.195  11.164 -0.0576  0.5121 -0.4252
 1453TIP3    H125774   2.301   4.283  11.187  0.1183  0.2424  0.4258
 1453TIP3    H225775   2.354   4.149  11.143 -0.2134  0.7531 -1.6379
 1454TIP3   OH225776   0.304   0.838  13.423 -0.1620  0.3454  0.1240
 1454TIP3    H125777   0.375   0.858  13.362 -0.4690  0.1640 -0.2951
 1454TIP3    H225778   0.267   0.923  13.446  0.2504  0.4482  0.4198
 1455TIP3   OH225779   2.521   1.253  11.895  0.0744  0.3288 -0.2508
 1455TIP3    H125780   2.604   1.297  11.880  0.3778  0.0505  0.5588
 1455TIP3    H225781   2.467   1.318  11.941  0.6067 -0.2065  1.1612
 1456TIP3   OH225782   3.887   1.035  12.883 -0.4765 -0.2335  0.0159
 1456TIP3    H125783   3.971   1.021  12.927 -0.4358  0.0989  0.0477
 1456TIP3    H225784   3.868   1.128  12.896  1.8338  1.1840 -4.6780
 1457TIP3   OH225785   2.161   4.458   1.576 -0.1997  0.3184  0.2064
 1457TIP3    H125786   2.168   4.552   1.563  0.1870  0.4427  1.1857
 1457TIP3    H225787   2.192   4.444   1.666 -0.9431 -0.6510  0.3306
 1458TIP3   OH225788   3.332   5.806  15.095 -0.3592 -0.1983 -0.0978
 1458TIP3    H125789   3.270   5.757  15.150 -0.0237 -0.7569 -0.2056
 1458TIP3    H225790   3.376   5.865  15.155  0.0332 -0.8346  0.2475
 1459TIP3   OH225791   2.405   1.805   5.101  1.1255  0.5045 -0.2501
 1459TIP3    H125792   2.449   1.889   5.103  0.6356  0.9095 -2.8733
 1459TIP3    H225793   2.323   1.822   5.055 -0.2114 -0.9192  1.4416
 1460TIP3   OH225794   0.816   2.059   0.259 -0.6457  0.3650 -0.0263
 1460TIP3    H125795   0.892   2.039   0.204 -0.8924  1.0941 -0.6415
 1460TIP3    H225796   0.839   2.140   0.304  0.2142 -1.0048  2.2149
 1461TIP3   OH225797   3.707   2.482  16.519  0.1400 -0.0270 -0.0052
 1461TIP3    H125798   3.696   2.574  16.497 -1.2844  0.1407  1.3294
 1461TIP3    H225799   3.655   2.468  16.598  1.6640 -1.5922  0.8042
 1462TIP3   OH225800   4.625   5.953  14.676  0.6832 -0.3974 -0.1603
 1462TIP3    H125801   4.576   5.902  14.740  2.0162 -1.0413  0.3902
 1462TIP3    H225802   4.561   5.976  14.608 -0.5468 -0.4545  0.9602
 1463TIP3   OH225803   1.435   0.797  16.111 -0.4239  0.2879  0.0577
 1463TIP3    H125804   1.409   0.870  16.166  0.7431  2.3149 -1.9216
 1463TIP3    H225805   1.373   0.797  16.038 -1.8647 -2.2637  1.1401
 1464TIP3   OH225806   3.996   4.811   2.586 -0.6661  0.1308 -0.4694
 1464TIP3    H125807   4.016   4.759   2.508 -0.3523 -0.1503 -0.2023
 1464TIP3    H225808   4.050   4.773   2.655 -0.4393  0.8132 -0.2689
 1465TIP3   OH225809   2.807   5.531   1.225  0.5058  0.4996 -0.2183
 1465TIP3    H125810   2.895   5.536   1.262 -0.2373 -0.3947  1.8515
 1465TIP3    H225811   2.818   5.558   1.134  2.9752  0.0794 -0.1366
 1466TIP3   OH225812   5.614   6.054  11.493 -0.1252  0.0623  0.0194
 1466TIP3    H125813   5.559   5.977  11.505  1.0133 -0.4740  2.0918
 1466TIP3    H225814   5.561   6.127  11.527 -0.6498  0.0095 -0.6570
 1467TIP3   OH225815   4.388   4.679  12.039 -0.3331 -0.5721  0.4626
 1467TIP3    H125816   4.350   4.633  11.964 -0.8552  0.6500 -0.0536
 1467TIP3    H225817   4.476   4.643  12.048  1.2105  1.7939 -3.1169
 1468TIP3   OH225818   5.071   2.450   2.838 -0.4821 -0.7063 -0.0629
 1468TIP3    H125819   4.985   2.486   2.814  0.3313  1.1860 -0.3082
 1468TIP3    H225820   5.104   2.411   2.756 -1.4949 -2.4008  0.2774
 1469TIP3   OH225821   4.173   2.146  12.513 -0.5837 -0.6673  0.2213
 1469TIP3    H125822   4.192   2.140  12.606  2.4048  0.1850 -0.2209
 1469TIP3    H225823   4.152   2.057  12.486  1.0809 -1.4251  1.2878
 1470TIP3   OH225824   1.174   0.287   0.882  0.0273  0.1086  0.4063
 1470TIP3    H125825   1.083   0.286   0.914 -0.6358  1.5410 -1.2683
 1470TIP3    H225826   1.218   0.349   0.940 -0.3795  0.3277  0.4883
 1471TIP3   OH225827   0.825   0.240  14.107  0.0669  0.2306  0.1229
 1471TIP3    H125828   0.789   0.322  14.140  0.5684  0.1074  1.0077
 1471TIP3    H225829   0.879   0.266  14.032  0.9635  0.8463  0.9463
 1472TIP3   OH225830   2.881   0.834  11.119  0.4662 -0.2723  0.3268
 1472TIP3    H125831   2.936   0.899  11.164  0.0239 -0.0074  0.4965
 1472TIP3    H225832   2.809   0.886  11.082 -0.6269 -0.8062  1.5966
 1473TIP3   OH225833   2.035   6.194  16.456 -0.4837 -0.3062 -0.1273
 1473TIP3    H125834   2.119   6.195  16.502  0.5624 -0.1606 -1.9614
 1473TIP3    H225835   2.014   6.286  16.441  1.3464 -0.3090 -3.5773
 1474TIP3   OH225836   2.364   3.999  10.847 -0.1461 -0.4731  0.2087
 1474TIP3    H125837   2.452   4.003  10.810  0.8471 -0.2882  2.4478
 1474TIP3    H225838   2.377   3.988  10.941 -2.5289 -0.7364  0.5835
 1475TIP3   OH225839   5.758   6.204  16.109  0.2367  0.1402 -0.2932
 1475TIP3    H125840   5.813   6.259  16.166  1.9630 -2.0657  0.3280
 1475TIP3    H225841   5.791   6.222  16.020  0.5422  0.3692 -0.1355
 1476TIP3   OH225842   3.374   2.744   2.214  0.3777  0.1816  0.4441
 1476TIP3    H125843   3.326   2.776   2.138 -0.2353  0.2996  0.8745
 1476TIP3    H225844   3.361   2.811   2.281  0.4470 -0.1793  0.8268
 1477TIP3   OH225845   3.962   0.518   2.966 -0.3088  0.3651 -0.6458
 1477TIP3    H125846   3.924   0.430   2.960 -0.6021  0.4354  0.1547
 1477TIP3    H225847   4.044   0.506   3.013 -1.5119  0.8445  1.6990
 1478TIP3   OH225848   2.113   6.433  15.216  0.0581 -0.1300  0.3130
 1478TIP3    H125849   2.116   6.430  15.312  0.5676  0.9338  0.3482
 1478TIP3    H225850   2.179   6.370  15.188  1.5358  1.1593  0.7241
 1479TIP3   OH225851   4.510   5.161   5.137 -0.1749  0.0057 -0.1074
 1479TIP3    H125852   4.512   5.186   5.229 -1.0797  2.2261 -0.6332
 1479TIP3    H225853   4.485   5.240   5.091  0.9660 -0.8491 -2.3679
 1480TIP3   OH225854   0.327   4.697   4.393 -0.9244  0.4492 -0.5802
 1480TIP3    H125855   0.381   4.711   4.315  0.7172 -2.2834 -0.0684
 1480TIP3    H225856   0.262   4.632   4.367 -0.1451 -0.7469  0.3520
 1481TIP3   OH225857   3.931   2.098   6.260  0.3027  0.1746 -0.4066
 1481TIP3    H125858   3.866   2.126   6.195 -0.6431  1.3007  0.9482
 1481TIP3    H225859   3.891   2.119   6.344  1.8264 -0.4900  0.5281
 1482TIP3   OH225860   2.619   1.807  12.033 -0.2043  0.0492  0.3584
 1482TIP3    H125861   2.712   1.786  12.027 -0.2739  0.0294 -0.8237
 1482TIP3    H225862   2.597   1.846  11.948 -1.7249 -1.7674 -0.1409
 1483TIP3   OH225863   5.497   0.078   4.873  0.3624 -0.6932 -0.3904
 1483TIP3    H125864   5.514   0.149   4.936  1.4059  0.8404 -2.2949
 1483TIP3    H225865   5.422   0.108   4.822  0.1587 -1.4540 -0.5534
 1484TIP3   OH225866   5.007   2.974  10.758  0.5681 -0.4217  0.3058
 1484TIP3    H125867   5.093   2.944  10.729  1.1984  2.3134 -1.0785
 1484TIP3    H225868   4.964   2.896  10.793  2.8302 -2.2950 -0.8100
 1485TIP3   OH225869   5.413   0.772   5.508  0.3520  0.5582 -0.6888
 1485TIP3    H125870   5.393   0.797   5.598  0.7190  1.7888 -0.9277
 1485TIP3    H225871   5.505   0.793   5.497  0.3491  0.2709 -1.3134
 1486TIP3   OH225872   2.057   6.282   5.399 -0.0873 -0.3260  0.6614
 1486TIP3    H125873   1.979   6.249   5.355  2.7706 -3.2673 -2.8225
 1486TIP3    H225874   2.084   6.359   5.348  0.6781 -0.9076  0.1705
 1487TIP3   OH225875   5.328   5.915  15.875 -0.0151  0.0093 -0.0991
 1487TIP3    H125876   5.406   5.972  15.874 -0.9804  1.5875  2.7725
 1487TIP3    H225877   5.327   5.879  15.963 -1.7926 -1.1245 -0.5489
 1488TIP3   OH225878   4.037   4.209  13.057 -0.2041  0.2837  0.1060
 1488TIP3    H125879   4.035   4.129  13.108 -3.0539  0.6187  0.7240
 1488TIP3    H225880   3.981   4.270  13.106 -1.2078  1.3639 -2.1990
 1489TIP3   OH225881   2.559   6.273  12.601 -0.1891  0.5136 -0.1551
 1489TIP3    H125882   2.596   6.287  12.689 -0.7248  0.7176  0.0431
 1489TIP3    H225883   2.622   6.315  12.542 -0.2270  1.0910  0.1984
 1490TIP3   OH225884   1.931   2.216   5.501 -0.1745 -0.1891 -0.9533
 1490TIP3    H125885   1.864   2.284   5.508 -0.9998 -1.1404  1.5508
 1490TIP3    H225886   1.902   2.162   5.428 -1.4087  0.2084 -0.7965
 1491TIP3   OH225887   1.851   6.482  12.166 -0.0585 -0.6624  0.0357
 1491TIP3    H125888   1.770   6.491  12.216  0.2076 -1.7035  0.6704
 1491TIP3    H225889   1.920   6.506  12.227  0.1379  0.0947 -0.4662
 1492TIP3   OH225890   1.473   1.087  13.149  0.1620 -0.5920  0.5108
 1492TIP3    H125891   1.456   0.997  13.124  0.1276 -0.6007  0.5654
 1492TIP3    H225892   1.400   1.137  13.111  0.1123 -0.6046  0.5896
 1493TIP3   OH225893   5.195   1.148  11.274  0.0658 -0.3519  0.2496
 1493TIP3    H125894   5.174   1.055  11.273 -2.2735  0.0975 -0.8785
 1493TIP3    H225895   5.239   1.163  11.358 -2.4976 -1.9011  1.9912
 1494TIP3   OH225896   4.830   4.879   0.281  0.3197 -0.1771 -0.1665
 1494TIP3    H125897   4.758   4.822   0.312  0.1965  0.2928  0.4331
 1494TIP3    H225898   4.819   4.882   0.186 -0.2707 -0.3605 -0.1103
 1495TIP3   OH225899   0.620   1.025  12.560 -0.4082  0.0667 -0.1868
 1495TIP3    H125900   0.547   0.974  12.525  0.0776 -1.8546  1.3960
 1495TIP3    H225901   0.698   0.984  12.524 -0.0492  0.6354 -0.0646
 1496TIP3   OH225902   2.292   4.089   0.265 -0.3124 -0.0441 -0.7706
 1496TIP3    H125903   2.336   4.036   0.331  1.3687  0.7882 -1.1503
 1496TIP3    H225904   2.200   4.066   0.272  0.0148 -0.9715  0.9234
 1497TIP3   OH225905   2.632   2.897   5.254  0.0935 -0.0212 -0.1722
 1497TIP3    H125906   2.600   2.810   5.275  2.0322 -0.3929  1.5109
 1497TIP3    H225907   2.579   2.956   5.308 -0.3137 -0.2546 -0.3124
 1498TIP3   OH225908   6.180   2.226   2.378  0.0655 -0.2258  0.7927
 1498TIP3    H125909   6.261   2.182   2.353 -0.6698 -0.6137 -1.0968
 1498TIP3    H225910   6.135   2.164   2.435 -0.1947 -1.3052 -0.5094
 1499TIP3   OH225911   2.668   1.851  12.799  0.4516 -0.0035 -0.2444
 1499TIP3    H125912   2.655   1.902  12.719  0.9929 -0.7845 -0.8393
 1499TIP3    H225913   2.582   1.814  12.819  0.2834  0.3144 -0.3676
 1500TIP3   OH225914   5.862   3.723   3.650 -0.1024 -0.1811 -0.4179
 1500TIP3    H125915   5.933   3.660   3.663 -0.2838 -0.2950  0.0593
 1500TIP3    H225916   5.905   3.809   3.656  0.0489 -0.2542 -0.4606
 1501TIP3   OH225917   1.446   4.566   4.051 -0.3822  0.0465 -0.2210
 1501TIP3    H125918   1.525   4.614   4.073 -0.5541  0.7026 -0.9862
 1501TIP3    H225919   1.378   4.604   4.107 -0.3506  0.1545 -0.2549
 1502TIP3   OH225920   4.394   3.437  12.106 -0.2939 -0.0807 -0.4886
 1502TIP3    H125921   4.471   3.398  12.066 -0.4234  2.2580 -3.3454
 1502TIP3    H225922   4.428   3.489  12.179  0.7832  0.4030 -1.3179
 1503TIP3   OH225923   6.042   4.986  11.498 -0.7775  0.4449  0.2969
 1503TIP3    H125924   6.000   4.965  11.415  1.2546  0.2622 -0.7334
 1503TIP3    H225925   6.046   5.081  11.500  0.1950  0.4185 -0.3530
 1504TIP3   OH225926   2.821   5.430  14.512 -0.6182 -0.0015  0.2843
 1504TIP3    H125927   2.900   5.483  14.498 -1.6784  1.3250 -1.1123
 1504TIP3    H225928   2.841   5.346  14.472 -0.1789  0.6120 -0.8288
 1505TIP3   OH225929   4.960   1.316  11.327  0.3930 -0.4527 -0.1750
 1505TIP3    H125930   5.037   1.266  11.299  0.3570 -0.0782 -0.9777
 1505TIP3    H225931   4.899   1.250  11.360  1.0870 -0.7454  0.5554
 1506TIP3   OH225932   1.715   4.684  10.709  0.2172 -0.2156  0.2624
 1506TIP3    H125933   1.793   4.735  10.728 -0.1320  0.2352  0.4934
 1506TIP3    H225934   1.716   4.613  10.773  0.1198  0.1367  0.6570
 1507TIP3   OH225935   4.432   6.612   0.600  0.1775 -0.0673 -0.2786
 1507TIP3    H125936   4.398   6.578   0.684 -1.0556  2.1756  0.2145
 1507TIP3    H225937   4.509   6.664   0.625  1.0073 -1.0163 -0.8094
 1508TIP3   OH225938   2.788   4.310  13.404 -0.3107  0.7223  0.2612
 1508TIP3    H125939   2.762   4.303  13.312 -2.5707 -0.5174  0.8978
 1508TIP3    H225940   2.882   4.293  13.404 -0.6134 -1.5307 -1.6167
 1509TIP3   OH225941   0.573   3.364  12.205  0.3458 -0.4451  0.8600
 1509TIP3    H125942   0.515   3.290  12.223  0.7347 -0.8772  0.3697
 1509TIP3    H225943   0.515   3.434  12.178  0.0148 -0.7429  0.7914
 1510TIP3   OH225944   1.470   5.683  13.868  0.1543  0.4989 -0.0849
 1510TIP3    H125945   1.398   5.740  13.842  0.4484  0.8097 -0.2230
 1510TIP3    H225946   1.450   5.658  13.958 -2.1212 -2.4544 -1.2180
 1511TIP3   OH225947   0.352   3.227  13.422 -0.5004  0.1102 -0.4417
 1511TIP3    H125948   0.352   3.131  13.423  0.9828 -0.0340 -3.4212
 1511TIP3    H225949   0.441   3.251  13.448 -0.3034  0.5677 -1.4885
 1512TIP3   OH225950   0.609   6.672   3.865  0.1029 -0.1976  0.3910
 1512TIP3    H125951   0.542   6.625   3.916 -0.7595  0.3960 -0.1594
 1512TIP3    H225952   0.559   6.737   3.816  1.1536  0.5627  0.3100
 1513TIP3   OH225953   0.689   4.517  12.477 -0.2338  0.3290 -0.0756
 1513TIP3    H125954   0.666   4.427  12.457 -0.7252  0.1474  1.2481
 1513TIP3    H225955   0.608   4.566  12.467 -0.6908  0.1106  2.0787
 1514TIP3   OH225956   3.091   4.888  14.247 -0.0933 -0.0038  0.2029
 1514TIP3    H125957   2.999   4.885  14.274 -0.5300  1.2307 -0.9976
 1514TIP3    H225958   3.087   4.920  14.156  1.3566 -2.4424 -0.8054
 1515TIP3   OH225959   1.973   4.254   4.792 -0.7170 -0.6354  0.0662
 1515TIP3    H125960   1.930   4.337   4.771 -1.6346 -1.0250  0.3422
 1515TIP3    H225961   1.906   4.204   4.838 -0.2370 -1.6135 -0.2761
 1516TIP3   OH225962   0.225   3.422  13.652 -0.1588 -0.0974  0.5210
 1516TIP3    H125963   0.245   3.444  13.743 -0.8394 -1.5766  1.0696
 1516TIP3    H225964   0.259   3.495  13.601 -0.8642  1.3645  2.0578
 1517TIP3   OH225965   2.712   6.388  13.343 -0.0027 -0.3869  0.1304
 1517TIP3    H125966   2.761   6.311  13.316  0.8097 -0.1668  0.9266
 1517TIP3    H225967   2.668   6.418  13.263  0.5246 -1.0497 -0.4183
 1518TIP3   OH225968   0.240   0.579  14.150 -0.5352  0.2038  0.2371
 1518TIP3    H125969   0.156   0.537  14.168 -0.7196  0.5318  0.1660
 1518TIP3    H225970   0.258   0.631  14.229  0.2086 -0.8139  0.7682
 1519TIP3   OH225971   5.517   0.081  12.306  0.1568 -0.4513  0.1329
 1519TIP3    H125972   5.533   0.162  12.256  1.2931 -0.6928  0.0618
 1519TIP3    H225973   5.462   0.028  12.249 -0.6282  0.2737  0.1914
 1520TIP3   OH225974   6.726   3.605  13.708 -0.2661 -0.3313  0.0067
 1520TIP3    H125975   6.794   3.564  13.762 -0.2002  0.4871  0.5722
 1520TIP3    H225976   6.692   3.676  13.763  0.1873  0.9005 -1.2303
 1521TIP3   OH225977   0.954   2.420  14.029 -0.2954  0.3260  0.0513
 1521TIP3    H125978   0.960   2.374  14.112 -0.6632  2.1991  1.1680
 1521TIP3    H225979   1.045   2.433  14.002 -0.1606  0.1385  0.4106
 1522TIP3   OH225980   6.665   0.578   3.924 -1.0061  0.3450  0.7311
 1522TIP3    H125981   6.641   0.494   3.963  0.1158 -0.0752  0.5355
 1522TIP3    H225982   6.622   0.578   3.839 -1.0929  0.0165  0.7737
 1523TIP3   OH225983   1.373   1.568   5.143 -0.3495  0.2404 -0.2561
 1523TIP3    H125984   1.468   1.561   5.133 -0.2377  1.1929  0.0483
 1523TIP3    H225985   1.356   1.536   5.232 -0.3265 -0.0207 -0.3452
 1524TIP3   OH225986   1.557   5.202  16.280  0.2946  0.0537  0.3058
 1524TIP3    H125987   1.577   5.121  16.327 -0.0760 -0.7594 -0.8993
 1524TIP3    H225988   1.613   5.199  16.202 -0.8238  0.2027 -0.5286
 1525TIP3   OH225989   2.447   6.596  15.433  0.4125  0.2215  0.2815
 1525TIP3    H125990   2.418   6.514  15.392  0.6307 -0.2331  1.0213
 1525TIP3    H225991   2.491   6.568  15.513 -0.1412  1.1122  0.9029
 1526TIP3   OH225992   2.593   4.207  15.814 -0.4635 -0.5506  0.0955
 1526TIP3    H125993   2.502   4.234  15.826  0.1510  1.5634  0.2665
 1526TIP3    H225994   2.644   4.286  15.828  1.3917 -1.5803 -0.5298
 1527TIP3   OH225995   6.172   5.700  16.302  0.3846 -0.6691 -0.2864
 1527TIP3    H125996   6.124   5.781  16.316  2.2601  0.5156 -0.2422
 1527TIP3    H225997   6.229   5.692  16.379 -0.2224 -2.3916  0.0242
 1528TIP3   OH225998   4.828   6.475   5.218  0.0628  0.0264  0.5047
 1528TIP3    H125999   4.859   6.388   5.193 -1.2048 -0.1297 -0.6362
 1528TIP3    H226000   4.846   6.530   5.142 -0.3360  0.4598  0.7193
 1529TIP3   OH226001   4.641   4.111  16.126  0.8268 -0.3691 -0.2121
 1529TIP3    H126002   4.650   4.125  16.221 -1.2724 -0.2518  0.0240
 1529TIP3    H226003   4.672   4.192  16.087  3.6430 -1.1426  0.1913
 1530TIP3   OH226004   0.967   6.796   0.478 -0.3253  0.7418  0.0274
 1530TIP3    H126005   0.894   6.844   0.437 -1.5374 -0.1743  1.0332
 1530TIP3    H226006   0.930   6.762   0.559  2.3111  3.5635  2.6789
 1531TIP3   OH226007   1.120   5.955   3.770 -0.3195  0.5558 -0.6147
 1531TIP3    H126008   1.144   6.018   3.702 -0.8440  1.1588 -0.2519
 1531TIP3    H226009   1.056   6.001   3.824 -1.5390 -0.6732 -0.9638
 1532TIP3   OH226010   1.160   5.835   0.477  0.1318  0.8030 -0.1691
 1532TIP3    H126011   1.220   5.858   0.547  2.2410 -0.4006 -1.4776
 1532TIP3    H226012   1.184   5.746   0.453 -0.6451  1.0979 -2.2780
 1533TIP3   OH226013   3.397   4.692   6.071  0.6837  0.2837 -0.1146
 1533TIP3    H126014   3.454   4.706   6.147 -0.3202  1.6087  0.4286
 1533TIP3    H226015   3.320   4.648   6.106  0.1000  1.1361 -0.3169
 1534TIP3   OH226016   6.625   3.126   5.573  0.5395  1.1052 -0.1548
 1534TIP3    H126017   6.606   3.052   5.515  2.0235  1.4429 -1.1431
 1534TIP3    H226018   6.545   3.178   5.573 -0.1619  0.0583 -0.2952
 1535TIP3   OH226019   1.720   1.182  13.213 -0.3319  0.1635  0.5524
 1535TIP3    H126020   1.631   1.168  13.182  0.5620 -1.4711 -1.5027
 1535TIP3    H226021   1.751   1.094  13.237  0.7777  0.6838  1.1192
 1536TIP3   OH226022   4.305   4.104  13.857 -0.1359 -0.6666 -0.3062
 1536TIP3    H126023   4.228   4.063  13.819 -0.7453 -0.6579  0.8718
 1536TIP3    H226024   4.377   4.046  13.833 -0.0797  0.4715 -3.3580
 1537TIP3   OH226025   1.735   3.337   6.420  0.1688  0.2808  0.1315
 1537TIP3    H126026   1.684   3.279   6.477 -0.5656  1.4079  0.6700
 1537TIP3    H226027   1.825   3.307   6.429 -0.2397 -0.9728  0.1415
 1538TIP3   OH226028   5.579   1.401  12.732  0.0560 -0.2197  0.3751
 1538TIP3    H126029   5.500   1.347  12.725 -0.0475 -0.0314  0.0666
 1538TIP3    H226030   5.648   1.347  12.694  0.5320 -1.2715  2.5930
 1539TIP3   OH226031   3.952   4.045   4.382 -0.2879 -0.1581  0.7875
 1539TIP3    H126032   3.971   4.075   4.293 -0.5983  1.3687  1.2078
 1539TIP3    H226033   3.900   3.966   4.370  0.0539 -0.2251 -0.3868
 1540TIP3   OH226034   1.633   0.688  11.032  0.6017 -0.6449 -0.3243
 1540TIP3    H126035   1.688   0.667  11.108  0.5578  1.1659  0.2560
 1540TIP3    H226036   1.690   0.672  10.957  1.0456 -1.3332  0.1482
 1541TIP3   OH226037   0.721   0.090   0.433 -0.1455  0.0903 -0.2282
 1541TIP3    H126038   0.694   0.026   0.368  2.3295 -0.2912 -0.9925
 1541TIP3    H226039   0.751   0.165   0.382  0.7002  0.2664  0.4958
 1542TIP3   OH226040   2.764   1.027  11.402  0.0055 -0.0415  0.1522
 1542TIP3    H126041   2.728   1.077  11.476 -2.0419  0.1964 -0.9290
 1542TIP3    H226042   2.858   1.041  11.407 -0.2676  1.6879  1.4923
 1543TIP3   OH226043   2.187   3.420  12.959  0.6123  0.7658  0.9280
 1543TIP3    H126044   2.120   3.351  12.955  0.2833  1.1284 -0.1341
 1543TIP3    H226045   2.264   3.377  12.996  0.0041  0.1729  1.5465
 1544TIP3   OH226046   2.907   5.221  11.141  0.5313 -0.0204 -0.1394
 1544TIP3    H126047   2.986   5.265  11.171  1.1740 -0.7088 -0.7660
 1544TIP3    H226048   2.929   5.188  11.054 -0.6438  0.2673 -0.5712
 1545TIP3   OH226049   6.132   0.130   2.592  0.8297 -0.1587 -0.7679
 1545TIP3    H126050   6.185   0.183   2.652 -0.2730  0.9324 -0.7262
 1545TIP3    H226051   6.070   0.192   2.554  0.0919 -1.2669 -1.4062
 1546TIP3   OH226052   2.300   4.492   2.587  0.2113  0.1235  0.1360
 1546TIP3    H126053   2.382   4.510   2.633  0.7637  2.3972 -1.5575
 1546TIP3    H226054   2.328   4.442   2.510 -0.3479 -1.2146  0.7720
 1547TIP3   OH226055   3.240   4.420   4.219 -0.1980 -0.2880  0.4640
 1547TIP3    H126056   3.296   4.345   4.200  0.5046  0.5873 -1.1654
 1547TIP3    H226057   3.228   4.418   4.314  0.0825 -2.2389  0.5079
 1548TIP3   OH226058   5.385   2.090   5.006 -0.1623 -0.3911  0.2211
 1548TIP3    H126059   5.322   2.156   4.978  0.6082 -0.3922 -1.6792
 1548TIP3    H226060   5.470   2.135   5.004  0.0938 -0.7890  1.2849
 1549TIP3   OH226061   5.569   1.233   6.004  0.2071  0.3415 -0.6405
 1549TIP3    H126062   5.477   1.250   6.024  0.5342 -0.2299  1.6240
 1549TIP3    H226063   5.600   1.314   5.962 -0.9117  1.1959  0.1162
 1550TIP3   OH226064   6.122   1.273   3.777 -0.6061  0.4395 -0.0563
 1550TIP3    H126065   6.115   1.369   3.780  2.3990  0.7410  1.1444
 1550TIP3    H226066   6.134   1.253   3.684 -0.9954  1.2455 -0.2904
 1551TIP3   OH226067   1.646   1.929   1.980  0.6026 -0.3296  0.2992
 1551TIP3    H126068   1.607   1.859   1.928  1.1459 -0.0670 -0.4816
 1551TIP3    H226069   1.632   2.009   1.928  1.6257 -0.1471  0.2775
 1552TIP3   OH226070   1.081   3.394  11.591 -0.4628  0.2193 -0.0056
 1552TIP3    H126071   1.169   3.420  11.618  0.0316 -1.0910 -0.2476
 1552TIP3    H226072   1.050   3.466  11.537  0.3918  0.7862  0.2382
 1553TIP3   OH226073   5.172   3.804   0.423 -0.6970  0.0942  0.5081
 1553TIP3    H126074   5.222   3.829   0.345 -2.0124 -0.1367 -0.4422
 1553TIP3    H226075   5.195   3.713   0.438  0.1965  0.3743  0.9035
 1554TIP3   OH226076   0.108   6.743  14.026 -0.4911 -0.6257 -0.0762
 1554TIP3    H126077   0.189   6.694  14.009 -0.2250  0.2322 -1.4066
 1554TIP3    H226078   0.052   6.681  14.072  0.0230 -2.0197 -1.2522
 1555TIP3   OH226079   6.670   0.649   0.362  0.2317  0.5496 -0.2710
 1555TIP3    H126080   6.693   0.565   0.402 -0.7582 -0.1590 -1.1153
 1555TIP3    H226081   6.747   0.674   0.312  0.8929  0.6477  0.7722
 1556TIP3   OH226082   1.325   1.009   2.860  0.1029  0.3386  0.7472
 1556TIP3    H126083   1.304   1.103   2.859  0.8641  0.5150 -0.7056
 1556TIP3    H226084   1.241   0.967   2.877 -0.5567  1.2355 -0.1408
 1557TIP3   OH226085   0.017   2.476   3.624 -0.5989 -0.1777  0.5205
 1557TIP3    H126086   0.048   2.405   3.569  2.0418  1.0402  0.2385
 1557TIP3    H226087   0.031   2.445   3.714 -1.2355 -0.7092  0.4369
 1558TIP3   OH226088   0.828   2.329   2.069 -0.2614  0.4610 -0.0394
 1558TIP3    H126089   0.862   2.245   2.038 -0.4738 -0.0289  1.0160
 1558TIP3    H226090   0.788   2.309   2.153  0.8369  1.8634  0.8570
 1559TIP3   OH226091   1.274   5.883  13.822  0.0516 -0.1229 -0.3122
 1559TIP3    H126092   1.247   5.952  13.762 -1.5173  0.1919  0.6835
 1559TIP3    H226093   1.277   5.925  13.908  1.0675 -0.8318  0.0122
 1560TIP3   OH226094   0.800   4.007  12.411  0.8557  0.5148  0.1177
 1560TIP3    H126095   0.888   4.046  12.406  0.7318  0.8484  0.4747
 1560TIP3    H226096   0.796   3.972  12.500  0.9680 -0.3284 -0.2046
 1561TIP3   OH226097   3.155   5.266   2.246  0.0661  0.0260 -0.4838
 1561TIP3    H126098   3.110   5.228   2.171  0.0527  0.3287 -0.6304
 1561TIP3    H226099   3.090   5.322   2.287 -0.6030 -1.7281  0.9797
 1562TIP3   OH226100   4.073   3.553  16.709  0.2685  0.2839 -0.2915
 1562TIP3    H126101   4.168   3.541  16.709  0.1091 -1.5868  1.3573
 1562TIP3    H226102   4.039   3.476  16.755 -1.9787  1.4556  0.1820
 1563TIP3   OH226103   4.645   4.223  10.429 -0.5715 -0.1251 -0.0329
 1563TIP3    H126104   4.633   4.253  10.519 -3.4593  0.4417 -0.4887
 1563TIP3    H226105   4.712   4.281  10.393 -0.6644  0.8365  1.2507
 1564TIP3   OH226106   4.289   1.372  12.093  0.3415  0.0736  0.0146
 1564TIP3    H126107   4.330   1.458  12.091  0.8524 -0.1713 -0.2387
 1564TIP3    H226108   4.362   1.310  12.082  0.2261 -0.4577  1.7515
 1565TIP3   OH226109   5.045   2.864  12.030 -0.5014  0.1195  0.0400
 1565TIP3    H126110   4.980   2.922  12.069  1.2042  1.5549  0.8685
 1565TIP3    H226111   5.115   2.922  12.001  1.9255 -1.5391  2.1257
 1566TIP3   OH226112   5.670   6.669   3.248  0.0742  0.1495  0.9127
 1566TIP3    H126113   5.745   6.694   3.193  0.1897 -2.1840 -0.1110
 1566TIP3    H226114   5.686   6.578   3.270 -2.5757 -0.4888  0.4878
 1567TIP3   OH226115   0.774   0.975   1.698  0.4093  0.5282  0.2168
 1567TIP3    H126116   0.716   0.908   1.662  0.2621  1.5291 -1.5125
 1567TIP3    H226117   0.852   0.926   1.726  0.7784 -0.3087 -2.0448
 1568TIP3   OH226118   4.962   6.635   4.431 -0.5094  0.6968  0.5095
 1568TIP3    H126119   4.915   6.624   4.514  1.6449  0.3479  1.7501
 1568TIP3    H226120   4.978   6.729   4.425  0.8790  0.5504  1.4424
 1569TIP3   OH226121   5.066   2.235   4.116  0.3869 -0.0291  0.2414
 1569TIP3    H126122   5.085   2.329   4.104 -0.0493  0.0675  0.3010
 1569TIP3    H226123   5.094   2.195   4.034 -3.2342  0.7167 -1.5627
 1570TIP3   OH226124   3.922   0.074   2.378  0.1146  0.5835 -0.0543
 1570TIP3    H126125   3.853   0.032   2.429  1.8516 -1.0205  1.1408
 1570TIP3    H226126   3.912   0.167   2.396 -1.6451  0.3917  0.1487
 1571TIP3   OH226127   5.921   4.493  15.249  0.3292 -0.2358  0.6170
 1571TIP3    H126128   5.960   4.472  15.334  0.9860 -0.2793  0.3079
 1571TIP3    H226129   5.898   4.408  15.212  0.0486 -0.2172  0.7470
 1572TIP3   OH226130   5.196   3.887  11.644  0.9114 -0.6917 -0.4363
 1572TIP3    H126131   5.271   3.844  11.685  0.6688 -1.9926 -1.3022
 1572TIP3    H226132   5.202   3.863  11.552 -0.6611 -0.9523 -0.4894
 1573TIP3   OH226133   6.247   2.396  16.656  0.4373 -0.0585 -0.3438
 1573TIP3    H126134   6.326   2.420  16.704 -0.5442  0.0153  1.3130
 1573TIP3    H226135   6.274   2.324  16.599  1.6063 -0.2969  0.4928
 1574TIP3   OH226136   3.259   0.227   0.821  0.0110  0.1275  0.2797
 1574TIP3    H126137   3.333   0.197   0.768 -0.0677  0.7840 -0.2076
 1574TIP3    H226138   3.295   0.300   0.873 -1.2302  3.4222 -3.0502
 1575TIP3   OH226139   2.230   3.026  11.149 -0.0456  0.4644 -0.4751
 1575TIP3    H126140   2.136   3.042  11.133  0.0714  0.4154 -1.2462
 1575TIP3    H226141   2.240   2.931  11.141  0.4055  0.6329 -2.3915
 1576TIP3   OH226142   5.502   3.532  15.325  0.2050  0.2344  0.4541
 1576TIP3    H126143   5.476   3.447  15.361 -0.5161 -0.7305 -2.0981
 1576TIP3    H226144   5.420   3.580  15.315  0.4601  0.7109  0.6460
 1577TIP3   OH226145   0.420   0.971   1.231 -0.3772  0.0627  0.1084
 1577TIP3    H126146   0.426   0.903   1.163  0.3084  1.0884 -0.8833
 1577TIP3    H226147   0.383   1.047   1.186  0.1565  0.7820  0.8478
 1578TIP3   OH226148   0.915   2.510  12.465  0.5803  0.2750 -0.3503
 1578TIP3    H126149   0.942   2.418  12.464 -1.4680 -0.3848  0.1541
 1578TIP3    H226150   0.873   2.524  12.380 -0.5896  0.2366  0.2042
 1579TIP3   OH226151   5.657   0.975  11.321  0.4691 -0.1020 -0.2822
 1579TIP3    H126152   5.598   1.046  11.295 -0.9691 -1.2113 -0.1433
 1579TIP3    H226153   5.691   0.940  11.239  1.6725  1.1010 -0.3366
 1580TIP3   OH226154   5.166   0.618   1.352  0.2279 -0.6503 -0.0163
 1580TIP3    H126155   5.074   0.623   1.327  0.1784  0.5191  0.3438
 1580TIP3    H226156   5.214   0.640   1.272  0.1140  1.0987  0.3492
 1581TIP3   OH226157   3.577   1.326  11.598  0.2567 -0.0703 -0.1385
 1581TIP3    H126158   3.560   1.382  11.674 -1.6709 -0.1317 -0.4826
 1581TIP3    H226159   3.610   1.387  11.532  0.6284  0.2089  0.2890
 1582TIP3   OH226160   1.985   3.769  10.613 -0.3828 -0.2007 -0.4526
 1582TIP3    H126161   2.081   3.765  10.615 -0.4236 -3.0413  2.1930
 1582TIP3    H226162   1.962   3.745  10.523  1.3203  2.1368 -1.6197
 1583TIP3   OH226163   2.680   1.379   3.543  0.6994  0.0872 -0.1728
 1583TIP3    H126164   2.659   1.459   3.591  3.5143  1.2060 -0.5922
 1583TIP3    H226165   2.663   1.402   3.451 -2.1519 -1.1667 -0.0484
 1584TIP3   OH226166   1.229   4.154   3.691  0.2688 -0.9047 -0.0644
 1584TIP3    H126167   1.293   4.209   3.737  0.8533 -0.6994 -1.0908
 1584TIP3    H226168   1.224   4.192   3.603 -1.4457 -0.7807  0.0587
 1585TIP3   OH226169   6.059   2.647  11.937  0.5025 -0.5354  0.5475
 1585TIP3    H126170   5.973   2.663  11.897  1.0172 -0.0812 -0.4114
 1585TIP3    H226171   6.109   2.602  11.870  1.7114  1.1258  0.2763
 1586TIP3   OH226172   1.139   3.289   2.834  0.3908  0.5254 -0.0411
 1586TIP3    H126173   1.048   3.313   2.854  0.5621 -0.1148  1.7163
 1586TIP3    H226174   1.186   3.372   2.835 -0.3365  1.0394 -2.2765
 1587TIP3   OH226175   2.943   4.853   3.246 -0.0224 -0.3316  0.1010
 1587TIP3    H126176   2.977   4.776   3.291 -1.4014 -0.6257  0.7007
 1587TIP3    H226177   2.966   4.839   3.154  0.6578 -0.9412  0.3495
 1588TIP3   OH226178   6.316   4.321  12.854 -0.5463 -0.0972 -0.0700
 1588TIP3    H126179   6.281   4.349  12.770  0.1902  1.4065  0.0980
 1588TIP3    H226180   6.284   4.231  12.864 -1.5429  0.0688 -1.4390
 1589TIP3   OH226181   2.817   3.670  15.662  0.0281  0.9757 -0.1100
 1589TIP3    H126182   2.858   3.663  15.576 -1.1255 -1.0104 -0.5695
 1589TIP3    H226183   2.886   3.646  15.724  0.1277 -0.3727 -0.7139
 1590TIP3   OH226184   0.523   3.918  15.176 -0.5524  0.1203 -0.2134
 1590TIP3    H126185   0.580   3.908  15.253 -0.6748  0.0058 -0.1381
 1590TIP3    H226186   0.475   3.835  15.171  0.4919 -0.4500 -1.2511
 1591TIP3   OH226187   4.294   6.613  15.754 -0.3679  0.1433 -0.2818
 1591TIP3    H126188   4.206   6.646  15.774 -0.7537 -0.2397 -1.3070
 1591TIP3    H226189   4.322   6.570  15.835 -0.0668  2.4474  0.9344
 1592TIP3   OH226190   6.285   5.306  14.100 -0.0257 -0.1699  0.3455
 1592TIP3    H126191   6.345   5.379  14.114  0.7251 -0.7935  0.4535
 1592TIP3    H226192   6.315   5.265  14.019 -0.0766 -0.7112  0.5970
 1593TIP3   OH226193   5.704   1.718  11.923 -0.3028 -0.3742  0.1564
 1593TIP3    H126194   5.682   1.635  11.965 -1.6039  0.2608  0.8048
 1593TIP3    H226195   5.797   1.710  11.899 -0.0082 -1.4317  1.5625
 1594TIP3   OH226196   4.310   5.633   6.226 -0.0509 -0.1428 -0.1866
 1594TIP3    H126197   4.257   5.600   6.299  1.3290 -0.6369  0.6272
 1594TIP3    H226198   4.283   5.724   6.216 -0.6474 -0.2231  0.5821
 1595TIP3   OH226199   6.238   5.222   5.688  0.0629  0.0470  0.3985
 1595TIP3    H126200   6.191   5.281   5.747 -0.0324  1.8217 -1.3556
 1595TIP3    H226201   6.324   5.263   5.676 -1.0521  1.7653 -3.3301
 1596TIP3   OH226202   2.061   2.218   3.130  0.2663 -0.2808  0.0448
 1596TIP3    H126203   2.034   2.244   3.042  2.1875 -0.1476 -0.5581
 1596TIP3    H226204   2.068   2.301   3.178 -3.1225 -0.4832  1.1464
 1597TIP3   OH226205   3.589   2.618   5.508 -0.3719  0.2835 -0.2553
 1597TIP3    H126206   3.494   2.624   5.508 -0.3933  0.5044 -1.7910
 1597TIP3    H226207   3.617   2.694   5.457  0.4914 -0.9625 -1.7293
 1598TIP3   OH226208   4.851   2.030   3.049 -0.7794  0.1334  0.6704
 1598TIP3    H126209   4.901   2.049   2.969  0.3812  1.0301  1.5568
 1598TIP3    H226210   4.870   1.938   3.068 -0.0435  0.2609  0.5851
 1599TIP3   OH226211   5.074   5.239   1.148  0.4010  0.3745 -0.2843
 1599TIP3    H126212   5.046   5.194   1.227  0.2320  1.3673  0.2331
 1599TIP3    H226213   5.029   5.193   1.077 -2.2125  1.5811  0.4710
 1600TIP3   OH226214   3.304   5.483   2.147 -0.8996  0.3118 -0.5956
 1600TIP3    H126215   3.394   5.451   2.140 -1.0783  0.0213 -1.6886
 1600TIP3    H226216   3.257   5.413   2.191 -0.6472  0.3557 -0.2523
 1601TIP3   OH226217   4.640   0.211  15.980 -0.4777 -1.0880  0.1742
 1601TIP3    H126218   4.603   0.268  15.913 -0.4235 -0.8227  0.3673
 1601TIP3    H226219   4.666   0.271  16.050  3.0091 -0.8578 -1.1013
 1602TIP3   OH226220   5.400   5.461  15.395  0.2781  0.1589  0.1996
 1602TIP3    H126221   5.432   5.408  15.322 -1.0782  0.5574 -0.7202
 1602TIP3    H226222   5.392   5.549  15.358  0.4548  0.5636  1.1005
 1603TIP3   OH226223   0.457   4.865   0.260  0.1610 -0.4548  0.3643
 1603TIP3    H126224   0.503   4.803   0.316 -0.4619 -2.8320 -1.6095
 1603TIP3    H226225   0.375   4.820   0.237  0.0886  0.7181 -1.8836
 1604TIP3   OH226226   5.845   1.381  12.976  0.4438  0.5510  0.8033
 1604TIP3    H126227   5.756   1.417  12.983  0.6982  1.0575  1.6462
 1604TIP3    H226228   5.832   1.287  12.961 -0.2302  0.7493  0.0729
 1605TIP3   OH226229   5.259   0.184   1.643 -0.0989  0.0391 -0.5230
 1605TIP3    H126230   5.300   0.240   1.577  2.0463  0.3882  1.0071
 1605TIP3    H226231   5.287   0.222   1.727 -0.5786 -1.9121  0.5721
 1606TIP3   OH226232   1.887   3.253  11.893  0.3514  0.4260 -0.2121
 1606TIP3    H126233   1.845   3.168  11.886 -0.1580  0.4470  1.9656
 1606TIP3    H226234   1.886   3.288  11.804 -2.6526 -0.3139 -0.5562
 1607TIP3   OH226235   3.175   0.452  11.045  0.1451  0.0308  0.2471
 1607TIP3    H126236   3.199   0.544  11.030 -2.2160  0.3988 -1.9137
 1607TIP3    H226237   3.172   0.413  10.958 -0.3546 -1.7443  1.0015
 1608TIP3   OH226238   5.707   3.933  12.801  0.1772  0.5270  0.2806
 1608TIP3    H126239   5.722   3.982  12.882  0.1434  0.5895  0.2495
 1608TIP3    H226240   5.630   3.974  12.763  0.6327  0.9993 -0.1627
 1609TIP3   OH226241   2.048   2.296   2.477  0.5549 -0.4383 -0.2243
 1609TIP3    H126242   1.953   2.288   2.478  0.2821  2.0288 -1.2617
 1609TIP3    H226243   2.070   2.312   2.385  2.2239 -2.9039 -0.3438
 1610TIP3   OH226244   0.221   3.370   4.023  0.8643  0.5031  0.2525
 1610TIP3    H126245   0.172   3.294   4.056  0.5963  0.6648  0.2262
 1610TIP3    H226246   0.308   3.360   4.062  0.4845  0.8210  1.2107
 1611TIP3   OH226247   6.375   3.950   2.382 -0.6168 -0.1752 -0.1222
 1611TIP3    H126248   6.293   3.901   2.379 -0.8484  0.2160 -0.1676
 1611TIP3    H226249   6.366   4.007   2.458  0.0774 -0.9392  0.5564
 1612TIP3   OH226250   2.607   2.742   3.058  0.2823 -0.4055 -0.4985
 1612TIP3    H126251   2.631   2.652   3.037  1.5111  0.1160 -1.4630
 1612TIP3    H226252   2.690   2.783   3.084  0.1028  0.9012 -1.8480
 1613TIP3   OH226253   4.360   0.676  13.060  0.1601 -0.0169 -0.3723
 1613TIP3    H126254   4.365   0.689  12.965  1.7693 -1.0099 -0.4565
 1613TIP3    H226255   4.449   0.689  13.091 -0.6095  2.0448  1.3095
 1614TIP3   OH226256   5.933   5.286  15.221  0.1671  0.1035  0.3809
 1614TIP3    H126257   5.898   5.240  15.145 -1.4887  1.8489  0.0091
 1614TIP3    H226258   6.022   5.252  15.231  0.2025 -0.6615 -1.9253
 1615TIP3   OH226259   1.184   3.139   0.341  0.4528  0.3924 -0.3479
 1615TIP3    H126260   1.234   3.064   0.309 -1.7672 -0.2972 -2.5377
 1615TIP3    H226261   1.199   3.207   0.276  0.8926  1.2033  0.5839
 1616TIP3   OH226262   0.579   0.600   0.252 -0.2616 -0.0087  0.2941
 1616TIP3    H126263   0.588   0.516   0.295  2.1324 -0.3260 -0.7002
 1616TIP3    H226264   0.598   0.665   0.320 -0.9732 -0.2961  0.7759
 1617TIP3   OH226265   0.503   3.767   4.355 -0.2102 -0.2855  0.1807
 1617TIP3    H126266   0.588   3.736   4.323 -0.7096  1.5726 -3.4853
 1617TIP3    H226267   0.442   3.696   4.335 -0.0141 -0.3174 -0.3314
 1618TIP3   OH226268   3.364   4.569  12.301  0.6147  0.5235  0.0675
 1618TIP3    H126269   3.424   4.635  12.337  0.7923  1.1218 -1.2939
 1618TIP3    H226270   3.418   4.490  12.293  0.8163  0.6413  0.2300
 1619TIP3   OH226271   3.866   1.097   5.294  0.0338  0.2088 -0.4444
 1619TIP3    H126272   3.871   1.189   5.320 -1.3560  0.6519 -1.6278
 1619TIP3    H226273   3.897   1.049   5.371 -0.8507  1.5876  0.8332
 1620TIP3   OH226274   2.782   2.146  15.297  0.0089 -0.1145  0.0572
 1620TIP3    H126275   2.770   2.092  15.375 -1.3329 -0.2200 -0.1962
 1620TIP3    H226276   2.699   2.194  15.288  1.3964  2.5686  0.6846
 1621TIP3   OH226277   4.955   2.363  11.984 -0.2089  0.1546  0.0194
 1621TIP3    H126278   5.046   2.355  11.958 -0.3171  2.2507 -1.2561
 1621TIP3    H226279   4.945   2.454  12.011 -1.6259 -0.3721  1.4314
 1622TIP3   OH226280   2.685   6.697  11.708  0.5547 -0.6936  0.3339
 1622TIP3    H126281   2.660   6.658  11.792 -1.3733  1.0145  0.6499
 1622TIP3    H226282   2.760   6.752  11.728 -1.8872  2.3946  1.8400
 1623TIP3   OH226283   3.862   1.684  12.556 -0.3890 -0.2745  0.6621
 1623TIP3    H126284   3.819   1.630  12.490 -0.3771  0.6523 -0.1188
 1623TIP3    H226285   3.876   1.624  12.630  2.9580 -2.4256 -1.4491
 1624TIP3   OH226286   0.981   1.191  15.268  0.3615 -0.0489 -0.4444
 1624TIP3    H126287   1.043   1.257  15.301 -0.5056  0.5417  0.0473
 1624TIP3    H226288   0.913   1.186  15.335  0.8526 -2.1229 -0.0271
 1625TIP3   OH226289   1.879   4.136   4.326  0.1301 -0.4234  0.0953
 1625TIP3    H126290   1.967   4.152   4.359 -0.4044 -0.7745  1.7796
 1625TIP3    H226291   1.829   4.110   4.403 -1.2190 -1.1800 -0.9979
 1626TIP3   OH226292   0.775   2.125  15.343  0.7110  0.6231  0.7550
 1626TIP3    H126293   0.812   2.037  15.354 -1.1384  0.0021  2.9273
 1626TIP3    H226294   0.681   2.110  15.332  0.7261  2.1918 -3.1424
 1627TIP3   OH226295   6.188   1.844  12.784 -0.0440 -0.1114  0.0818
 1627TIP3    H126296   6.190   1.832  12.689 -1.8062 -0.2212  0.0335
 1627TIP3    H226297   6.238   1.769  12.818 -1.8205 -1.7205 -0.6750
 1628TIP3   OH226298   2.463   5.597  11.982  0.6755  0.1401 -0.0361
 1628TIP3    H126299   2.403   5.525  11.963  1.9388 -0.9062 -0.2262
 1628TIP3    H226300   2.413   5.656  12.038 -0.4737 -0.7535 -0.0743
 1629TIP3   OH226301   2.634   5.562   5.422 -0.2201  0.0197  0.5128
 1629TIP3    H126302   2.687   5.598   5.351 -1.9981 -0.2237 -1.0243
 1629TIP3    H226303   2.543   5.575   5.394 -0.9840 -1.3958  2.0874
 1630TIP3   OH226304   1.566   5.076   4.323 -0.0832  0.1869  0.2082
 1630TIP3    H126305   1.527   5.046   4.241 -0.1105 -1.3601  0.7481
 1630TIP3    H226306   1.533   5.165   4.334  0.6854  0.7975 -1.9283
 1631TIP3   OH226307   4.992   2.701  12.396  0.1394 -0.6377  0.2656
 1631TIP3    H126308   5.073   2.750  12.380  0.7677 -1.5270  0.6994
 1631TIP3    H226309   5.014   2.611  12.374 -0.8910 -0.8038 -0.1110
 1632TIP3   OH226310   4.128   5.837   5.946  0.7664  0.2927  0.2705
 1632TIP3    H126311   4.219   5.852   5.973  0.1150  3.6060  1.0127
 1632TIP3    H226312   4.083   5.811   6.027  0.5749  1.3768  0.5357
 1633TIP3   OH226313   2.426   0.456  15.546  0.4347 -0.4890 -0.2189
 1633TIP3    H126314   2.479   0.436  15.468  1.0830  0.9597 -0.1824
 1633TIP3    H226315   2.486   0.443  15.619  0.1063 -0.9075 -0.0193
 1634TIP3   OH226316   1.408   0.286   1.474  0.2421  0.6126  0.0537
 1634TIP3    H126317   1.396   0.379   1.495 -1.0022  0.2589  1.0422
 1634TIP3    H226318   1.422   0.244   1.559 -0.3564 -0.2547 -0.2639
 1635TIP3   OH226319   6.271   1.021  13.438 -0.3493 -0.3283  0.5075
 1635TIP3    H126320   6.285   1.004  13.531  2.6377 -2.2077 -0.1395
 1635TIP3    H226321   6.355   1.052  13.406 -1.1868 -0.0890 -1.6572
 1636TIP3   OH226322   4.484   1.959  13.328 -0.0523 -0.4953  0.0620
 1636TIP3    H126323   4.578   1.956  13.340  0.0055 -0.8587 -0.4528
 1636TIP3    H226324   4.453   1.872  13.355  0.0177 -1.1345 -1.8102
 1637TIP3   OH226325   5.706   3.199   2.007  0.3483 -0.0747  0.3893
 1637TIP3    H126326   5.771   3.135   1.977 -1.0271 -0.6933 -1.5147
 1637TIP3    H226327   5.624   3.149   2.010 -0.2953  1.0116  1.3531
 1638TIP3   OH226328   5.451   2.105   4.148 -0.2198 -0.3293 -0.4453
 1638TIP3    H126329   5.532   2.065   4.178  1.6000  1.7172 -2.2800
 1638TIP3    H226330   5.454   2.194   4.182 -2.6385 -0.6624  0.9161
 1639TIP3   OH226331   4.894   6.156   3.823 -0.0705  0.5546  0.3649
 1639TIP3    H126332   4.903   6.232   3.880 -0.5258 -0.5454  1.9760
 1639TIP3    H226333   4.806   6.122   3.842  0.9439 -1.7215  1.4974
 1640TIP3   OH226334   4.707   6.485  11.041 -0.0317  0.7253 -0.8557
 1640TIP3    H126335   4.734   6.478  11.133  2.8854  1.1647 -1.5705
 1640TIP3    H226336   4.613   6.502  11.045 -0.0028  0.7486  2.0365
 1641TIP3   OH226337   5.939   1.700   6.547  0.1829 -0.2373  0.2159
 1641TIP3    H126338   5.912   1.771   6.487 -2.2361 -0.9787  0.3282
 1641TIP3    H226339   5.904   1.727   6.632  0.9452 -0.6649  0.6699
 1642TIP3   OH226340   5.860   5.236  14.386  0.5380 -0.7488  0.3282
 1642TIP3    H126341   5.770   5.206  14.389  0.5887 -0.8722  0.7040
 1642TIP3    H226342   5.909   5.172  14.438  0.7560 -0.3986  0.5586
 1643TIP3   OH226343   1.090   2.752  10.377 -0.0179 -0.4452  0.0951
 1643TIP3    H126344   1.004   2.778  10.345 -0.1744  0.7528  1.3997
 1643TIP3    H226345   1.151   2.807  10.328 -0.1235 -0.0326  0.4194
 1644TIP3   OH226346   4.637   3.349  13.969  0.4409  0.0963  0.0139
 1644TIP3    H126347   4.600   3.385  14.049 -2.7790  1.3241 -1.8249
 1644TIP3    H226348   4.589   3.268  13.954 -0.5096  0.9003 -1.6175
 1645TIP3   OH226349   6.088   1.873   2.248  0.0518 -0.6227 -0.4183
 1645TIP3    H126350   6.083   1.944   2.312 -1.0896 -1.5423  0.5613
 1645TIP3    H226351   6.005   1.876   2.202 -0.6506 -2.1675  0.6274
 1646TIP3   OH226352   6.795   3.622   3.238 -0.0121  0.3374 -0.2163
 1646TIP3    H126353   6.886   3.627   3.266  0.0266 -0.6875 -0.1425
 1646TIP3    H226354   6.758   3.707   3.264  0.7269  0.4782  0.4230
 1647TIP3   OH226355   0.797   4.015   0.881  0.7573  0.6038  1.1146
 1647TIP3    H126356   0.852   3.980   0.811  1.0771  2.7577  0.1978
 1647TIP3    H226357   0.797   3.947   0.948  1.1676 -1.1652 -0.5908
 1648TIP3   OH226358   3.824   0.633   5.667  0.0410 -0.2345  0.0973
 1648TIP3    H126359   3.776   0.551   5.681  0.8134 -0.8612 -0.7885
 1648TIP3    H226360   3.810   0.652   5.574  2.2278 -0.9208 -0.4130
 1649TIP3   OH226361   5.656   3.258   0.649 -0.1282 -0.2497 -0.2378
 1649TIP3    H126362   5.626   3.275   0.560  0.5381 -0.9099 -0.6043
 1649TIP3    H226363   5.712   3.332   0.670 -0.8281  0.2454 -0.1107
 1650TIP3   OH226364   4.411   4.834   3.898 -0.3998 -0.2951  0.1732
 1650TIP3    H126365   4.423   4.755   3.951  0.5722 -0.0712  0.3113
 1650TIP3    H226366   4.467   4.820   3.822  0.1787  0.4780  0.4500
 1651TIP3   OH226367   1.829   4.679   0.649 -0.0862  0.3916  0.1325
 1651TIP3    H126368   1.763   4.735   0.689 -1.0859 -0.6442 -0.0082
 1651TIP3    H226369   1.911   4.702   0.693 -0.9717 -0.0750  2.1365
 1652TIP3   OH226370   1.814   5.038  14.292 -0.4258  0.1548  0.1694
 1652TIP3    H126371   1.901   5.052  14.254 -0.8644  0.1029 -0.8976
 1652TIP3    H226372   1.806   4.943  14.300 -0.1415  0.1892  0.8585
 1653TIP3   OH226373   4.594   4.935  13.308 -0.1646 -0.1964  0.3827
 1653TIP3    H126374   4.570   4.846  13.283  0.7813  0.2124 -2.3681
 1653TIP3    H226375   4.608   4.931  13.402 -0.9412 -2.7575  0.4485
 1654TIP3   OH226376   6.801   6.774  14.340 -0.2609  0.0455  0.4402
 1654TIP3    H126377   6.754   6.832  14.280 -1.4734 -0.9088  0.4278
 1654TIP3    H226378   6.893   6.802  14.334 -0.3405 -0.0440 -1.8816
 1655TIP3   OH226379   6.162   6.642  10.403  0.4806 -0.2517  0.2901
 1655TIP3    H126380   6.182   6.570  10.342  1.4739  0.0670  0.2245
 1655TIP3    H226381   6.125   6.598  10.479  0.3811 -0.7715 -0.0465
 1656TIP3   OH226382   0.831   0.315   4.372 -0.1909  0.3876 -0.1481
 1656TIP3    H126383   0.772   0.243   4.395 -0.2058  0.6962  0.7961
 1656TIP3    H226384   0.914   0.293   4.415 -0.2055  0.9523  0.1686
 1657TIP3   OH226385   6.508   5.030  16.027 -0.0095 -0.1967  0.1288
 1657TIP3    H126386   6.510   5.125  16.014 -0.2853 -0.4525 -2.3142
 1657TIP3    H226387   6.600   5.004  16.023  0.1313  0.0106  1.5363
 1658TIP3   OH226388   5.314   5.143  12.293 -0.1638  0.1233 -0.1100
 1658TIP3    H126389   5.382   5.128  12.359 -0.0378  0.5144 -0.1470
 1658TIP3    H226390   5.337   5.084  12.221 -1.6526 -2.1245  1.1334
 1659TIP3   OH226391   6.808   1.231  12.405 -0.2571 -0.3753  0.4550
 1659TIP3    H126392   6.812   1.180  12.324 -0.9069 -0.0200  0.1956
 1659TIP3    H226393   6.806   1.164  12.474  1.4871 -0.6713  0.2579
 1660TIP3   OH226394   4.516   4.461   6.301  0.3040 -0.4096  0.1855
 1660TIP3    H126395   4.540   4.372   6.277 -0.7615 -1.2205  1.8848
 1660TIP3    H226396   4.421   4.457   6.316 -0.5256  1.9249 -3.3248
 1661TIP3   OH226397   2.381   5.513   5.322  0.0738 -0.5708  0.8005
 1661TIP3    H126398   2.299   5.492   5.276 -0.7284  1.3653  1.2542
 1661TIP3    H226399   2.414   5.428   5.351 -0.5973 -1.6215 -1.3039
 1662TIP3   OH226400   1.458   3.985  10.654 -0.8370  0.1373 -0.1296
 1662TIP3    H126401   1.497   3.960  10.571 -2.6711 -0.4637 -0.8553
 1662TIP3    H226402   1.478   4.078  10.664  1.4764 -0.3278 -0.0149
 1663TIP3   OH226403   2.018   0.890   3.207  0.2822 -0.4103  0.4918
 1663TIP3    H126404   1.925   0.901   3.188  0.3314 -2.0557 -0.9697
 1663TIP3    H226405   2.021   0.830   3.282  0.1559 -0.7936  0.1938
 1664TIP3   OH226406   0.018   5.204  15.757  0.3091  0.6989 -0.4169
 1664TIP3    H126407  -0.015   5.144  15.823 -0.2584  1.6739  0.2021
 1664TIP3    H226408   0.061   5.147  15.693  1.0903 -0.2425  0.8944
 1665TIP3   OH226409   4.345   2.753  10.477  0.0956 -0.0075 -0.0152
 1665TIP3    H126410   4.396   2.796  10.546  0.7336  0.2865 -0.6540
 1665TIP3    H226411   4.271   2.813  10.461  0.7374  0.6456 -0.5869
 1666TIP3   OH226412   2.696   2.651   0.755  0.0923 -0.3535 -0.6548
 1666TIP3    H126413   2.746   2.730   0.733  0.2230 -0.1439  0.3347
 1666TIP3    H226414   2.757   2.579   0.739 -0.0194 -0.2615 -1.5425
 1667TIP3   OH226415   5.932   6.524   4.972  0.3357 -0.4402  0.7896
 1667TIP3    H126416   5.890   6.610   4.963  0.3634 -0.2901  1.9658
 1667TIP3    H226417   6.001   6.525   4.906  0.6558  0.6477  1.1212
 1668TIP3   OH226418   4.717   2.700   2.470 -0.2801  0.3178  0.4213
 1668TIP3    H126419   4.675   2.774   2.427  0.2408  0.4272  0.1006
 1668TIP3    H226420   4.766   2.656   2.401 -0.0431  0.0638  0.7455
 1669TIP3   OH226421   0.828   0.804  16.671 -0.5929 -0.3827  0.1687
 1669TIP3    H126422   0.864   0.812  16.760  0.7479  0.9225 -0.4479
 1669TIP3    H226423   0.735   0.827  16.682  0.0507  2.3314  0.9214
 1670TIP3   OH226424   2.582   6.785  13.125  0.7553  0.5047 -0.0960
 1670TIP3    H126425   2.501   6.785  13.177  0.3751 -0.7287 -0.6651
 1670TIP3    H226426   2.629   6.863  13.156 -1.0582  1.8069 -0.3930
 1671TIP3   OH226427   6.248   2.943   0.243 -0.3075  0.2008  0.8335
 1671TIP3    H126428   6.294   3.026   0.228  1.4592 -1.0875 -1.7796
 1671TIP3    H226429   6.311   2.889   0.291  0.3249 -0.9863 -1.2173
 1672TIP3   OH226430   1.950   3.865   6.143  0.1079 -0.8484 -0.4177
 1672TIP3    H126431   2.030   3.859   6.194  1.6528  0.0502 -2.5563
 1672TIP3    H226432   1.881   3.835   6.202  1.9080 -1.0553  1.7131
 1673TIP3   OH226433   2.980   1.787   0.025 -0.0874 -0.5609  0.0327
 1673TIP3    H126434   3.044   1.820  -0.038  0.7231  0.5782  1.4039
 1673TIP3    H226435   2.897   1.788  -0.023  0.8304 -1.9220 -1.7268
 1674TIP3   OH226436   5.377   3.297  15.433  0.5787 -0.3000 -0.1449
 1674TIP3    H126437   5.335   3.238  15.371  0.1671  0.0871 -0.2445
 1674TIP3    H226438   5.311   3.313  15.500  0.8004 -0.2147  0.0560
 1675TIP3   OH226439   5.946   1.739   1.814 -0.2300  0.2112  0.0710
 1675TIP3    H126440   5.906   1.710   1.896 -1.5666  0.6808 -0.3916
 1675TIP3    H226441   5.878   1.790   1.771  0.7181  0.6227 -0.9855
 1676TIP3   OH226442   1.183   1.307   2.266  0.1401  0.2682 -0.6248
 1676TIP3    H126443   1.168   1.387   2.317 -1.9838 -0.3408 -0.1983
 1676TIP3    H226444   1.257   1.329   2.210 -0.0629  2.3785 -0.1845
 1677TIP3   OH226445   2.283   4.559   6.081  0.5052 -0.5817 -0.2573
 1677TIP3    H126446   2.282   4.650   6.052  0.6192 -0.6534 -0.4848
 1677TIP3    H226447   2.309   4.509   6.004  0.5792 -0.7943 -0.0962
 1678TIP3   OH226448   1.245   6.580  13.215  0.2383 -0.0918  0.6252
 1678TIP3    H126449   1.219   6.571  13.124 -0.3774 -1.3177  0.8943
 1678TIP3    H226450   1.166   6.556  13.265  0.4405  0.9504  1.4833
 1679TIP3   OH226451   3.322   5.673   1.159 -0.2610 -0.3907 -0.2763
 1679TIP3    H126452   3.406   5.657   1.202 -0.2953 -2.1445 -0.7660
 1679TIP3    H226453   3.333   5.757   1.115  0.9477 -0.1960  0.3563
 1680TIP3   OH226454   0.171   6.674  13.360 -0.3585  0.1215  0.2550
 1680TIP3    H126455   0.230   6.749  13.364 -1.9137  1.4035 -0.0360
 1680TIP3    H226456   0.191   6.623  13.439  1.4552  0.2284 -0.0914
 1681TIP3   OH226457   2.929   4.595   2.126  0.5456 -0.0443 -0.1807
 1681TIP3    H126458   2.931   4.506   2.091  0.4885 -0.2798  0.4057
 1681TIP3    H226459   2.838   4.610   2.151  0.6899 -0.0917  0.3912
 1682TIP3   OH226460   0.948   0.947   4.751  0.1136 -0.3535 -0.3075
 1682TIP3    H126461   0.854   0.949   4.768  0.3330  0.2305  0.9501
 1682TIP3    H226462   0.955   0.963   4.657 -1.0241  0.0847 -0.3366
 1683TIP3   OH226463   2.647   1.990  15.476  0.1248 -0.3226 -0.2577
 1683TIP3    H126464   2.690   2.018  15.558  2.2641 -2.4103 -0.5582
 1683TIP3    H226465   2.555   1.977  15.500  0.9037 -1.9858  2.1726
 1684TIP3   OH226466   3.150   5.291  16.421 -0.3847 -0.1960 -0.5718
 1684TIP3    H126467   3.182   5.228  16.486  0.1488 -1.2344 -1.8116
 1684TIP3    H226468   3.214   5.362  16.424  0.3299 -0.8076 -0.8045
 1685TIP3   OH226469   1.039   5.773  13.631  0.0225 -0.0597  0.3123
 1685TIP3    H126470   1.028   5.779  13.536 -1.3450  1.4801  0.5179
 1685TIP3    H226471   0.970   5.829  13.667  0.0704 -1.1276  2.2502
 1686TIP3   OH226472   5.355   0.393  15.361 -0.2593  0.4286  0.9296
 1686TIP3    H126473   5.373   0.323  15.423 -0.4117  0.2440  0.7692
 1686TIP3    H226474   5.421   0.459  15.379 -0.0835  0.2219  1.0513
 1687TIP3   OH226475   4.744   1.863   3.571 -0.3554 -0.3027 -0.1288
 1687TIP3    H126476   4.788   1.804   3.510 -0.7485 -1.5603  0.7519
 1687TIP3    H226477   4.652   1.856   3.549 -0.4862 -0.6551  0.4901
 1688TIP3   OH226478   2.024   4.805   2.276 -0.2688 -0.7021  0.5353
 1688TIP3    H126479   2.002   4.870   2.343  0.9107  0.4758 -0.1666
 1688TIP3    H226480   2.120   4.806   2.272 -0.2999 -0.8386 -1.0498
 1689TIP3   OH226481   0.145   4.406   4.547 -0.1735 -0.5057  0.8060
 1689TIP3    H126482   0.141   4.385   4.640 -0.7370 -1.3058  0.6097
 1689TIP3    H226483   0.054   4.405   4.518 -0.0617  0.4557  0.3959
 1690TIP3   OH226484   5.853   0.082  11.747  0.6488  0.2263 -0.3101
 1690TIP3    H126485   5.819   0.126  11.826  2.5381  0.6394  0.3131
 1690TIP3    H226486   5.877  -0.006  11.777 -0.2462 -0.2219 -0.8564
 1691TIP3   OH226487   2.316   1.184   3.851  0.0952  0.1846  0.4515
 1691TIP3    H126488   2.237   1.143   3.885 -0.6191  2.8843  2.3389
 1691TIP3    H226489   2.284   1.256   3.797  1.2415  1.0928  0.9475
 1692TIP3   OH226490   0.254   2.545  15.634 -0.2003 -0.7479  0.5080
 1692TIP3    H126491   0.342   2.547  15.596  0.2878  1.5988  1.6269
 1692TIP3    H226492   0.196   2.552  15.558  0.4541 -3.0386 -0.3199
 1693TIP3   OH226493   2.866   2.178   5.358  0.2406 -0.7347  0.7742
 1693TIP3    H126494   2.837   2.120   5.288 -1.2788  0.4784  0.3323
 1693TIP3    H226495   2.886   2.260   5.314 -0.9350  0.1095  1.7563
 1694TIP3   OH226496   5.271   5.766  15.589 -0.2999 -0.2937  0.1261
 1694TIP3    H126497   5.263   5.785  15.496  0.9985  0.5903  0.1563
 1694TIP3    H226498   5.201   5.817  15.630 -1.3449 -1.2619 -0.4042
 1695TIP3   OH226499   2.063   4.360   5.650  0.2277 -0.0866 -0.1061
 1695TIP3    H126500   2.080   4.309   5.730  0.5341  1.6461  0.9725
 1695TIP3    H226501   2.149   4.394   5.625 -0.2442  1.5110  0.3456
 1696TIP3   OH226502   5.837   3.619   0.924 -0.4536 -0.4321  0.2104
 1696TIP3    H126503   5.826   3.702   0.878  1.2061 -0.1566  0.2533
 1696TIP3    H226504   5.815   3.639   1.015 -3.0003 -0.8013 -0.2401
 1697TIP3   OH226505   1.285   3.151   5.776  0.1651  0.3644  0.4496
 1697TIP3    H126506   1.317   3.178   5.690  1.8974 -1.5559  0.4153
 1697TIP3    H226507   1.192   3.135   5.762  0.4472 -0.0841 -1.1226
 1698TIP3   OH226508   2.912   6.153   3.937 -0.6104 -0.3803  1.1197
 1698TIP3    H126509   2.957   6.238   3.929  1.3675 -1.3917  0.9894
 1698TIP3    H226510   2.885   6.132   3.848  2.4355 -1.6651  0.3816
 1699TIP3   OH226511   0.271   0.944   0.059  0.2605  0.0598  0.1642
 1699TIP3    H126512   0.272   0.958  -0.036 -0.2854  1.3466  0.3288
 1699TIP3    H226513   0.184   0.908   0.077  1.1024 -2.2880 -0.0517
 1700TIP3   OH226514   2.555   3.543  15.713  0.7318  0.3039  0.5683
 1700TIP3    H126515   2.563   3.459  15.667  0.8120  0.1547  0.8499
 1700TIP3    H226516   2.623   3.598  15.676 -1.6893  1.5912 -2.4413
 1701TIP3   OH226517   1.093   2.946   4.101  0.0696  0.0643  0.0175
 1701TIP3    H126518   1.049   3.029   4.119  0.6837 -0.0032  2.0969
 1701TIP3    H226519   1.026   2.893   4.059 -1.9380  0.0372  2.8991
 1702TIP3   OH226520   5.585   2.822   2.910 -0.3427 -0.4087  0.3744
 1702TIP3    H126521   5.591   2.916   2.931  0.1905 -0.6924  1.5347
 1702TIP3    H226522   5.676   2.792   2.907 -0.5557 -1.5872  3.3768
 1703TIP3   OH226523   3.661   2.323  14.517 -0.0185 -0.1813  0.1727
 1703TIP3    H126524   3.628   2.333  14.606 -0.4606 -0.0014 -0.0069
 1703TIP3    H226525   3.603   2.378  14.464 -0.8417 -1.6045 -0.4599
 1704TIP3   OH226526   4.401   0.555   3.516 -0.0078 -0.4163 -0.2779
 1704TIP3    H126527   4.332   0.612   3.482 -0.5645 -0.2514  1.0515
 1704TIP3    H226528   4.437   0.603   3.591  0.7516 -1.0185 -0.2439
 1705TIP3   OH226529   3.440   1.009  16.741  0.2235 -0.3608  0.1999
 1705TIP3    H126530   3.395   0.982  16.662 -0.6340 -0.1310  0.6038
 1705TIP3    H226531   3.401   1.093  16.764 -1.4471 -1.6219  2.3445
 1706TIP3   OH226532   3.648   4.223  14.531 -0.6230  0.5337 -0.4854
 1706TIP3    H126533   3.618   4.167  14.603  0.9693 -0.4673 -0.5548
 1706TIP3    H226534   3.742   4.209  14.528 -0.5435  1.2770 -2.1854
 1707TIP3   OH226535   3.640   3.515  16.253  0.3157 -0.3237 -0.0237
 1707TIP3    H126536   3.582   3.581  16.216  0.9242 -0.7214 -1.7493
 1707TIP3    H226537   3.727   3.538  16.223  0.9542 -0.2857  1.7587
 1708TIP3   OH226538   6.094   2.728   2.027  0.3814  0.3886  0.8622
 1708TIP3    H126539   6.047   2.729   2.110 -0.3644 -1.7911  0.5139
 1708TIP3    H226540   6.068   2.646   1.985  1.2410  1.1238 -1.2457
 1709TIP3   OH226541   3.987   6.682  11.464  0.0544  0.6841 -0.5510
 1709TIP3    H126542   3.965   6.656  11.554 -1.4291  1.1606 -0.7503
 1709TIP3    H226543   4.032   6.766  11.473 -0.0201  0.6927 -0.2557
 1710TIP3   OH226544   4.410   2.679   2.602  0.2014 -0.2513  0.2691
 1710TIP3    H126545   4.493   2.724   2.589  0.4977 -0.6015  0.8874
 1710TIP3    H226546   4.387   2.697   2.693 -1.0869  0.9505 -0.2555
 1711TIP3   OH226547   4.541   5.642  11.744  0.5076 -0.0933  0.4399
 1711TIP3    H126548   4.503   5.562  11.781  0.4695  0.3448  1.3660
 1711TIP3    H226549   4.554   5.700  11.819 -1.7588  1.7404 -0.4544
 1712TIP3   OH226550   5.567   0.168   2.910  0.1625 -0.4471  0.1397
 1712TIP3    H126551   5.477   0.160   2.943  0.2840 -1.2028  0.3242
 1712TIP3    H226552   5.570   0.106   2.837  0.7264 -0.9398  0.5733
 1713TIP3   OH226553   1.365   2.665  14.262  0.0506 -0.4488  0.3518
 1713TIP3    H126554   1.294   2.728  14.250 -1.0418 -1.6040  0.6729
 1713TIP3    H226555   1.439   2.719  14.291 -0.3643  0.9130 -0.9767
 1714TIP3   OH226556   6.633   4.524   1.692 -0.3953 -0.5372 -0.3051
 1714TIP3    H126557   6.543   4.494   1.699  0.1367 -2.1826 -0.0250
 1714TIP3    H226558   6.675   4.493   1.772  0.4711  0.0470 -0.5180
 1715TIP3   OH226559   0.106   4.790   3.829  0.2504  0.0996  0.4411
 1715TIP3    H126560   0.136   4.718   3.774 -0.4262 -1.1999  1.7176
 1715TIP3    H226561   0.117   4.758   3.919  0.0950  1.6604  1.0470
 1716TIP3   OH226562   2.613   1.147   4.859  0.0589  0.4834  0.3749
 1716TIP3    H126563   2.527   1.188   4.849  0.4242  1.0701 -0.4313
 1716TIP3    H226564   2.675   1.219   4.845  0.6939  0.6872  3.4853
 1717TIP3   OH226565   1.240   6.086  12.745  0.4261  0.2389 -0.0011
 1717TIP3    H126566   1.227   6.173  12.782 -2.0384  0.5066 -1.2927
 1717TIP3    H226567   1.325   6.091  12.701 -0.1449  2.3754 -0.9972
 1718TIP3   OH226568   1.080   2.061   6.669 -0.1931  0.2757  0.2057
 1718TIP3    H126569   1.132   2.140   6.661 -0.4372  0.6547  2.0561
 1718TIP3    H226570   1.127   2.006   6.732 -1.3591  0.0929  0.9532
 1719TIP3   OH226571   2.486   0.617   3.163 -0.6807 -0.2566  0.4011
 1719TIP3    H126572   2.531   0.674   3.225  0.6564 -0.0516 -0.7225
 1719TIP3    H226573   2.544   0.541   3.154  0.0067  0.4636 -1.8236
 1720TIP3   OH226574   0.166   1.712  15.566 -0.0039  0.1402 -0.4064
 1720TIP3    H126575   0.134   1.802  15.571  0.0740  0.2695 -1.8059
 1720TIP3    H226576   0.123   1.676  15.488  2.3432 -0.0411 -1.7131
 1721TIP3   OH226577   0.050   4.950  10.181  0.4144 -0.3728  0.2343
 1721TIP3    H126578   0.085   4.920  10.097  1.4579 -0.6546  0.7557
 1721TIP3    H226579   0.113   5.016  10.211 -0.6555  0.7297  0.1737
 1722TIP3   OH226580   2.394   6.400  14.380  0.4987 -0.1173 -0.3791
 1722TIP3    H126581   2.417   6.427  14.469  0.1631 -0.3944 -0.2066
 1722TIP3    H226582   2.423   6.473  14.325 -2.0233  1.4967  0.2443
 1723TIP3   OH226583   1.351   4.626  13.910  0.7214  0.3424 -0.1568
 1723TIP3    H126584   1.413   4.575  13.858  2.5552  2.8434 -0.6101
 1723TIP3    H226585   1.406   4.678  13.969 -1.0998  0.8353  1.2188
 1724TIP3   OH226586   2.713   4.565  16.669 -0.3569 -0.7116  0.4113
 1724TIP3    H126587   2.778   4.498  16.685  0.6472  0.2671  0.5569
 1724TIP3    H226588   2.668   4.536  16.589  1.6824 -0.3824 -0.9263
 1725TIP3   OH226589   6.817   4.684   4.802  0.4302  0.4199  0.4036
 1725TIP3    H126590   6.911   4.672   4.787  0.1927 -1.1802 -0.0102
 1725TIP3    H226591   6.790   4.749   4.738  1.2530  0.9008  0.5321
 1726TIP3   OH226592   5.496   5.361  10.373 -0.0332 -0.2176  0.0268
 1726TIP3    H126593   5.541   5.314  10.303  2.2038  1.6169  0.1229
 1726TIP3    H226594   5.507   5.306  10.450 -0.1555 -0.9763 -0.4889
 1727TIP3   OH226595   2.665   1.452   2.287 -0.3804  0.3408 -0.3333
 1727TIP3    H126596   2.592   1.394   2.307 -0.6952  1.0512  0.6946
 1727TIP3    H226597   2.640   1.536   2.326  0.5493  0.8637 -0.8167
 1728TIP3   OH226598   2.170   3.397  16.452 -0.1946 -0.8868  0.8686
 1728TIP3    H126599   2.081   3.363  16.447 -0.3597 -0.3146 -1.2434
 1728TIP3    H226600   2.223   3.334  16.403  0.2350 -0.3185  0.5854
 1729TIP3   OH226601   6.192   6.575  16.397 -0.2141 -0.0906 -0.0408
 1729TIP3    H126602   6.143   6.601  16.319  1.2025  0.5402 -0.7578
 1729TIP3    H226603   6.166   6.638  16.464  0.6929  1.1563 -0.8298
 1730TIP3   OH226604   4.453   5.849  14.864 -0.3789  0.5819 -0.3144
 1730TIP3    H126605   4.479   5.758  14.877 -2.9861 -0.6311 -2.4157
 1730TIP3    H226606   4.394   5.867  14.937 -0.1101  0.4638 -0.0662
 1731TIP3   OH226607   0.239   5.287  12.549  0.4413 -0.6829 -0.3666
 1731TIP3    H126608   0.279   5.371  12.573  0.8023 -1.3016  1.3444
 1731TIP3    H226609   0.154   5.287  12.594  0.6237 -1.4004 -0.0105
 1732TIP3   OH226610   5.433   1.414  11.065  0.1364 -0.1460  0.3309
 1732TIP3    H126611   5.424   1.388  10.973 -1.0890 -0.2654  0.4696
 1732TIP3    H226612   5.414   1.508  11.065  0.7291 -0.0235  0.3831
 1733TIP3   OH226613   4.788   5.105   5.276 -0.8005 -0.1697  0.1584
 1733TIP3    H126614   4.706   5.057   5.270 -0.1268 -1.3356  0.0204
 1733TIP3    H226615   4.802   5.142   5.189 -1.6454  0.8666  0.4382
 1734TIP3   OH226616   4.054   4.954  13.596 -0.1055 -0.6326 -0.1378
 1734TIP3    H126617   4.058   5.024  13.660  0.7645 -0.4495 -0.3791
 1734TIP3    H226618   3.974   4.906  13.618 -0.1138 -0.2430  0.7260
 1735TIP3   OH226619   6.104   3.012  16.878  0.0922  0.0123 -0.2067
 1735TIP3    H126620   6.109   2.938  16.940  1.3559  0.3667  0.1266
 1735TIP3    H226621   6.166   3.076  16.912  0.5545  0.3645 -1.6642
 1736TIP3   OH226622   6.584   2.468   2.729  0.9185  0.6240 -0.4694
 1736TIP3    H126623   6.558   2.405   2.662 -0.5154 -0.0727  0.6941
 1736TIP3    H226624   6.545   2.551   2.701 -0.3147  0.1725 -0.1383
 1737TIP3   OH226625   2.991   4.480  14.375 -0.1480 -0.0076 -0.3140
 1737TIP3    H126626   3.018   4.563  14.337 -1.4430  0.3746 -0.4330
 1737TIP3    H226627   3.040   4.473  14.456 -0.1793  0.9709 -0.2080
 1738TIP3   OH226628   4.101   4.159   3.038  0.2145  0.8661 -0.0965
 1738TIP3    H126629   4.082   4.168   2.944  0.1339  0.9263 -0.0743
 1738TIP3    H226630   4.197   4.162   3.044  0.3220 -0.8080 -0.3624
 1739TIP3   OH226631   0.718   6.551  15.233  0.2096  0.1883 -0.0354
 1739TIP3    H126632   0.803   6.587  15.259  0.4103 -1.1193  1.3440
 1739TIP3    H226633   0.738   6.462  15.204 -0.7661 -0.5846  1.4701
 1740TIP3   OH226634   2.602   6.500   3.635 -0.5651  0.1870 -0.4016
 1740TIP3    H126635   2.618   6.409   3.612  1.1530  0.0397  1.1297
 1740TIP3    H226636   2.674   6.548   3.596 -0.2111  0.5577  0.6675
 1741TIP3   OH226637   5.958   5.576  10.787  0.2768 -0.0054  0.3989
 1741TIP3    H126638   5.975   5.610  10.699 -0.3823 -2.5261 -0.8109
 1741TIP3    H226639   5.863   5.567  10.792  0.4014 -1.5890  0.6117
 1742TIP3   OH226640   0.161   2.484  12.534 -0.2003 -0.2099 -0.2874
 1742TIP3    H126641   0.172   2.576  12.557  1.3865 -0.5835  0.6553
 1742TIP3    H226642   0.251   2.450  12.531 -0.7831 -1.8275 -0.1873
 1743TIP3   OH226643   2.393   3.729   3.133 -0.4805  0.1466  0.2816
 1743TIP3    H126644   2.421   3.753   3.044 -1.7237 -0.6288 -0.3479
 1743TIP3    H226645   2.308   3.773   3.144 -0.4831 -0.0188  0.9658
 1744TIP3   OH226646   3.973   0.613   5.920 -0.1130 -1.0704 -0.3207
 1744TIP3    H126647   3.923   0.543   5.962  0.7709 -1.6561 -0.2168
 1744TIP3    H226648   3.927   0.629   5.837 -0.2662 -1.8422 -0.3964
 1745TIP3   OH226649   4.976   0.349   1.132 -0.3557 -0.2750  0.2482
 1745TIP3    H126650   4.982   0.443   1.148 -0.4728 -0.4366  1.3100
 1745TIP3    H226651   4.925   0.342   1.051 -0.1383  0.5686  0.0189
 1746TIP3   OH226652   4.889   4.475  13.971  0.1050  0.4068 -0.0107
 1746TIP3    H126653   4.836   4.412  13.923  1.2143 -0.6816  0.1558
 1746TIP3    H226654   4.953   4.422  14.018  0.5142  1.6066  0.8300
 1747TIP3   OH226655   5.100   1.200   5.186 -0.3699  0.2273  0.5492
 1747TIP3    H126656   5.159   1.275   5.192  1.1323 -0.7160 -1.3729
 1747TIP3    H226657   5.117   1.150   5.267 -0.5421  1.3352  1.2887
 1748TIP3   OH226658   5.529   1.178  11.181  0.3236 -0.6325 -0.9512
 1748TIP3    H126659   5.496   1.268  11.180  1.6526 -0.1185 -1.7436
 1748TIP3    H226660   5.457   1.127  11.143 -1.7756 -0.4898  2.4521
 1749TIP3   OH226661   4.673   5.993   3.873  0.1009  0.2037  0.6248
 1749TIP3    H126662   4.614   6.053   3.918  0.3394  0.5648  0.4576
 1749TIP3    H226663   4.619   5.952   3.805  0.0534  0.5673  0.4419
 1750TIP3   OH226664   2.484   5.138  15.084  0.0457  0.2138 -0.4634
 1750TIP3    H126665   2.412   5.178  15.133 -0.1460 -0.1375 -0.4546
 1750TIP3    H226666   2.562   5.185  15.112 -0.1027  0.2075 -0.0387
 1751TIP3   OH226667   3.225   5.794  16.423  0.2980 -0.6700 -0.4966
 1751TIP3    H126668   3.182   5.709  16.415  0.1969 -0.6800  0.0726
 1751TIP3    H226669   3.267   5.809  16.338 -1.7541 -0.1461 -1.4653
 1752TIP3   OH226670   3.106   3.407  10.721  0.5902 -0.1731  0.2548
 1752TIP3    H126671   3.145   3.494  10.713  3.2976 -1.1938  1.0415
 1752TIP3    H226672   3.013   3.423  10.733  1.0312  2.6195  0.6377
 1753TIP3   OH226673   3.837   1.780   3.184  0.3591  0.0741  0.2250
 1753TIP3    H126674   3.907   1.715   3.187 -0.0389 -0.3247  2.3818
 1753TIP3    H226675   3.792   1.764   3.101  1.0127 -1.6115  0.1661
 1754TIP3   OH226676   5.437   3.758  11.204  0.3799 -0.1243 -0.4299
 1754TIP3    H126677   5.491   3.733  11.280 -0.2345 -0.4164 -0.0813
 1754TIP3    H226678   5.439   3.682  11.147  0.2937 -0.1541 -0.3928
 1755TIP3   OH226679   2.723   3.284  13.061  0.0376  0.2920 -0.5212
 1755TIP3    H126680   2.792   3.268  13.126 -0.5424 -0.1354  0.0064
 1755TIP3    H226681   2.753   3.238  12.983  0.3552  0.1059 -0.2944
 1756TIP3   OH226682   0.238   4.860   3.347  0.2097  0.6117  0.0801
 1756TIP3    H126683   0.196   4.775   3.362 -0.7892  0.8908 -0.9768
 1756TIP3    H226684   0.199   4.917   3.413  0.3977  0.4014  0.3744
 1757TIP3   OH226685   4.185   4.362  13.391 -0.4240  0.1621  0.1093
 1757TIP3    H126686   4.225   4.442  13.358  2.3771  0.2766  3.2103
 1757TIP3    H226687   4.247   4.292  13.371 -1.4618 -0.7533 -0.0568
 1758TIP3   OH226688   1.989   0.689  11.954 -0.2469  0.4131 -0.4627
 1758TIP3    H126689   2.016   0.692  12.046 -1.6059  1.7386 -0.0647
 1758TIP3    H226690   2.029   0.767  11.915  3.3277 -1.8965 -1.9957
 1759TIP3   OH226691   4.651   5.171  13.119  0.7043 -0.4816  0.1092
 1759TIP3    H126692   4.670   5.082  13.148  0.8556 -0.4285  0.1737
 1759TIP3    H226693   4.671   5.172  13.026  1.5474 -0.2810  0.2806
 1760TIP3   OH226694   1.454   3.634  16.711 -0.3722  0.3987  0.5655
 1760TIP3    H126695   1.428   3.657  16.621  0.0987 -1.4397 -0.0808
 1760TIP3    H226696   1.545   3.661  16.717 -0.4698  0.7293  0.5640
 1761TIP3   OH226697   4.949   6.409   3.635 -0.0841  0.2493 -0.1080
 1761TIP3    H126698   4.926   6.494   3.597  1.5905  1.9831  2.4286
 1761TIP3    H226699   4.905   6.409   3.720 -1.2519 -2.1467 -0.6289
 1762TIP3   OH226700   4.562   4.565  12.775 -0.4726  0.1415 -0.7357
 1762TIP3    H126701   4.579   4.609  12.858 -0.1891 -0.6516 -0.3654
 1762TIP3    H226702   4.485   4.609  12.739 -1.7346 -0.7104  0.8176
 1763TIP3   OH226703   6.346   1.591  15.050  0.4559  0.2291 -0.3806
 1763TIP3    H126704   6.412   1.521  15.043  1.0993  0.9924 -2.9832
 1763TIP3    H226705   6.265   1.550  15.021 -0.0004 -0.3756  1.6349
 1764TIP3   OH226706   1.591   0.186  10.781 -0.0271 -0.2148  0.1322
 1764TIP3    H126707   1.528   0.208  10.712  0.9778  1.4881 -0.3013
 1764TIP3    H226708   1.630   0.103  10.752  0.0541  0.2412 -1.1204
 1765TIP3   OH226709   6.114   4.918   0.266 -0.6181 -0.0841 -0.4197
 1765TIP3    H126710   6.030   4.944   0.228 -0.3165  1.6370 -0.0087
 1765TIP3    H226711   6.136   4.835   0.223 -1.8188  0.1904 -1.6133
 1766TIP3   OH226712   6.391   0.216  14.258 -0.2033 -0.2846 -0.1722
 1766TIP3    H126713   6.317   0.172  14.301  0.9686 -0.6229  1.6110
 1766TIP3    H226714   6.468   0.182  14.303  1.0499  0.1987 -1.8673
 1767TIP3   OH226715   5.787   0.265  14.954  0.2037  0.6388  0.3591
 1767TIP3    H126716   5.777   0.204  14.880 -3.8433 -0.7205  1.7161
 1767TIP3    H226717   5.806   0.208  15.029  1.7351  1.7290  0.8512
 1768TIP3   OH226718   5.128   2.777  12.879 -0.4967 -0.1705 -0.5237
 1768TIP3    H126719   5.088   2.827  12.807 -0.9265  0.8096  0.3689
 1768TIP3    H226720   5.221   2.799  12.874 -0.3936 -0.7092 -1.2326
 1769TIP3   OH226721   1.972   1.307  13.296 -0.8007  0.6897 -0.5325
 1769TIP3    H126722   1.888   1.301  13.251  0.2759  2.4627 -2.9837
 1769TIP3    H226723   2.013   1.222  13.281 -1.8767 -0.0024  0.2405
 1770TIP3   OH226724   6.359   4.829  16.106 -0.0883  0.0344  0.1713
 1770TIP3    H126725   6.417   4.905  16.096  0.7236 -0.5202  0.5880
 1770TIP3    H226726   6.274   4.867  16.129 -0.1373  0.9175 -1.3267
 1771TIP3   OH226727   4.593   2.036  14.725  0.4580 -0.7256  0.0173
 1771TIP3    H126728   4.678   2.046  14.768  0.9849 -1.4711 -0.8201
 1771TIP3    H226729   4.566   1.947  14.747 -0.0259 -0.5513  0.1294
 1772TIP3   OH226730   6.268   6.254  11.542 -0.1622  0.4461  0.8649
 1772TIP3    H126731   6.207   6.327  11.557  0.2748  0.9202  0.3236
 1772TIP3    H226732   6.211   6.180  11.522 -0.6390  0.4892  1.9493
 1773TIP3   OH226733   1.787   6.794   6.431  0.1222  0.1036 -0.4518
 1773TIP3    H126734   1.728   6.753   6.367 -0.6123 -0.9119  0.8201
 1773TIP3    H226735   1.730   6.848   6.485  0.3959 -0.5908  0.5595
 1774TIP3   OH226736   0.614   4.947  13.090 -0.0256  0.2004  0.8454
 1774TIP3    H126737   0.640   4.906  13.007 -0.7440 -0.0174  0.7207
 1774TIP3    H226738   0.663   4.899  13.156  0.9609  0.7202  0.5199
 1775TIP3   OH226739   2.388   4.837   3.414  0.1018  0.1924  0.0048
 1775TIP3    H126740   2.458   4.815   3.353  0.3750  0.8567  0.0720
 1775TIP3    H226741   2.380   4.932   3.408 -0.9964  0.0985 -0.2254
 1776TIP3   OH226742   2.217   1.586   0.117  0.3335  0.3050 -0.1634
 1776TIP3    H126743   2.212   1.612   0.025  0.7697 -2.8669 -1.2313
 1776TIP3    H226744   2.309   1.559   0.129  0.4872  1.4213  1.4665
 1777TIP3   OH226745   1.736   6.576  11.199 -0.2443  0.3170 -0.5457
 1777TIP3    H126746   1.663   6.514  11.196 -0.6393  0.5421  2.1403
 1777TIP3    H226747   1.695   6.659  11.227  0.9829  0.4706  0.9173
 1778TIP3   OH226748   0.645   2.848  13.595 -0.4399 -0.2483  0.3063
 1778TIP3    H126749   0.707   2.908  13.637 -2.1612  0.8272  1.4209
 1778TIP3    H226750   0.693   2.813  13.520  2.1517 -0.8614  2.1005
 1779TIP3   OH226751   5.572   0.635  15.829 -0.3643  0.5304  0.5582
 1779TIP3    H126752   5.523   0.690  15.768  1.3064 -0.4569 -1.8496
 1779TIP3    H226753   5.664   0.651  15.807  0.2197 -1.8391  0.9664
 1780TIP3   OH226754   5.554   5.072  15.348  0.0528 -0.1492 -0.4805
 1780TIP3    H126755   5.626   5.052  15.289  1.8291  0.0787  1.4768
 1780TIP3    H226756   5.514   5.151  15.312 -0.3753 -1.2567 -2.5476
 1781TIP3   OH226757   5.571   2.229  16.448 -0.0435  0.1540 -0.0966
 1781TIP3    H126758   5.661   2.203  16.465 -0.4174 -0.4062  1.1903
 1781TIP3    H226759   5.559   2.215  16.354  0.9878 -0.4806 -0.1488
 1782TIP3   OH226760   3.346   6.277   1.450 -0.6595  0.0667  0.2291
 1782TIP3    H126761   3.283   6.216   1.488 -1.6761 -0.3471 -1.9157
 1782TIP3    H226762   3.298   6.360   1.443 -0.2054  0.3676  0.6117
 1783TIP3   OH226763   1.251   1.175  16.495 -0.3900  0.1714  0.0234
 1783TIP3    H126764   1.182   1.124  16.538 -0.3430  0.1150  0.0328
 1783TIP3    H226765   1.308   1.203  16.566  0.4338 -1.0529 -0.1199
 1784TIP3   OH226766   5.540   5.609   1.915 -0.0680 -0.3726  0.4678
 1784TIP3    H126767   5.533   5.514   1.904 -0.4383 -0.4659  1.4346
 1784TIP3    H226768   5.598   5.620   1.990  1.1372  0.2095 -0.5076
 1785TIP3   OH226769   3.439   2.635  13.500  0.1173 -0.3189 -0.4168
 1785TIP3    H126770   3.517   2.588  13.472 -0.2485  0.2277 -2.5283
 1785TIP3    H226771   3.370   2.605  13.440 -0.9139  0.3586  0.3915
 1786TIP3   OH226772   2.651   1.849  13.502  0.5187 -0.1824  0.0559
 1786TIP3    H126773   2.585   1.780  13.495  1.0730 -0.9927  2.0344
 1786TIP3    H226774   2.674   1.870  13.411 -0.9998 -1.2697 -0.6247
 1787TIP3   OH226775   0.458   0.926   0.765  0.2219  0.0778  0.5364
 1787TIP3    H126776   0.441   1.020   0.761  1.3442  0.2736 -0.0149
 1787TIP3    H226777   0.537   0.913   0.713  0.4117 -1.0963  1.0710
 1788TIP3   OH226778   0.018   2.243  14.516  0.4592 -0.5677 -0.5317
 1788TIP3    H126779   0.041   2.335  14.504  1.7087 -0.8187 -0.2628
 1788TIP3    H226780  -0.042   2.223  14.444 -0.2821  0.5926 -0.2610
 1789TIP3   OH226781   3.886   5.044   1.233 -0.1511  0.8409 -0.5190
 1789TIP3    H126782   3.935   5.043   1.315  0.7267  0.6197 -1.0284
 1789TIP3    H226783   3.950   5.069   1.167 -0.7010  0.4476 -1.2246
 1790TIP3   OH226784   5.331   2.518  13.952 -0.2483 -0.1074  0.1803
 1790TIP3    H126785   5.246   2.561  13.950 -0.8952 -1.3512 -1.9707
 1790TIP3    H226786   5.394   2.588  13.934 -1.0183  0.4217 -0.5064
 1791TIP3   OH226787   0.637   5.480   0.260 -0.0236  0.1567 -0.5344
 1791TIP3    H126788   0.583   5.557   0.275 -0.8868 -0.7982  1.8951
 1791TIP3    H226789   0.696   5.477   0.336 -1.7409 -2.8256  0.8929
 1792TIP3   OH226790   4.106   6.564   0.338  0.3616 -0.4092  0.0649
 1792TIP3    H126791   4.120   6.469   0.337  1.5123 -0.3013  1.7697
 1792TIP3    H226792   4.104   6.587   0.431 -1.5366  1.0471 -0.2760
 1793TIP3   OH226793   4.881   0.359  13.097  0.2846  0.5364  0.0522
 1793TIP3    H126794   4.825   0.294  13.139  0.9919  0.7211  1.3400
 1793TIP3    H226795   4.822   0.407  13.039 -0.2109 -1.3903 -1.1478
 1794TIP3   OH226796   1.638   4.458   2.013  0.2607  0.0441 -0.6549
 1794TIP3    H126797   1.687   4.392   1.963  1.4725  0.2146  0.2550
 1794TIP3    H226798   1.679   4.541   1.988 -0.0670  0.2698 -0.4469
 1795TIP3   OH226799   4.213   5.972   5.227  0.1701  0.7303  0.4712
 1795TIP3    H126800   4.265   5.918   5.287 -0.6643  0.3662  0.8776
 1795TIP3    H226801   4.276   5.999   5.160  0.1882 -2.7016 -1.1078
 1796TIP3   OH226802   0.680   1.353   5.512 -0.0369 -0.0375 -0.1212
 1796TIP3    H126803   0.709   1.273   5.468  0.7088  0.1387  0.0417
 1796TIP3    H226804   0.606   1.383   5.460 -0.1887 -0.7117 -0.3113
 1797TIP3   OH226805   0.854   1.208   4.602 -0.0887  0.5521 -0.0698
 1797TIP3    H126806   0.927   1.148   4.616  1.6547  2.6145  0.1515
 1797TIP3    H226807   0.844   1.212   4.507  0.6313  0.8388 -0.1409
 1798TIP3   OH226808   5.955   4.328   2.793  0.0643  0.1280 -0.2786
 1798TIP3    H126809   6.003   4.255   2.832 -0.1430  0.4404  0.5808
 1798TIP3    H226810   5.864   4.316   2.822 -0.1045  0.3207 -0.7259
 1799TIP3   OH226811   0.510   3.204   0.982  0.3514 -0.1371  0.4571
 1799TIP3    H126812   0.547   3.238   0.901  0.4326 -1.6048 -0.1550
 1799TIP3    H226813   0.472   3.280   1.025  1.2876  0.8585 -0.4194
 1800TIP3   OH226814   1.015   4.718  14.751  0.6816  0.0779 -0.4520
 1800TIP3    H126815   0.994   4.807  14.723 -0.0514 -0.0067 -0.1910
 1800TIP3    H226816   1.093   4.695  14.701  0.8690  0.8646 -0.5269
 1801TIP3   OH226817   6.561   3.920  14.413 -0.1630 -0.4992  0.3965
 1801TIP3    H126818   6.521   3.834  14.401 -1.8822  0.3247 -0.0589
 1801TIP3    H226819   6.611   3.935  14.332 -0.6474 -0.6605  0.0643
 1802TIP3   OH226820   4.823   4.767  13.892  0.2860 -0.3877  0.1442
 1802TIP3    H126821   4.873   4.751  13.812  2.2624 -2.2136  1.6315
 1802TIP3    H226822   4.839   4.690  13.946 -0.3279  1.1049  2.6019
 1803TIP3   OH226823   2.240   4.434   0.178 -0.1952 -0.4083  0.2907
 1803TIP3    H126824   2.265   4.511   0.229  0.8490 -0.5864  0.0709
 1803TIP3    H226825   2.205   4.470   0.097 -0.3609 -0.1559  0.4707
 1804TIP3   OH226826   4.199   5.283   3.576 -0.2894  0.5600 -0.3131
 1804TIP3    H126827   4.246   5.249   3.500  0.3248  0.2169  0.2136
 1804TIP3    H226828   4.239   5.239   3.651 -1.4444  0.2543  0.1554
 1805TIP3   OH226829   5.180   0.210  14.803  0.0735  0.0345 -0.4860
 1805TIP3    H126830   5.141   0.130  14.838  1.2091 -0.4545 -0.3153
 1805TIP3    H226831   5.268   0.185  14.775 -0.0550  0.9022 -1.7556
 1806TIP3   OH226832   1.844   3.456   5.495 -0.3653  0.0740  0.0376
 1806TIP3    H126833   1.780   3.499   5.552  0.2838  0.5525  0.4115
 1806TIP3    H226834   1.905   3.526   5.471  3.0258 -1.2692  3.7454
 1807TIP3   OH226835   1.115   2.040  16.936  0.1083 -0.6887 -0.3838
 1807TIP3    H126836   1.148   2.117  16.890  0.1100 -0.8292 -0.6201
 1807TIP3    H226837   1.187   1.977  16.930  0.3782 -0.4726  0.4090
 1808TIP3   OH226838   3.262   5.420   4.018 -0.0566  0.2299  0.2679
 1808TIP3    H126839   3.247   5.459   3.932 -2.3075 -0.3093  0.3789
 1808TIP3    H226840   3.219   5.335   4.015 -0.6421  0.4147  2.0826
 1809TIP3   OH226841   2.693   3.029  10.925 -0.0500 -0.2149  0.2900
 1809TIP3    H126842   2.672   2.966  10.856 -1.5296 -0.7289  1.1489
 1809TIP3    H226843   2.674   2.981  11.006 -2.7179  1.7812  0.9611
 1810TIP3   OH226844   0.989   5.033   2.108 -0.2989  0.0130 -0.2531
 1810TIP3    H126845   0.911   5.056   2.159  0.1652  0.1568  0.3957
 1810TIP3    H226846   0.989   5.096   2.036 -1.3681 -0.6612 -0.8755
 1811TIP3   OH226847   4.051   1.434   3.485 -0.4730  0.0833  0.2397
 1811TIP3    H126848   4.030   1.527   3.495 -0.1881  0.4637 -2.1763
 1811TIP3    H226849   3.967   1.394   3.461 -0.1556  0.1543 -1.0546
 1812TIP3   OH226850   3.919   4.672  11.369  0.4857  0.0116  0.1504
 1812TIP3    H126851   3.901   4.730  11.295  0.1308  0.0243  0.2477
 1812TIP3    H226852   3.855   4.601  11.361  0.0799  0.3026  0.7585
 1813TIP3   OH226853   2.590   5.120   2.375  0.1139  0.4932 -0.0468
 1813TIP3    H126854   2.535   5.044   2.354  0.9351  0.1169 -0.8985
 1813TIP3    H226855   2.590   5.124   2.471 -0.6963 -0.0132 -0.0180
 1814TIP3   OH226856   3.184   4.559   2.240  0.1666  0.0566  0.1779
 1814TIP3    H126857   3.098   4.572   2.200  1.7069  0.8834 -3.2059
 1814TIP3    H226858   3.196   4.637   2.296 -1.4761 -0.4067  1.2441
 1815TIP3   OH226859   2.393   1.979  15.537 -0.0408  0.0199  0.0765
 1815TIP3    H126860   2.351   2.045  15.592 -1.2135 -0.2347 -0.4731
 1815TIP3    H226861   2.340   1.977  15.457  1.0006 -0.3684 -0.6306
 1816TIP3   OH226862   3.085   1.562   5.505 -0.3004  0.3022  0.6951
 1816TIP3    H126863   3.167   1.610   5.511 -0.5875  0.8440  0.3022
 1816TIP3    H226864   3.027   1.605   5.567 -0.6836  0.7216  0.0541
 1817TIP3   OH226865   6.188   0.164  11.414  0.2690  0.5871  0.5958
 1817TIP3    H126866   6.158   0.222  11.484  1.1406  1.6511  0.1164
 1817TIP3    H226867   6.126   0.177  11.343  1.7954  2.8621 -0.4354
 1818TIP3   OH226868   1.300   3.689  11.485 -0.5412 -0.5284 -0.6505
 1818TIP3    H126869   1.295   3.616  11.424 -0.8354 -0.1981 -1.0191
 1818TIP3    H226870   1.241   3.755  11.450  0.4048  0.2564 -0.8087
 1819TIP3   OH226871   0.116   6.764  12.909  0.4655 -0.1102  0.3874
 1819TIP3    H126872   0.070   6.790  12.829  0.5018  0.4989  0.5558
 1819TIP3    H226873   0.208   6.786  12.892  1.0319 -2.8293 -0.5858
 1820TIP3   OH226874   1.242   0.032   2.778  0.1588  0.0634 -0.4159
 1820TIP3    H126875   1.160  -0.016   2.768 -0.1004 -0.2756  2.4827
 1820TIP3    H226876   1.308  -0.035   2.798  0.5497  0.5573  0.0023
 1821TIP3   OH226877   4.519   3.527   4.977 -1.1018 -0.8314  0.4680
 1821TIP3    H126878   4.595   3.477   4.947 -1.5564 -1.7415  0.8143
 1821TIP3    H226879   4.545   3.619   4.965  0.2061 -1.1120  0.9769
 1822TIP3   OH226880   2.483   4.463   3.452  0.3314 -0.0027  0.2989
 1822TIP3    H126881   2.549   4.530   3.473 -1.6884  2.5198 -0.7568
 1822TIP3    H226882   2.400   4.511   3.455 -1.2089 -2.4339 -0.8582
 1823TIP3   OH226883   0.713   1.167   2.512 -0.1823  0.2771 -0.6601
 1823TIP3    H126884   0.722   1.076   2.486  0.8676  0.4939 -1.1239
 1823TIP3    H226885   0.623   1.190   2.489 -1.4562 -1.4321  2.1461
 1824TIP3   OH226886   5.925   5.744   0.384 -0.2658 -0.5408  0.4760
 1824TIP3    H126887   6.020   5.748   0.393  0.2688 -1.2881 -3.2263
 1824TIP3    H226888   5.907   5.651   0.366 -1.6963 -0.3995  1.0378
 1825TIP3   OH226889   0.458   4.331   5.458  0.0891 -0.1498 -0.3707
 1825TIP3    H126890   0.463   4.338   5.363  0.4945  1.2032 -0.2800
 1825TIP3    H226891   0.406   4.407   5.484  0.9965  0.1756  0.5576
 1826TIP3   OH226892   1.032   6.149  15.107  0.1102  0.0677  0.1572
 1826TIP3    H126893   1.081   6.205  15.047 -0.3076  1.2152  0.8669
 1826TIP3    H226894   0.957   6.201  15.134  1.1575  0.3002  2.9964
 1827TIP3   OH226895   3.515   1.107   4.050 -0.3858 -0.5886 -0.3539
 1827TIP3    H126896   3.522   1.040   4.118  0.4231 -0.1538  0.0061
 1827TIP3    H226897   3.600   1.151   4.051  0.4489 -1.9478 -3.1395
 1828TIP3   OH226898   4.231   1.866  17.010 -0.3830  0.1377 -0.0644
 1828TIP3    H126899   4.324   1.849  16.996 -1.0038 -1.8883 -2.6903
 1828TIP3    H226900   4.202   1.795  17.068 -0.4945  0.0344 -0.2432
 1829TIP3   OH226901   5.875   0.598   4.896 -0.0186  0.3018  0.1823
 1829TIP3    H126902   5.934   0.638   4.960  1.1425 -0.3103 -0.4719
 1829TIP3    H226903   5.823   0.671   4.862  0.7612  0.9538  0.3671
 1830TIP3   OH226904   2.688   3.834   0.314 -0.0013  0.0844 -0.9149
 1830TIP3    H126905   2.727   3.890   0.246  0.1934  0.2770 -0.6476
 1830TIP3    H226906   2.604   3.877   0.334 -0.7176 -0.7499 -2.0331
 1831TIP3   OH226907   4.529   5.711   3.137  0.0788  0.7141 -0.0924
 1831TIP3    H126908   4.620   5.703   3.167  0.1181 -0.1309 -0.4022
 1831TIP3    H226909   4.508   5.624   3.103 -2.1170 -0.4115  3.5416
 1832TIP3   OH226910   2.792   2.235  11.210 -0.3518 -0.3241  0.2790
 1832TIP3    H126911   2.786   2.140  11.197  0.7629 -0.4120  0.3760
 1832TIP3    H226912   2.734   2.272  11.143 -0.8128 -1.0625  0.2554
 1833TIP3   OH226913   3.622   0.212  16.601  0.6847  0.3770  0.1607
 1833TIP3    H126914   3.648   0.242  16.688  2.0260  1.8799 -0.7028
 1833TIP3    H226915   3.615   0.292  16.549 -0.6216 -0.4493 -0.9987
 1834TIP3   OH226916   5.197   0.486   1.790 -0.0495  0.3950  0.0561
 1834TIP3    H126917   5.243   0.403   1.800  0.4905  0.8293  1.5884
 1834TIP3    H226918   5.112   0.462   1.754 -0.0745 -0.8919  0.8776
 1835TIP3   OH226919   0.800   4.648  11.553 -0.5192  0.5728  0.4889
 1835TIP3    H126920   0.809   4.553  11.553  0.1122  0.6137 -0.6452
 1835TIP3    H226921   0.714   4.664  11.515  0.5089  0.4717 -2.1499
 1836TIP3   OH226922   3.997   6.615   5.147  0.0015  0.4984  0.0783
 1836TIP3    H126923   3.968   6.543   5.090 -0.0739  0.4177  0.2173
 1836TIP3    H226924   3.963   6.694   5.105  0.8380  0.5336 -0.5544
 1837TIP3   OH226925   3.540   6.191  15.730 -0.1052 -0.3571 -0.2402
 1837TIP3    H126926   3.468   6.152  15.680  0.1125 -0.9139 -0.1267
 1837TIP3    H226927   3.498   6.223  15.810 -0.3840  0.1696 -0.5909
 1838TIP3   OH226928   0.715   1.820  11.907  0.0235 -0.6056 -0.7624
 1838TIP3    H126929   0.747   1.743  11.954 -1.5070 -1.3863 -0.9311
 1838TIP3    H226930   0.635   1.844  11.953  0.0984  0.4467 -1.1638
 1839TIP3   OH226931   6.691   6.553  13.812 -0.3247 -0.3214 -0.1874
 1839TIP3    H126932   6.683   6.643  13.844 -0.8743 -0.4135 -0.0662
 1839TIP3    H226933   6.732   6.562  13.726  0.5015 -0.0200  0.2254
 1840TIP3   OH226934   5.736   3.827   2.428 -0.3153 -0.1577  0.1953
 1840TIP3    H126935   5.828   3.855   2.425 -1.0314  2.4974 -0.6024
 1840TIP3    H226936   5.711   3.837   2.519 -0.9366  3.8805 -0.1990
 1841TIP3   OH226937   0.540   5.394  15.512 -0.6193 -0.1189 -0.4164
 1841TIP3    H126938   0.457   5.360  15.544 -0.3198  0.5159  1.1445
 1841TIP3    H226939   0.521   5.485  15.488 -0.6866 -0.3931 -1.4335
 1842TIP3   OH226940   1.513   3.311  15.908 -0.2406  0.8117 -0.2124
 1842TIP3    H126941   1.596   3.330  15.951  0.0079  2.3014 -1.2821
 1842TIP3    H226942   1.537   3.285  15.820 -0.8823  0.7795 -0.3819
 1843TIP3   OH226943   2.713   4.247  11.633  0.3432  0.0839  0.7623
 1843TIP3    H126944   2.743   4.156  11.635  0.5004  0.1211  0.0504
 1843TIP3    H226945   2.782   4.295  11.589 -1.4516 -0.1275 -2.5703
 1844TIP3   OH226946   4.761   2.265  11.827 -0.4584  0.0447 -0.0047
 1844TIP3    H126947   4.832   2.286  11.888 -0.9291  0.5101  0.3945
 1844TIP3    H226948   4.724   2.184  11.861 -1.4011  0.8608  0.9582
 1845TIP3   OH226949   5.392   4.603   5.981  0.1919 -0.1996 -0.1083
 1845TIP3    H126950   5.393   4.577   5.889  0.4017 -0.6874  0.0259
 1845TIP3    H226951   5.464   4.553   6.021 -0.8282 -1.1589  0.6219
 1846TIP3   OH226952   3.210   1.074  12.231 -0.4187 -0.0904 -0.0931
 1846TIP3    H126953   3.209   1.112  12.319 -0.8545  0.0995 -0.1767
 1846TIP3    H226954   3.118   1.054  12.213 -0.0986 -2.2354  0.3939
 1847TIP3   OH226955   6.798   6.385  12.506  0.2672 -0.9934 -0.1721
 1847TIP3    H126956   6.710   6.377  12.541 -0.3555  2.3770 -0.6888
 1847TIP3    H226957   6.801   6.320  12.435 -1.5113 -1.6320  0.2903
 1848TIP3   OH226958   0.702   3.223   5.796  0.3009 -0.3735  0.5154
 1848TIP3    H126959   0.615   3.210   5.759  0.9646 -1.5673 -0.7052
 1848TIP3    H226960   0.724   3.139   5.837  1.6998 -0.8351 -1.0541
 1849TIP3   OH226961   1.098   5.371  16.222  0.2599 -0.0112  0.0547
 1849TIP3    H126962   1.045   5.451  16.220 -0.1390 -0.2790 -0.3381
 1849TIP3    H226963   1.038   5.302  16.194  0.2111 -0.6906  1.6989
 1850TIP3   OH226964   1.277   3.182  13.771 -0.4803 -0.7266 -0.2585
 1850TIP3    H126965   1.288   3.111  13.708 -0.7434 -0.7749 -0.2532
 1850TIP3    H226966   1.322   3.257  13.731 -1.2829 -0.5524 -0.8640
 1851TIP3   OH226967   4.547   0.331   3.651 -0.2470  0.1592  0.7800
 1851TIP3    H126968   4.495   0.406   3.621 -1.3820 -0.0455  2.1272
 1851TIP3    H226969   4.547   0.271   3.577 -2.2970 -0.0012  0.8578
 1852TIP3   OH226970   0.132   1.923   2.149 -0.6822 -0.5691 -0.1041
 1852TIP3    H126971   0.041   1.939   2.172 -0.9095 -0.9901 -0.6871
 1852TIP3    H226972   0.176   1.911   2.233 -1.0466  0.2032  0.2059
 1853TIP3   OH226973   5.740   1.741  16.743 -0.1005  0.0326 -0.0192
 1853TIP3    H126974   5.835   1.747  16.731 -0.1553  0.2957 -0.3190
 1853TIP3    H226975   5.710   1.831  16.746 -0.4658 -0.0584 -0.9097
 1854TIP3   OH226976   2.590   1.932  16.862 -0.3440  0.5446  0.3822
 1854TIP3    H126977   2.596   1.933  16.958  0.3148  1.7452  0.3440
 1854TIP3    H226978   2.520   1.870  16.844  2.3449 -3.1391  1.4447
 1855TIP3   OH226979   4.419   6.012   5.050 -0.3412 -0.1265 -0.7014
 1855TIP3    H126980   4.478   5.939   5.031 -1.7213 -0.9301 -2.2257
 1855TIP3    H226981   4.409   6.056   4.965 -0.1130  1.4131  0.0463
 1856TIP3   OH226982   4.171   3.820   4.092 -0.0425 -0.5713  0.3578
 1856TIP3    H126983   4.180   3.741   4.145 -0.4862 -0.7891  0.1157
 1856TIP3    H226984   4.076   3.836   4.088 -0.1494 -1.4288 -1.6030
 1857TIP3   OH226985   2.394   6.715   3.073 -0.1302  0.2237  0.0102
 1857TIP3    H126986   2.405   6.759   2.988  1.0763  0.2023  0.1324
 1857TIP3    H226987   2.476   6.668   3.086 -0.4256 -0.0238  1.0533
 1858TIP3   OH226988   4.404   3.885   6.579 -0.1388 -0.7745  0.0470
 1858TIP3    H126989   4.358   3.813   6.536 -0.4959 -0.3696 -0.2571
 1858TIP3    H226990   4.339   3.924   6.637  0.2638 -1.1492  0.7653
 1859TIP3   OH226991   0.962   2.745   1.291 -0.3475  0.0436  0.2175
 1859TIP3    H126992   1.043   2.703   1.261 -1.2987 -1.1620 -0.8053
 1859TIP3    H226993   0.991   2.818   1.345  1.4332  0.1173 -0.7590
 1860TIP3   OH226994   3.526   4.943   3.907 -0.3607  0.7427 -0.0961
 1860TIP3    H126995   3.517   5.024   3.957  1.4176  0.5575  0.5917
 1860TIP3    H226996   3.617   4.943   3.877 -0.0880 -1.3333  0.5766
 1861TIP3   OH226997   0.285   5.053   4.574 -0.1612  0.0498  1.0385
 1861TIP3    H126998   0.307   5.139   4.539 -0.3538  0.4287  1.8267
 1861TIP3    H226999   0.368   5.019   4.609 -0.0947 -0.0636  0.7698
 1862TIP3   OH227000   3.307   1.136  14.971 -0.1658 -0.0049 -0.3369
 1862TIP3    H127001   3.329   1.198  15.040 -1.1378  1.6160 -1.4142
 1862TIP3    H227002   3.215   1.116  14.983  0.0628 -1.0422 -0.1819
 1863TIP3   OH227003   6.095   3.003   3.459  0.7161 -0.3452  0.4854
 1863TIP3    H127004   6.180   2.973   3.426 -0.0232 -2.6623  0.5505
 1863TIP3    H227005   6.111   3.024   3.551  1.1487 -1.1131  0.5886
 1864TIP3   OH227006   1.660   5.403   0.764 -0.2676 -0.0151 -0.2398
 1864TIP3    H127007   1.596   5.458   0.719 -1.6880 -1.2391  0.1893
 1864TIP3    H227008   1.739   5.407   0.710 -1.3868 -0.1234 -1.9227
 1865TIP3   OH227009   1.277   0.582  12.937  0.2638 -0.3090 -0.7156
 1865TIP3    H127010   1.329   0.643  12.990  1.1611 -2.5566  1.1395
 1865TIP3    H227011   1.342   0.523  12.898 -0.6680 -0.8889 -1.4180
 1866TIP3   OH227012   1.488   4.253  13.867  0.0570  0.4823 -0.1337
 1866TIP3    H127013   1.394   4.252  13.852 -0.8689 -0.3076  4.4172
 1866TIP3    H227014   1.513   4.161  13.863 -0.1970  0.2551  2.2401
 1867TIP3   OH227015   3.134   0.408  17.031 -0.0775 -0.0069 -0.1915
 1867TIP3    H127016   3.123   0.500  17.010 -0.9044 -0.4754 -1.9754
 1867TIP3    H227017   3.203   0.377  16.973  0.5219 -0.4391  0.7129
 1868TIP3   OH227018   2.582   4.579  12.477  0.1575 -0.4328  0.4246
 1868TIP3    H127019   2.657   4.532  12.439 -0.5671 -0.4219 -1.1141
 1868TIP3    H227020   2.517   4.511  12.494  0.1908 -0.3359  0.9398
 1869TIP3   OH227021   1.423   1.650   4.450 -0.1101 -0.3587 -0.9846
 1869TIP3    H127022   1.463   1.681   4.532 -0.3702 -1.3849 -0.4473
 1869TIP3    H227023   1.451   1.713   4.384  0.5465  0.1935 -0.1979
 1870TIP3   OH227024   6.094   3.540   3.739 -0.0489  0.1240  0.0704
 1870TIP3    H127025   6.146   3.536   3.819  0.2786 -2.9235 -0.1597
 1870TIP3    H227026   6.158   3.556   3.670  0.0066  0.4110  0.1885
 1871TIP3   OH227027   3.819   0.380  14.873 -0.1796  0.0114  0.3321
 1871TIP3    H127028   3.870   0.414  14.799 -1.2612  0.9033 -0.0280
 1871TIP3    H227029   3.851   0.290  14.885  0.3290  0.0020 -0.9223
 1872TIP3   OH227030   5.886   2.489   1.654 -0.6126  0.0921 -0.2326
 1872TIP3    H127031   5.911   2.545   1.580  0.3436  1.5659  1.1353
 1872TIP3    H227032   5.900   2.399   1.622  1.4956  0.7296 -1.2931
 1873TIP3   OH227033   4.281   5.895  13.462 -0.4820 -0.8166  0.0146
 1873TIP3    H127034   4.252   5.934  13.545 -1.7896  0.4439 -0.9716
 1873TIP3    H227035   4.285   5.969  13.401 -0.4090 -1.8353 -1.2595
 1874TIP3   OH227036   5.831   0.660  15.742 -0.2596 -0.4356 -0.4921
 1874TIP3    H127037   5.897   0.670  15.811 -1.2823  0.1724  0.4374
 1874TIP3    H227038   5.850   0.730  15.680 -0.8531  0.6266  0.4906
 1875TIP3   OH227039   0.974   0.830  16.029 -0.0071  0.3878 -0.2988
 1875TIP3    H127040   1.039   0.809  15.962 -0.3019 -1.5115 -0.0559
 1875TIP3    H227041   0.890   0.807  15.989 -0.2912  0.4051  0.2822
 1876TIP3   OH227042   5.612   0.961   5.948  0.2558 -0.4037  0.2123
 1876TIP3    H127043   5.614   1.056   5.950  0.3357 -0.3347 -1.4045
 1876TIP3    H227044   5.654   0.933   6.029  1.3455  0.9452  0.1371
 1877TIP3   OH227045   3.539   0.785   5.817  0.2159 -0.3403 -0.3797
 1877TIP3    H127046   3.510   0.696   5.839 -1.4323  0.2303 -0.1391
 1877TIP3    H227047   3.496   0.805   5.734 -1.0113  0.9281  0.5230
 1878TIP3   OH227048   6.130   1.225   5.246 -0.1492  0.3653 -0.2364
 1878TIP3    H127049   6.205   1.217   5.187  0.1345  0.1349  0.1489
 1878TIP3    H227050   6.137   1.148   5.303 -0.4629  0.5450  0.0466
 1879TIP3   OH227051   6.639   2.609   3.467  0.5860 -0.3177  0.3729
 1879TIP3    H127052   6.629   2.698   3.503  1.9586  0.4640 -1.0894
 1879TIP3    H227053   6.715   2.573   3.513  2.7290  0.9058 -1.9712
 1880TIP3   OH227054   4.320   3.373  12.540 -0.6118  0.2363  0.0382
 1880TIP3    H127055   4.295   3.281  12.528  1.3361 -0.4019  0.5097
 1880TIP3    H227056   4.247   3.423  12.502 -1.7808 -1.4836 -0.0917
 1881TIP3   OH227057   4.346   3.951   2.598  0.0751  0.4309 -0.2777
 1881TIP3    H127058   4.357   3.864   2.558 -2.9368  0.1838 -0.7867
 1881TIP3    H227059   4.390   3.944   2.683 -2.1251 -2.4650  0.7734
 1882TIP3   OH227060   1.138   6.115   1.242  0.2017 -0.9740  0.2555
 1882TIP3    H127061   1.059   6.070   1.274  0.3204 -0.8393  0.7555
 1882TIP3    H227062   1.206   6.089   1.305  0.0681  0.6324  1.1030
 1883TIP3   OH227063   2.432   3.002   1.089  0.4432  0.0586 -0.3938
 1883TIP3    H127064   2.406   2.934   1.151  2.2431  0.2725  0.6448
 1883TIP3    H227065   2.426   2.959   1.004  0.8075 -1.1725  0.1761
 1884TIP3   OH227066   3.660   4.784   1.079 -0.3118  0.1236  0.0449
 1884TIP3    H127067   3.586   4.723   1.073 -0.0782 -0.3727  1.7212
 1884TIP3    H227068   3.620   4.869   1.098 -0.7694  0.9659 -3.7634
 1885TIP3   OH227069   4.687   1.384   3.729  0.2927  0.2904 -0.4291
 1885TIP3    H127070   4.779   1.388   3.703  0.5023  0.0317  0.2412
 1885TIP3    H227071   4.648   1.465   3.695  0.5717  0.0136 -1.4293
 1886TIP3   OH227072   2.997   4.975  11.359 -0.5505  0.0534  0.0423
 1886TIP3    H127073   3.021   4.980  11.267  0.6975 -2.9818  0.0947
 1886TIP3    H227074   3.005   5.065  11.391 -0.5746  1.1121 -2.6565
 1887TIP3   OH227075   4.237   0.522  14.447 -0.0641 -0.6272 -0.2330
 1887TIP3    H127076   4.226   0.564  14.362  0.5141  1.3327  0.6165
 1887TIP3    H227077   4.324   0.481  14.442  0.1948 -0.0680 -0.4164
 1888TIP3   OH227078   1.583   2.538   1.385  0.6674  0.2006 -0.9491
 1888TIP3    H127079   1.568   2.497   1.300 -1.2096 -0.1396 -0.4913
 1888TIP3    H227080   1.511   2.600   1.395  0.3255 -0.4295  0.7839
 1889TIP3   OH227081   5.373   3.647   5.559 -0.0439 -0.0819  0.0803
 1889TIP3    H127082   5.399   3.626   5.469  0.1614 -0.4161  0.2189
 1889TIP3    H227083   5.421   3.585   5.614 -1.8299 -1.3398  0.2796
 1890TIP3   OH227084   5.406   4.122  11.564  0.1709  0.8269  0.2750
 1890TIP3    H127085   5.331   4.070  11.592  0.6070  0.8420  1.5569
 1890TIP3    H227086   5.370   4.209  11.546 -0.7319 -0.0733 -2.8204
 1891TIP3   OH227087   4.572   0.441   2.104  0.2839 -0.0599  0.2147
 1891TIP3    H127088   4.659   0.465   2.071  0.9512 -1.1461  1.0961
 1891TIP3    H227089   4.520   0.521   2.096  0.8361  0.1418 -1.9876
 1892TIP3   OH227090   0.702   1.604   4.010  0.3554 -0.2967 -0.0928
 1892TIP3    H127091   0.722   1.581   3.920  1.6562 -0.0921  0.1303
 1892TIP3    H227092   0.765   1.672   4.033 -0.7376  0.5285  0.5937
 1893TIP3   OH227093   0.235   1.597  14.362 -0.2151 -0.3086 -0.0327
 1893TIP3    H127094   0.312   1.596  14.419 -0.3458 -0.4502  0.1465
 1893TIP3    H227095   0.204   1.687  14.365  1.5912  0.4788 -2.3827
 1894TIP3   OH227096   3.732   6.788  15.651  0.0879  0.2264 -0.4390
 1894TIP3    H127097   3.792   6.715  15.661  1.2400  0.8111 -2.5305
 1894TIP3    H227098   3.683   6.791  15.733  0.5738 -2.3519  0.0171
 1895TIP3   OH227099   5.101   6.425  14.929 -0.5125  0.3663  0.2630
 1895TIP3    H127100   5.132   6.356  14.869 -0.1512  1.0771 -0.3875
 1895TIP3    H227101   5.036   6.381  14.984  0.4986 -0.7708  0.6049
 1896TIP3   OH227102   3.001   5.621  14.492  0.1557 -0.1737 -0.0805
 1896TIP3    H127103   2.959   5.705  14.480  0.7927 -0.1448 -2.6351
 1896TIP3    H227104   3.095   5.641  14.496  0.2082 -0.5230  2.5938
 1897TIP3   OH227105   2.353   2.525   5.768 -0.1633  0.1457  0.2292
 1897TIP3    H127106   2.408   2.567   5.833 -1.2760  1.1786  0.5461
 1897TIP3    H227107   2.338   2.592   5.701 -1.7356  0.2111  0.6006
 1898TIP3   OH227108   1.121   2.387   0.006  0.2669  0.1429  0.1415
 1898TIP3    H127109   1.040   2.373   0.055  1.1689 -0.6445  1.4587
 1898TIP3    H227110   1.167   2.304   0.011  1.2524  0.6368 -0.4214
 1899TIP3   OH227111   6.201   2.550   5.597  0.1143 -0.3036 -0.5221
 1899TIP3    H127112   6.251   2.468   5.601  0.8494  0.0830 -1.4381
 1899TIP3    H227113   6.145   2.540   5.520 -0.0143 -0.0732 -0.4590
 1900TIP3   OH227114   5.004   4.194   0.893 -0.0656 -0.0197  0.2410
 1900TIP3    H127115   5.058   4.158   0.823 -0.8256 -0.7607  0.0167
 1900TIP3    H227116   4.931   4.132   0.901 -0.6116  0.6899  0.8776
 1901TIP3   OH227117   0.632   6.535  12.074  0.2060  0.2211  0.1169
 1901TIP3    H127118   0.637   6.477  12.150  0.2631  0.5435  0.3664
 1901TIP3    H227119   0.540   6.534  12.048  0.4711 -1.1917 -0.8540
 1902TIP3   OH227120   2.745   5.944  15.106  0.0665 -0.1413 -0.0170
 1902TIP3    H127121   2.834   5.941  15.141 -0.1213 -1.9698  0.3979
 1902TIP3    H227122   2.688   5.946  15.182 -0.2785 -1.2212 -0.2271
 1903TIP3   OH227123   0.019   2.538  14.502 -0.4061  0.3160 -0.4349
 1903TIP3    H127124  -0.004   2.522  14.593  0.2763  4.2179  0.6035
 1903TIP3    H227125   0.109   2.571  14.506 -0.4255  0.7378 -2.5216
 1904TIP3   OH227126   1.035   0.407   3.531 -0.0369 -0.0138  0.1792
 1904TIP3    H127127   1.074   0.495   3.525 -1.0158  0.4405  0.3716
 1904TIP3    H227128   0.984   0.409   3.612  0.0533 -0.8174  0.2632
 1905TIP3   OH227129   6.086   3.588   5.971  0.1482 -0.6699  0.1657
 1905TIP3    H127130   6.155   3.654   5.975 -0.9911  0.6110 -0.6559
 1905TIP3    H227131   6.046   3.590   6.058  0.5479 -0.7889  0.3587
 1906TIP3   OH227132   4.728   0.738  16.870  0.9997 -0.3046  0.0568
 1906TIP3    H127133   4.757   0.648  16.856  2.6628  0.3493 -0.9502
 1906TIP3    H227134   4.732   0.779  16.784 -1.5094  0.2907  0.1397
 1907TIP3   OH227135   5.697   0.750   2.430  0.2132  0.2355  0.1306
 1907TIP3    H127136   5.660   0.663   2.421  0.1673  0.1795  0.7962
 1907TIP3    H227137   5.644   0.792   2.498 -0.4847  1.1779 -0.9445
 1908TIP3   OH227138   6.418   4.989  14.330 -0.1618 -0.2841 -0.3657
 1908TIP3    H127139   6.367   4.958  14.255 -0.6313  1.5130 -0.8532
 1908TIP3    H227140   6.507   4.957  14.314  0.1773  1.5729 -2.7143
 1909TIP3   OH227141   3.247   0.974   4.832  0.4179  0.0138 -0.1572
 1909TIP3    H127142   3.156   0.947   4.818  0.5566 -1.3852  1.2423
 1909TIP3    H227143   3.299   0.899   4.803  1.2485  1.2690 -2.1046
 1910TIP3   OH227144   5.682   1.864   3.872 -0.0802  0.2309  0.1990
 1910TIP3    H127145   5.739   1.807   3.923 -0.2584  0.4764  0.6884
 1910TIP3    H227146   5.596   1.856   3.914 -0.5601 -0.5813 -0.8791
 1911TIP3   OH227147   6.433   5.690   3.128 -0.1182  0.5226 -0.6595
 1911TIP3    H127148   6.348   5.690   3.085 -0.5751  0.1187  0.2156
 1911TIP3    H227149   6.455   5.597   3.137  0.2624  0.6172 -0.5846
 1912TIP3   OH227150   6.031   0.875   0.357 -0.6288  0.1966 -0.0796
 1912TIP3    H127151   6.103   0.929   0.391  0.7449 -1.6548  0.1410
 1912TIP3    H227152   6.065   0.785   0.362 -2.6534 -0.6569 -0.8145
 1913TIP3   OH227153   4.064   4.265   4.138  0.1916  0.0678  0.1124
 1913TIP3    H127154   4.046   4.192   4.078 -0.6207  0.9663 -0.7731
 1913TIP3    H227155   4.010   4.337   4.105  2.8651  1.8928 -0.5785
 1914TIP3   OH227156   3.542   3.720  15.267  0.0426  0.4276  0.3858
 1914TIP3    H127157   3.621   3.667  15.265  1.7441  2.7685  0.9350
 1914TIP3    H227158   3.483   3.679  15.204  1.5908 -1.4999  0.1021
 1915TIP3   OH227159   6.709   5.660   0.627  0.6117  0.2619  0.7820
 1915TIP3    H127160   6.692   5.754   0.638 -1.1478 -0.0498  0.9086
 1915TIP3    H227161   6.674   5.639   0.541  0.3539 -0.4207  1.0484
 1916TIP3   OH227162   0.345   2.960   2.339  0.2881 -0.4347  0.3818
 1916TIP3    H127163   0.423   2.906   2.345  1.8910  1.6878 -0.0064
 1916TIP3    H227164   0.299   2.927   2.261  1.4901 -0.8780 -0.1560
 1917TIP3   OH227165   1.174   1.477  13.433 -0.7196  0.0535 -0.2638
 1917TIP3    H127166   1.211   1.458  13.519  0.0268  2.0799 -0.0766
 1917TIP3    H227167   1.249   1.498  13.378 -1.2381 -0.6604 -1.2812
 1918TIP3   OH227168   1.319   0.741  13.876  0.4964 -0.1543  0.7859
 1918TIP3    H127169   1.301   0.826  13.837 -0.5724 -0.3138  0.8857
 1918TIP3    H227170   1.232   0.702  13.890  0.9683 -1.6565 -0.1314
 1919TIP3   OH227171   6.469   4.901   1.442 -0.3091  0.1197 -0.0891
 1919TIP3    H127172   6.518   4.826   1.411 -1.3364  0.2079 -2.0442
 1919TIP3    H227173   6.443   4.878   1.531  0.1807 -1.4316 -0.3267
 1920TIP3   OH227174   6.045   6.744  15.163  0.5279 -0.2636 -0.5037
 1920TIP3    H127175   6.079   6.712  15.079  2.3728 -0.1268  0.1565
 1920TIP3    H227176   6.070   6.676  15.226 -0.1896 -0.0110  0.0659
 1921TIP3   OH227177   2.555   6.371   6.481  0.3280  0.3512 -0.3776
 1921TIP3    H127178   2.571   6.313   6.556 -2.5340 -1.0572 -0.7451
 1921TIP3    H227179   2.563   6.314   6.405 -0.5715  0.8818 -0.8739
 1922TIP3   OH227180   4.905   3.536  14.305  0.2513 -0.1979  0.2469
 1922TIP3    H127181   4.886   3.593  14.231  1.1898  0.1270  0.2494
 1922TIP3    H227182   4.833   3.553  14.367  0.0851  0.3775 -0.0941
 1923TIP3   OH227183   5.631   2.491  16.774  0.5743 -0.2115 -0.0162
 1923TIP3    H127184   5.541   2.493  16.741  0.4732  0.0423  0.2704
 1923TIP3    H227185   5.685   2.523  16.702  0.5091 -1.0008 -0.4247
 1924TIP3   OH227186   2.840   1.983   5.561  0.6048 -0.6433 -0.6092
 1924TIP3    H127187   2.778   1.926   5.515  0.7045 -0.3645 -1.1034
 1924TIP3    H227188   2.845   2.062   5.506  0.5512 -0.2023  0.0068
 1925TIP3   OH227189   2.226   1.598  12.518  0.0018  0.2001 -0.3300
 1925TIP3    H127190   2.140   1.576  12.555  1.0876 -1.0797  1.5804
 1925TIP3    H227191   2.210   1.676  12.465 -2.1258  0.6731  0.8996
 1926TIP3   OH227192   5.723   4.103   4.594  0.5296  0.3691 -0.1579
 1926TIP3    H127193   5.725   4.038   4.664  1.3978 -0.0534 -0.5538
 1926TIP3    H227194   5.630   4.116   4.576  0.2901  0.6806  1.2364
 1927TIP3   OH227195   5.280   1.090  14.224 -0.0883 -0.0667 -0.6423
 1927TIP3    H127196   5.253   1.089  14.316 -2.7974  0.2056 -1.3320
 1927TIP3    H227197   5.250   1.176  14.192  0.3509 -0.3617 -1.8956
 1928TIP3   OH227198   0.535   3.723  12.829  0.0964 -0.3874 -0.3737
 1928TIP3    H127199   0.520   3.751  12.919  2.7027 -0.8839  0.3066
 1928TIP3    H227200   0.528   3.627  12.833 -0.9848 -0.3477 -0.9906
 1929TIP3   OH227201   4.946   4.183   4.529  0.1322 -0.0924  0.2494
 1929TIP3    H127202   4.882   4.236   4.577 -0.6579 -1.1611  0.4174
 1929TIP3    H227203   4.897   4.106   4.501  0.4132  0.7152 -2.7650
 1930TIP3   OH227204   0.915   4.555  13.493  0.2378  0.1796  0.5001
 1930TIP3    H127205   0.864   4.475  13.502  0.3846  0.2596  2.2840
 1930TIP3    H227206   0.894   4.587  13.405  0.4992 -2.0076 -0.4129
 1931TIP3   OH227207   2.387   5.117   3.357  0.1933  0.3329  0.2072
 1931TIP3    H127208   2.475   5.111   3.393 -0.2744 -0.3196  1.2946
 1931TIP3    H227209   2.392   5.188   3.293  2.2317 -1.5631 -1.9338
 1932TIP3   OH227210   6.307   6.241  14.723 -0.1867  0.5250 -0.9147
 1932TIP3    H127211   6.397   6.208  14.727 -0.4764 -0.2064  1.0009
 1932TIP3    H227212   6.261   6.179  14.667 -0.4835 -1.9260  1.7795
 1933TIP3   OH227213   0.529   0.629  13.546 -0.3737  0.5959  0.1718
 1933TIP3    H127214   0.455   0.688  13.531  0.4248  1.6046  0.0571
 1933TIP3    H227215   0.600   0.687  13.575  0.6798 -0.1936 -0.7318
 1934TIP3   OH227216   2.298   5.846   5.230  0.5079 -0.1046 -0.4702
 1934TIP3    H127217   2.270   5.910   5.296  0.0515 -0.5041 -0.2739
 1934TIP3    H227218   2.386   5.819   5.259 -0.7535 -2.3963  1.6207
 1935TIP3   OH227219   6.602   3.264   5.124 -0.0623  0.0500  0.2805
 1935TIP3    H127220   6.659   3.219   5.061 -1.2562 -1.8204  0.4470
 1935TIP3    H227221   6.568   3.339   5.076  0.4774 -0.3061 -0.6912
 1936TIP3   OH227222   3.205   2.680   0.858 -0.0705 -0.0296  0.4422
 1936TIP3    H127223   3.171   2.594   0.885 -1.9137  0.2518 -0.8227
 1936TIP3    H227224   3.203   2.678   0.763 -0.0170  1.3767  0.3956
 1937TIP3   OH227225   6.286   5.942  12.855  0.6741  0.5298  0.0502
 1937TIP3    H127226   6.267   5.950  12.762 -0.4542  0.9797  0.3006
 1937TIP3    H227227   6.376   5.911  12.859 -0.2165 -2.5334 -1.2417
 1938TIP3   OH227228   1.727   1.839  13.323  0.6689  0.0311  0.4855
 1938TIP3    H127229   1.669   1.905  13.285  2.0628  0.1756 -1.5587
 1938TIP3    H227230   1.770   1.884  13.396 -2.7487 -0.5293  3.0887
 1939TIP3   OH227231   4.787   2.920   3.820 -0.2121 -0.4063  0.1172
 1939TIP3    H127232   4.762   3.013   3.814 -0.5179 -0.5674 -1.7256
 1939TIP3    H227233   4.859   2.911   3.757 -0.9259 -1.6300 -0.5590
 1940TIP3   OH227234   0.507   4.352   1.182  0.4855 -0.2645 -0.0033
 1940TIP3    H127235   0.515   4.362   1.087 -0.5953  1.5684  0.0579
 1940TIP3    H227236   0.595   4.325   1.210  1.0091 -0.1523 -1.4397
 1941TIP3   OH227237   1.664   5.182  16.731 -0.0644 -0.7136  0.3989
 1941TIP3    H127238   1.609   5.236  16.674  1.2037 -0.1265 -0.3276
 1941TIP3    H227239   1.677   5.101  16.682  1.2298 -0.1123 -0.3095
 1942TIP3   OH227240   2.399   0.814   5.325  0.9636  0.2426 -0.4861
 1942TIP3    H127241   2.357   0.786   5.406  2.0835  0.1119  0.0627
 1942TIP3    H227242   2.405   0.909   5.333  0.9886  0.2384 -0.4536
 1943TIP3   OH227243   2.497   3.346  14.339  0.2157  0.6159  0.0138
 1943TIP3    H127244   2.463   3.432  14.364 -0.4431  0.2358  0.4656
 1943TIP3    H227245   2.503   3.298  14.421 -0.3658 -0.0971 -0.3526
 1944TIP3   OH227246   1.933   3.893  12.774 -0.2497 -0.5137  0.6915
 1944TIP3    H127247   1.929   3.989  12.783  3.7900 -0.0381 -0.2100
 1944TIP3    H227248   2.010   3.868  12.825  0.7602 -2.7672 -1.7011
 1945TIP3   OH227249   5.639   0.557   0.601  0.5641  0.5457 -0.0960
 1945TIP3    H127250   5.648   0.569   0.695  0.7924  1.3151 -0.2077
 1945TIP3    H227251   5.681   0.634   0.563 -0.8610  1.0095 -0.7902
 1946TIP3   OH227252   0.458   0.984  15.226  0.4004  0.4057 -0.0444
 1946TIP3    H127253   0.390   0.918  15.212 -0.0918  0.7393  0.7251
 1946TIP3    H227254   0.414   1.068  15.215  1.1496  0.6326 -1.5923
 1947TIP3   OH227255   1.559   6.281   5.494  0.1544  0.2389 -0.1663
 1947TIP3    H127256   1.568   6.236   5.410  0.0680  1.1446 -0.6736
 1947TIP3    H227257   1.620   6.354   5.488  1.2162 -0.4949  1.1343
 1948TIP3   OH227258   4.541   6.102  11.111 -0.1411 -0.0844  0.4360
 1948TIP3    H127259   4.456   6.112  11.154 -0.6345 -0.0891 -0.5040
 1948TIP3    H227260   4.603   6.144  11.170 -1.0105  1.2360  0.4463
 1949TIP3   OH227261   1.535   1.249  12.792  0.0326 -0.3562 -0.3641
 1949TIP3    H127262   1.454   1.263  12.842 -0.7040  2.5383 -2.1053
 1949TIP3    H227263   1.605   1.273  12.853 -0.7040  1.0169 -0.0158
 1950TIP3   OH227264   2.631   3.077  15.516 -0.1722 -0.6069  0.8113
 1950TIP3    H127265   2.591   3.090  15.601 -1.3239 -0.2750  0.2407
 1950TIP3    H227266   2.669   3.162  15.494 -0.2160 -0.5812  0.8345
 1951TIP3   OH227267   4.470   2.025  12.793 -0.5583  0.5171  0.4052
 1951TIP3    H127268   4.446   2.019  12.886 -1.1304 -0.4857  0.1990
 1951TIP3    H227269   4.395   2.067  12.752 -0.9550 -0.4114  0.1583
 1952TIP3   OH227270   2.067   3.203  10.970  0.0001 -0.2824  0.1515
 1952TIP3    H127271   2.161   3.213  10.985  0.3393 -0.2877 -1.7244
 1952TIP3    H227272   2.055   3.221  10.876 -1.9424  0.1898  0.4339
 1953TIP3   OH227273   0.689   5.476  11.669  0.5239  0.5114 -0.0819
 1953TIP3    H127274   0.624   5.522  11.722  1.0623  0.1214  0.9531
 1953TIP3    H227275   0.767   5.531  11.674  0.7572  0.1759  0.0432
 1954TIP3   OH227276   4.584   3.396  16.230  0.3993 -0.1088  0.0411
 1954TIP3    H127277   4.620   3.381  16.317  1.5022 -0.4536 -0.4468
 1954TIP3    H227278   4.661   3.402  16.173 -0.2987  0.0145 -0.9217
 1955TIP3   OH227279   2.581   1.636   3.343 -0.2786  0.0196 -0.0711
 1955TIP3    H127280   2.626   1.562   3.302  0.2987  0.7077 -0.7124
 1955TIP3    H227281   2.642   1.709   3.334  0.7419 -0.1635  3.7285
 1956TIP3   OH227282   3.375   3.004   0.276 -0.1366  0.0375  0.0458
 1956TIP3    H127283   3.421   2.935   0.230 -2.3500 -1.3550 -0.2506
 1956TIP3    H227284   3.397   2.991   0.368  1.2187  0.3823 -0.2132
 1957TIP3   OH227285   6.128   6.205   4.868  0.0653 -0.1776 -0.6409
 1957TIP3    H127286   6.104   6.252   4.787  0.1258  0.2134 -0.4354
 1957TIP3    H227287   6.050   6.154   4.890  0.1612 -0.5404 -1.1242
 1958TIP3   OH227288   0.335   6.198  16.412  0.1960 -0.3581 -0.1303
 1958TIP3    H127289   0.322   6.232  16.323 -0.7391 -2.0560 -0.7014
 1958TIP3    H227290   0.343   6.104  16.400  0.2574 -0.5985  1.5837
 1959TIP3   OH227291   5.432   6.738  12.074  0.3815  0.1347 -0.0004
 1959TIP3    H127292   5.526   6.744  12.093  0.4002 -0.3559  0.0737
 1959TIP3    H227293   5.422   6.784  11.990  0.3053  2.2800  1.0960
 1960TIP3   OH227294   1.684   0.049  15.084  0.6145  0.5076  0.7061
 1960TIP3    H127295   1.728  -0.031  15.115 -0.4057  0.3450  1.8157
 1960TIP3    H227296   1.756   0.108  15.060  1.4100 -0.2597  1.1194
 1961TIP3   OH227297   3.877   5.239  13.359  0.0144 -0.2721  0.3553
 1961TIP3    H127298   3.848   5.147  13.357 -1.0624  0.0463 -1.2577
 1961TIP3    H227299   3.826   5.278  13.430  0.1484 -0.8210  0.7625
 1962TIP3   OH227300   0.546   6.447  16.755 -0.2483 -0.1017 -0.6354
 1962TIP3    H127301   0.460   6.407  16.758  0.0678 -0.7427  0.1882
 1962TIP3    H227302   0.607   6.374  16.762  0.3502  0.4230 -0.2507
 1963TIP3   OH227303   0.849   1.580   3.019  0.0533  0.1921 -0.2242
 1963TIP3    H127304   0.851   1.644   3.090  1.1890 -0.7384  0.6244
 1963TIP3    H227305   0.782   1.613   2.959 -0.3555  1.4378  0.8625
 1964TIP3   OH227306   0.121   5.148  16.854 -0.5102 -0.3614  1.6464
 1964TIP3    H127307   0.130   5.057  16.884  0.1696 -0.5500  0.9058
 1964TIP3    H227308   0.129   5.143  16.759  1.5465  0.6781  1.7073
 1965TIP3   OH227309   0.332   0.644   4.233  0.4976  0.2589  0.2729
 1965TIP3    H127310   0.275   0.570   4.252  0.6463  0.6494  2.4050
 1965TIP3    H227311   0.276   0.721   4.240  0.8067  0.5006  0.1407
 1966TIP3   OH227312   2.696   5.764  13.852  0.1130 -0.5083 -0.0339
 1966TIP3    H127313   2.784   5.774  13.889  0.4318  2.7333 -1.3486
 1966TIP3    H227314   2.637   5.769  13.927  0.9461 -0.1924  0.6158
 1967TIP3   OH227315   4.257   5.331  12.586  0.5590 -0.2602 -0.5207
 1967TIP3    H127316   4.301   5.266  12.530 -0.7163 -1.0649 -0.6310
 1967TIP3    H227317   4.250   5.288  12.671  1.4690  0.5195 -0.0336
 1968TIP3   OH227318   0.555   3.578   6.232  0.5946  0.4759 -0.0348
 1968TIP3    H127319   0.519   3.667   6.230 -2.1228 -0.4147  2.1099
 1968TIP3    H227320   0.508   3.532   6.162 -1.1981 -0.2114  1.5324
 1969TIP3   OH227321   6.755   2.652   2.118  0.0236 -0.5408 -0.2294
 1969TIP3    H127322   6.707   2.660   2.200  2.2754 -0.0032  1.1015
 1969TIP3    H227323   6.786   2.741   2.099  0.0795 -0.7800 -1.3311
 1970TIP3   OH227324   6.759   2.834   1.373  0.3766 -0.0072 -0.0997
 1970TIP3    H127325   6.806   2.912   1.401  1.1732 -0.2001 -0.8695
 1970TIP3    H227326   6.677   2.868   1.337  0.2023  0.3779  0.6378
 1971TIP3   OH227327   1.058   6.555   0.153 -0.5233  0.4719  0.1702
 1971TIP3    H127328   1.073   6.535   0.246 -2.9130  2.9410  1.2255
 1971TIP3    H227329   1.130   6.612   0.129  2.0599 -2.8440 -0.6566
 1972TIP3   OH227330   5.251   6.409  16.493 -0.6012  0.0493  0.4550
 1972TIP3    H127331   5.274   6.340  16.431 -1.3770  1.2474 -1.2297
 1972TIP3    H227332   5.197   6.365  16.559  0.6754 -1.3596  0.6294
 1973TIP3   OH227333   2.167   3.854  15.947  0.2668 -0.2922  0.0343
 1973TIP3    H127334   2.136   3.786  15.887 -0.3750 -0.5338  0.6297
 1973TIP3    H227335   2.097   3.920  15.948 -0.3245 -0.8879  1.4575
 1974TIP3   OH227336   2.150   4.334   2.130  0.0647 -0.2396 -0.1803
 1974TIP3    H127337   2.107   4.417   2.152 -0.3479 -0.1342 -1.3175
 1974TIP3    H227338   2.085   4.267   2.150  0.5286 -0.3415  1.0889
 1975TIP3   OH227339   0.953   1.683  15.571  0.3205 -0.0875  0.0666
 1975TIP3    H127340   1.043   1.652  15.575  0.4030 -0.0213 -0.9780
 1975TIP3    H227341   0.900   1.604  15.586  0.5511 -0.4360 -0.8503
 1976TIP3   OH227342   4.284   1.318   3.469  0.1541  0.8345 -0.1222
 1976TIP3    H127343   4.327   1.404   3.467  1.1684  0.3932  1.0302
 1976TIP3    H227344   4.191   1.338   3.476  0.2759  1.8283 -1.0468
 1977TIP3   OH227345   2.584   1.029  13.171 -0.1033  0.2973  0.1750
 1977TIP3    H127346   2.600   0.937  13.189 -0.4531  0.3110  0.5673
 1977TIP3    H227347   2.591   1.072  13.257 -0.7616  0.5147  0.1247
 1978TIP3   OH227348   6.109   5.576  12.109  0.3515 -0.7936  1.0964
 1978TIP3    H127349   6.048   5.560  12.037 -0.6544  0.2123  1.6904
 1978TIP3    H227350   6.196   5.573  12.069 -0.1241 -1.3752  0.0661
 1979TIP3   OH227351   1.966   6.091   0.305 -0.3402 -0.3788  0.4888
 1979TIP3    H127352   1.949   6.153   0.234  0.1126  0.0793  0.7748
 1979TIP3    H227353   2.055   6.111   0.334 -1.6286  1.7887  3.4707
 1980TIP3   OH227354   3.871   2.278   4.774  0.4521 -0.1960 -0.4204
 1980TIP3    H127355   3.836   2.296   4.687 -0.6667  1.7472  0.3702
 1980TIP3    H227356   3.931   2.350   4.791  1.3624 -1.0465  0.0886
 1981TIP3   OH227357   0.868   0.256  15.533  0.1043 -0.3261 -0.1990
 1981TIP3    H127358   0.798   0.309  15.571  0.0292 -0.5851  0.0299
 1981TIP3    H227359   0.946   0.279  15.585  0.6363  1.3796 -1.6588
 1982TIP3   OH227360   0.206   3.797   2.773  0.0051  0.3023  0.4956
 1982TIP3    H127361   0.206   3.729   2.705  0.9204 -0.0508  0.8348
 1982TIP3    H227362   0.142   3.766   2.837 -2.8780  1.9195 -1.4051
 1983TIP3   OH227363   2.878   5.793   2.558 -0.2837  0.4455 -0.1674
 1983TIP3    H127364   2.842   5.848   2.628 -0.1745  0.0870  0.1781
 1983TIP3    H227365   2.856   5.704   2.585  1.6354  0.1281  0.5181
 1984TIP3   OH227366   1.238   6.374  14.628 -0.2255 -0.2132  0.2500
 1984TIP3    H127367   1.234   6.306  14.561  0.5536  1.0717 -1.1718
 1984TIP3    H227368   1.332   6.383  14.647 -0.5113 -1.7758  2.8857
 1985TIP3   OH227369   2.130   2.760  16.160  0.1404  0.3199  0.2421
 1985TIP3    H127370   2.214   2.743  16.203 -0.8024  2.7205  3.4068
 1985TIP3    H227371   2.065   2.744  16.229 -2.1290 -1.4922 -2.1015
 1986TIP3   OH227372   0.075   6.045   0.186 -0.1100  0.0459  0.3920
 1986TIP3    H127373   0.169   6.057   0.201  0.2150 -2.5659  0.8792
 1986TIP3    H227374   0.033   6.101   0.250  1.0235  2.5507 -0.8919
 1987TIP3   OH227375   5.592   6.534   2.513  0.3125 -0.6030  0.4948
 1987TIP3    H127376   5.518   6.591   2.493  0.6603  0.3827  1.8489
 1987TIP3    H227377   5.556   6.467   2.571  0.6628  0.5440  2.1047
 1988TIP3   OH227378   6.700   5.721  15.453  0.3931 -0.1420  0.0099
 1988TIP3    H127379   6.779   5.728  15.506 -0.2110 -0.4215  0.9668
 1988TIP3    H227380   6.658   5.807  15.462  0.6161  0.0311 -0.5573
 1989TIP3   OH227381   2.092   1.333   3.966 -0.6359  0.0505  0.0034
 1989TIP3    H127382   2.180   1.372   3.973  0.3154 -2.1051  1.0998
 1989TIP3    H227383   2.060   1.333   4.056 -0.5872 -1.6211  0.0514
 1990TIP3   OH227384   1.763   5.058  13.536  0.0082 -0.7956 -0.4045
 1990TIP3    H127385   1.669   5.042  13.525 -0.2212 -0.2031  0.5257
 1990TIP3    H227386   1.767   5.124  13.605  1.0719 -0.0223 -1.1764
 1991TIP3   OH227387   2.409   1.793  12.681  0.3003 -0.2458  0.2234
 1991TIP3    H127388   2.373   1.767  12.766 -1.2415 -0.0585 -0.3307
 1991TIP3    H227389   2.361   1.740  12.617  0.4264  0.6133 -0.6089
 1992TIP3   OH227390   2.066   1.304  15.922  0.6570 -0.1495  0.1050
 1992TIP3    H127391   2.160   1.284  15.926  1.1912  2.2218  1.6846
 1992TIP3    H227392   2.056   1.354  15.841  0.8551 -0.0021  0.1700
 1993TIP3   OH227393   6.799   3.527  12.222  0.3522  0.4580 -0.2508
 1993TIP3    H127394   6.744   3.586  12.170  1.5678  1.6102 -0.2826
 1993TIP3    H227395   6.741   3.454  12.243 -1.0109  1.3239 -0.7923
 1994TIP3   OH227396   1.361   2.722   5.244  0.5165  0.2862  0.4236
 1994TIP3    H127397   1.366   2.768   5.328  1.1179 -0.6465  0.9097
 1994TIP3    H227398   1.275   2.746   5.209  0.3790  0.9139  1.1686
 1995TIP3   OH227399   0.020   5.233  12.726 -0.1433 -0.2318  0.4394
 1995TIP3    H127400  -0.066   5.213  12.763  0.7889 -1.5305  2.0174
 1995TIP3    H227401   0.058   5.296  12.787  1.1103 -1.8203  1.3647
 1996TIP3   OH227402   1.929   3.452   0.577 -0.2712  0.1359  0.2630
 1996TIP3    H127403   2.008   3.448   0.631  0.8208 -0.8644 -1.3160
 1996TIP3    H227404   1.861   3.414   0.633  0.7542 -0.6115  1.0621
 1997TIP3   OH227405   1.010   5.425   1.755 -0.0287  0.5152  0.5670
 1997TIP3    H127406   1.023   5.332   1.740  1.6057  0.9660 -1.3666
 1997TIP3    H227407   1.022   5.437   1.849 -1.3459 -1.3323  1.0124
 1998TIP3   OH227408   6.575   1.461   5.402  0.4210  0.1300  0.9168
 1998TIP3    H127409   6.512   1.389   5.405 -0.6336  1.0113  0.7862
 1998TIP3    H227410   6.526   1.536   5.436  1.0448  1.0939 -0.2343
 1999TIP3   OH227411   0.279   4.554  14.972 -0.1620  0.3866 -0.3621
 1999TIP3    H127412   0.210   4.613  15.001  1.4932  1.0769  2.6112
 1999TIP3    H227413   0.269   4.477  15.029  3.0179  1.6364  2.1850
 2000TIP3   OH227414   0.039   3.793  11.721 -0.0914  0.1019  0.0212
 2000TIP3    H127415   0.068   3.798  11.812  1.6913  0.6517 -0.5434
 2000TIP3    H227416   0.039   3.700  11.700  1.1085  0.0750  0.1033
 2001TIP3   OH227417   6.625   1.909   0.673  0.2885  0.1622  0.6056
 2001TIP3    H127418   6.663   1.923   0.759 -0.0224 -0.3254  0.8289
 2001TIP3    H227419   6.655   1.984   0.621  1.1057  0.0600  0.9155
 2002TIP3   OH227420   3.444   3.802  14.745  0.2940  0.0930  0.4820
 2002TIP3    H127421   3.437   3.860  14.669  0.1008  0.0907  0.4991
 2002TIP3    H227422   3.382   3.837  14.808 -0.2099 -0.4502  0.2890
 2003TIP3   OH227423   1.746   0.064  14.283  0.1688 -0.4987  0.4126
 2003TIP3    H127424   1.655   0.093  14.288  0.9327  2.0801  0.8445
 2003TIP3    H227425   1.792   0.136  14.241  2.2932 -0.9647  1.7669
 2004TIP3   OH227426   0.921   5.100   4.037 -0.0109 -0.3346 -1.2759
 2004TIP3    H127427   0.867   5.170   4.072  0.3720 -0.7607  0.2212
 2004TIP3    H227428   0.984   5.144   3.979  0.7792  0.6815  0.3059
 2005TIP3   OH227429   5.759   4.816  15.921  0.4437 -0.4887  0.5302
 2005TIP3    H127430   5.774   4.862  15.839 -1.1592 -0.0844  0.4358
 2005TIP3    H227431   5.738   4.726  15.895  0.5578 -0.5201  0.5445
 2006TIP3   OH227432   0.216   5.149   3.435  0.3067  0.2597 -0.6261
 2006TIP3    H127433   0.138   5.179   3.387 -0.0547  0.8877  0.3226
 2006TIP3    H227434   0.236   5.221   3.495  1.6975  0.1521 -0.9368
 2007TIP3   OH227435   4.648   6.639   2.869 -0.2096 -0.3327  0.3007
 2007TIP3    H127436   4.650   6.659   2.775 -0.9757 -0.6578  0.2079
 2007TIP3    H227437   4.737   6.656   2.899  0.2206 -0.9080 -0.6301
 2008TIP3   OH227438   4.847   0.148   2.024 -0.6178  0.6441 -0.0574
 2008TIP3    H127439   4.936   0.117   2.040 -0.6157  0.7694  0.1710
 2008TIP3    H227440   4.853   0.243   2.024 -1.1061  0.7429  2.1777
 2009TIP3   OH227441   6.783   5.021   6.224 -0.6809 -0.0816 -0.3389
 2009TIP3    H127442   6.718   5.036   6.156 -1.3364  0.9859  0.4941
 2009TIP3    H227443   6.787   4.925   6.233  0.9272 -0.3926 -3.2464
 2010TIP3   OH227444   2.140   5.574   1.358 -0.4388 -0.1502 -0.5119
 2010TIP3    H127445   2.061   5.535   1.394 -0.3240  0.3180  0.2900
 2010TIP3    H227446   2.159   5.523   1.279 -1.8232  0.0701 -1.0078
 2011TIP3   OH227447   5.380   3.347  15.842  0.0321 -0.2929 -0.7726
 2011TIP3    H127448   5.296   3.319  15.877  1.0589 -0.3706  1.8653
 2011TIP3    H227449   5.436   3.269  15.848  0.6780  0.1245 -1.1538
 2012TIP3   OH227450   1.630   3.083   1.389 -0.1520  0.1103 -0.1226
 2012TIP3    H127451   1.663   3.036   1.466 -2.9843  1.0086  1.7772
 2012TIP3    H227452   1.606   3.170   1.423 -0.2078  1.0364 -2.3663
 2013TIP3   OH227453   4.607   2.015  15.740  0.0880 -0.1179  0.2058
 2013TIP3    H127454   4.687   2.017  15.688  0.7010 -1.4545  1.0231
 2013TIP3    H227455   4.543   2.064  15.688  1.5790  1.5264 -0.1662
 2014TIP3   OH227456   2.402   5.197   2.999 -0.6003  0.0622  0.2920
 2014TIP3    H127457   2.348   5.266   2.961 -0.6141  0.6214  1.3081
 2014TIP3    H227458   2.489   5.211   2.960 -0.4136  1.1346  1.0456
 2015TIP3   OH227459   5.515   5.530   2.648 -0.4099  0.7799 -0.1427
 2015TIP3    H127460   5.445   5.471   2.620 -1.0343  1.3136  0.2498
 2015TIP3    H227461   5.579   5.527   2.577  0.2212 -1.3660  0.4584
 2016TIP3   OH227462   1.004   6.264   1.053  0.4265  0.3895  0.3027
 2016TIP3    H127463   1.048   6.334   1.099 -0.2931  0.9931  0.0974
 2016TIP3    H227464   1.032   6.184   1.097  1.8055  0.7396  0.0895
 2017TIP3   OH227465   4.253   6.445  12.334 -0.5042  0.1187  0.1768
 2017TIP3    H127466   4.213   6.496  12.264 -1.5630 -1.0709 -0.0960
 2017TIP3    H227467   4.180   6.413  12.386 -0.0561 -2.9256 -0.9028
 2018TIP3   OH227468   3.327   1.730   5.215 -0.3309  0.2376 -0.2997
 2018TIP3    H127469   3.305   1.771   5.298  2.7542 -1.0470  1.3082
 2018TIP3    H227470   3.365   1.801   5.163 -0.0425  0.5607  0.3394
 2019TIP3   OH227471   0.071   6.729   2.467  0.4461  0.6084 -0.0546
 2019TIP3    H127472  -0.006   6.703   2.417 -0.4023  1.1131  0.9503
 2019TIP3    H227473   0.136   6.753   2.401  2.0829 -5.4709 -1.3356
 2020TIP3   OH227474   3.694   1.137  15.677 -0.5877  0.3033  0.4004
 2020TIP3    H127475   3.719   1.200  15.610  1.4415 -1.0042 -0.1841
 2020TIP3    H227476   3.605   1.110  15.654 -0.2231  0.4654 -1.3165
 2021TIP3   OH227477   5.522   0.536  11.348 -0.1380 -0.6161 -0.2327
 2021TIP3    H127478   5.463   0.502  11.415 -0.8569 -0.1918 -0.6314
 2021TIP3    H227479   5.581   0.594  11.395 -1.1154  0.2712 -0.0582
 2022TIP3   OH227480   0.346   0.087   1.470 -0.1783  0.3160 -0.7729
 2022TIP3    H127481   0.312   0.020   1.529 -1.1662  1.8225  0.4293
 2022TIP3    H227482   0.312   0.170   1.504  1.8041  1.5635 -1.6289
 2023TIP3   OH227483   2.201   0.406  14.242 -0.1925 -0.1192  0.2758
 2023TIP3    H127484   2.220   0.500  14.250 -2.8448  0.5350 -0.0664
 2023TIP3    H227485   2.232   0.383  14.154  0.8236  0.3259  0.5025
 2024TIP3   OH227486   1.535   0.608   5.564 -0.2696  1.2422 -0.3525
 2024TIP3    H127487   1.492   0.655   5.636  1.3767 -0.6851  2.0929
 2024TIP3    H227488   1.610   0.663   5.541  0.0416  1.1898  0.5011
 2025TIP3   OH227489   5.937   1.944   3.612  0.7978  0.0498  0.3727
 2025TIP3    H127490   6.020   1.919   3.653  1.5536  1.1547 -0.4052
 2025TIP3    H227491   5.895   1.861   3.589  1.8992 -0.5278  0.3829
 2026TIP3   OH227492   5.118   3.128   1.892  0.0647 -0.1415 -0.3666
 2026TIP3    H127493   5.029   3.138   1.857  0.3563  0.2177 -1.0254
 2026TIP3    H227494   5.137   3.034   1.882 -0.9770 -0.6215  1.6390
 2027TIP3   OH227495   5.455   5.277   2.528  0.1719 -0.3965 -0.1364
 2027TIP3    H127496   5.412   5.194   2.546 -0.3725 -0.0622  0.1511
 2027TIP3    H227497   5.485   5.269   2.437  0.5164 -1.0678  0.0371
 2028TIP3   OH227498   6.285   3.614  15.490 -0.0109 -0.7376 -0.1356
 2028TIP3    H127499   6.225   3.615  15.565  0.0150 -1.5236 -0.0962
 2028TIP3    H227500   6.370   3.637  15.527 -0.0221 -0.9993  0.0504
 2029TIP3   OH227501   6.056   1.420   4.164 -0.1938 -0.2352  0.1558
 2029TIP3    H127502   6.013   1.434   4.248  0.6382  1.7284  0.3086
 2029TIP3    H227503   5.996   1.363   4.116 -2.7160  1.8616  0.5811
 2030TIP3   OH227504   6.151   1.849   3.804  0.3375 -0.1738 -0.2203
 2030TIP3    H127505   6.111   1.816   3.884 -1.9299  0.4080 -1.0365
 2030TIP3    H227506   6.216   1.782   3.780 -0.4174 -1.3665  0.9745
 2031TIP3   OH227507   4.499   1.642   2.763 -0.1930 -0.3121 -0.0950
 2031TIP3    H127508   4.444   1.700   2.711 -1.4405 -0.7049  0.7508
 2031TIP3    H227509   4.482   1.554   2.729  0.0213 -0.4194  0.0653
 2032TIP3   OH227510   0.455   4.672  12.998  0.5366  0.3329  0.1944
 2032TIP3    H127511   0.432   4.765  12.990 -0.4067  0.0622 -0.4201
 2032TIP3    H227512   0.456   4.640  12.908  0.4641 -0.3485  0.4309
 2033TIP3   OH227513   0.481   3.345  14.425  0.7004  0.0760  0.3389
 2033TIP3    H127514   0.543   3.302  14.367 -0.9504 -1.3250 -0.4978
 2033TIP3    H227515   0.510   3.436  14.429  1.5177 -0.0349 -1.8108
 2034TIP3   OH227516   3.079   0.854  14.758  0.6488  0.2039  0.1934
 2034TIP3    H127517   3.162   0.855  14.806 -0.1448  1.4619  1.6384
 2034TIP3    H227518   3.069   0.943  14.726  0.0079 -0.0163 -0.2317
 2035TIP3   OH227519   2.391   3.215  14.110 -0.2913 -0.1209 -0.8812
 2035TIP3    H127520   2.419   3.252  14.194  1.2907  1.2937 -1.9665
 2035TIP3    H227521   2.315   3.268  14.085 -1.4020 -1.2036  0.0895
 2036TIP3   OH227522   3.072   5.994  15.488 -0.2021  0.0395 -0.0212
 2036TIP3    H127523   2.979   6.016  15.476 -0.2065  0.2424  0.3439
 2036TIP3    H227524   3.117   6.043  15.420 -0.0871  2.2608  1.5276
 2037TIP3   OH227525   4.684   3.652   1.445  0.1539 -0.3822 -0.4354
 2037TIP3    H127526   4.708   3.702   1.523  0.9935  1.1207 -1.5981
 2037TIP3    H227527   4.756   3.589   1.434 -0.9509 -2.0183  1.0830
 2038TIP3   OH227528   5.312   3.081   4.373  0.1466 -0.4404 -0.5905
 2038TIP3    H127529   5.404   3.079   4.345  0.1197 -0.5865 -0.6695
 2038TIP3    H227530   5.276   3.159   4.332 -0.0513 -0.9788 -1.4614
 2039TIP3   OH227531   5.200   1.232  13.254 -0.2039 -0.0123  0.1153
 2039TIP3    H127532   5.295   1.238  13.262 -0.3261  0.4692  1.3143
 2039TIP3    H227533   5.166   1.275  13.332 -1.4103 -0.4770 -0.1327
 2040TIP3   OH227534   4.567   0.746   3.091  0.0289  0.3910 -0.1734
 2040TIP3    H127535   4.534   0.726   3.178 -0.9329  3.1214  0.1943
 2040TIP3    H227536   4.489   0.746   3.035  0.3952  0.3209 -0.6933
 2041TIP3   OH227537   3.970   4.167   2.775 -0.7872 -0.0131  0.6461
 2041TIP3    H127538   3.878   4.153   2.794 -0.8397  1.3613  1.6189
 2041TIP3    H227539   3.972   4.239   2.712 -0.3843  0.5406  1.2662
 2042TIP3   OH227540   3.240   0.235   1.168 -0.0655  0.6091  0.1795
 2042TIP3    H127541   3.282   0.310   1.211  0.1832  1.1402 -0.9619
 2042TIP3    H227542   3.307   0.201   1.109 -0.0549 -0.7467  0.9471
 2043TIP3   OH227543   6.670   4.149  10.688  0.2630  0.2807  0.3307
 2043TIP3    H127544   6.678   4.085  10.617  0.8517  0.0322  0.6163
 2043TIP3    H227545   6.719   4.225  10.656 -0.9964  0.8564 -0.2935
 2044TIP3   OH227546   3.541   3.422  13.331  0.6380 -0.3758 -0.5911
 2044TIP3    H127547   3.575   3.506  13.360  0.2297 -0.4242  0.0312
 2044TIP3    H227548   3.619   3.369  13.313  0.8923  0.1316 -0.9854
 2045TIP3   OH227549   0.136   1.648   0.471 -0.0973  0.3611 -0.2981
 2045TIP3    H127550   0.171   1.559   0.475  0.7731  0.7074  0.2252
 2045TIP3    H227551   0.079   1.649   0.394 -1.3218 -1.0631  0.5269
 2046TIP3   OH227552   6.785   4.965   5.356  0.5048  0.1735  0.0452
 2046TIP3    H127553   6.825   5.030   5.414  1.1437 -0.1777  0.0085
 2046TIP3    H227554   6.744   5.017   5.287  0.8402  0.5487  0.1241
 2047TIP3   OH227555   4.442   0.662   4.768  0.0225 -0.0455  0.2994
 2047TIP3    H127556   4.430   0.597   4.838  0.4184 -0.4055  0.0371
 2047TIP3    H227557   4.404   0.742   4.804 -1.2516 -0.6218  0.3061
 2048TIP3   OH227558   1.617   0.574   3.834  0.3491 -0.2263  0.7437
 2048TIP3    H127559   1.657   0.556   3.920 -0.4178 -1.5026  0.8524
 2048TIP3    H227560   1.544   0.512   3.828 -0.6520  0.9960 -0.1231
 2049TIP3   OH227561   6.269   0.684  13.703  0.0754 -0.3885 -0.2500
 2049TIP3    H127562   6.237   0.774  13.698  1.8354  0.1925 -2.9455
 2049TIP3    H227563   6.305   0.666  13.617  2.8784 -2.4744  1.1839
 2050TIP3   OH227564   2.693   2.151  15.742  0.5624 -0.3882 -0.3122
 2050TIP3    H127565   2.627   2.173  15.808  2.0443  3.5312  0.0942
 2050TIP3    H227566   2.754   2.093  15.788 -0.1621 -0.3519  0.7337
 2051TIP3   OH227567   2.789   1.505  15.559 -0.1572  0.0163  0.5158
 2051TIP3    H127568   2.798   1.502  15.464  1.2364 -0.4218  0.6301
 2051TIP3    H227569   2.768   1.597  15.578 -1.6577 -0.1311 -0.2711
 2052TIP3   OH227570   4.356   3.807   1.723  0.1642  0.2029 -0.1462
 2052TIP3    H127571   4.266   3.809   1.754 -0.1750 -1.0414 -1.0078
 2052TIP3    H227572   4.351   3.770   1.635  1.4743  0.4904 -0.3707
 2053TIP3   OH227573   4.728   0.877   5.561  0.2834 -0.3344  0.5645
 2053TIP3    H127574   4.644   0.837   5.538  0.1632  0.3742 -0.2957
 2053TIP3    H227575   4.737   0.949   5.498  0.1775  1.3921  2.4459
 2054TIP3   OH227576   6.353   2.436   2.319 -0.2711 -0.1848 -0.3386
 2054TIP3    H127577   6.274   2.388   2.292 -0.7803  0.2323  0.3505
 2054TIP3    H227578   6.371   2.405   2.408 -2.3461  2.8733  1.3624
 2055TIP3   OH227579   3.983   0.427   0.923 -0.8638 -0.2500  0.2115
 2055TIP3    H127580   3.918   0.480   0.876  2.1335  0.7682 -3.1902
 2055TIP3    H227581   3.983   0.343   0.876  0.1164 -0.3163  0.3200
 2056TIP3   OH227582   2.945   3.004  11.891 -0.0874 -0.1697  0.0978
 2056TIP3    H127583   2.930   3.085  11.843  0.3577 -0.5881 -0.7612
 2056TIP3    H227584   2.993   3.031  11.970 -2.2769  0.7312  1.1800
 2057TIP3   OH227585   1.634   4.178   3.297 -0.3557 -0.5311  0.5912
 2057TIP3    H127586   1.670   4.132   3.221 -2.3604 -2.1376  0.5381
 2057TIP3    H227587   1.545   4.203   3.271  0.3550  2.8716  0.8933
 2058TIP3   OH227588   1.487   6.801   3.300  0.1856  0.0190  0.1420
 2058TIP3    H127589   1.518   6.864   3.364 -2.7582  1.0438  0.6889
 2058TIP3    H227590   1.495   6.845   3.215  0.5858  0.0825  0.2110
 2059TIP3   OH227591   6.731   6.425  12.045 -0.0101 -0.2284  0.1476
 2059TIP3    H127592   6.822   6.453  12.049 -0.4604  1.2548  1.1285
 2059TIP3    H227593   6.718   6.372  12.123 -0.0253 -0.2990  0.0972
 2060TIP3   OH227594   6.565   5.597   0.915  0.3375 -0.0570  0.0592
 2060TIP3    H127595   6.504   5.551   0.859  0.3127 -0.4119  0.3721
 2060TIP3    H227596   6.616   5.653   0.856 -0.0885  0.0185 -0.2333
 2061TIP3   OH227597   4.914   3.385  14.613 -0.1647  0.1046  0.3036
 2061TIP3    H127598   4.835   3.433  14.638 -0.7213 -1.0725  0.9063
 2061TIP3    H227599   4.881   3.303  14.577  0.7798 -0.6172  1.0339
 2062TIP3   OH227600   2.882   2.500  12.699  0.1264 -0.1401  0.1774
 2062TIP3    H127601   2.938   2.488  12.622  0.6345 -0.3009  0.5647
 2062TIP3    H227602   2.919   2.441  12.765 -3.1197 -3.7096 -0.8564
 2063TIP3   OH227603   3.359   2.479  12.423 -0.2611  0.1351  0.0598
 2063TIP3    H127604   3.285   2.444  12.373 -0.4063  0.8663 -0.2709
 2063TIP3    H227605   3.325   2.559  12.464 -0.4185 -0.9629  2.1637
 2064TIP3   OH227606   3.813   1.963   0.055  0.4916  0.0881 -0.0004
 2064TIP3    H127607   3.805   1.932  -0.036  1.0515 -0.4443  0.1215
 2064TIP3    H227608   3.897   2.008   0.057  0.4785  0.1008  0.2511
 2065TIP3   OH227609   1.753   5.362  16.379 -1.4219 -0.0511 -0.8365
 2065TIP3    H127610   1.785   5.305  16.449  0.1696  0.3737 -1.2004
 2065TIP3    H227611   1.658   5.365  16.393 -1.2400 -0.7172  0.7397
 2066TIP3   OH227612   5.455   0.852  15.693 -0.1472 -0.8053 -0.2247
 2066TIP3    H127613   5.464   0.901  15.611 -1.8981 -1.6768 -0.9838
 2066TIP3    H227614   5.385   0.790  15.677  1.2939 -2.9021  1.0493
 2067TIP3   OH227615   1.724   0.283  13.205 -0.1624 -0.1650 -0.3067
 2067TIP3    H127616   1.683   0.292  13.119 -0.3622 -1.5670 -0.3726
 2067TIP3    H227617   1.719   0.190  13.225 -0.6815  0.2109  1.5072
 2068TIP3   OH227618   2.557   3.768   1.225  0.0190  0.0833  0.1565
 2068TIP3    H127619   2.572   3.813   1.308  1.5819 -0.5483  0.2646
 2068TIP3    H227620   2.592   3.827   1.159  2.5476 -1.0656  0.3401
 2069TIP3   OH227621   0.498   0.944  15.731 -0.7153 -0.8053 -0.3785
 2069TIP3    H127622   0.489   0.853  15.704  0.3781 -1.7104  2.0257
 2069TIP3    H227623   0.551   0.985  15.662  0.0176 -2.3743 -0.7846
 2070TIP3   OH227624   2.611   6.619   2.482 -0.3202  0.3354  0.3043
 2070TIP3    H127625   2.565   6.584   2.558 -0.5481  1.5828  0.7504
 2070TIP3    H227626   2.598   6.714   2.487  2.0524  0.7125  0.2981
 2071TIP3   OH227627   0.907   1.064  10.247 -0.0596 -0.2336 -0.4441
 2071TIP3    H127628   0.887   1.100  10.333  1.6629 -0.3836  0.0690
 2071TIP3    H227629   1.002   1.073  10.239  0.1364 -2.3370 -1.3430
 2072TIP3   OH227630   2.208   0.587   5.848 -0.1439  0.1058 -0.0992
 2072TIP3    H127631   2.129   0.609   5.899 -1.0534  0.3767 -1.5629
 2072TIP3    H227632   2.201   0.493   5.833  0.3742 -0.0594  0.6705
 2073TIP3   OH227633   4.595   1.461  16.577  0.2588  0.0259 -0.2961
 2073TIP3    H127634   4.513   1.460  16.527 -0.0289 -2.0472  0.1331
 2073TIP3    H227635   4.646   1.389  16.540  0.4518 -0.9179  1.7191
 2074TIP3   OH227636   2.272   3.277   2.579  0.7714 -0.6582  0.1714
 2074TIP3    H127637   2.356   3.299   2.539  1.0556  0.3947  1.3226
 2074TIP3    H227638   2.235   3.210   2.520  3.3803 -2.8524  0.8011
 2075TIP3   OH227639   4.176   6.449   1.866  0.0019  0.1903 -0.1657
 2075TIP3    H127640   4.177   6.456   1.770 -0.4960  2.7188 -0.0676
 2075TIP3    H227641   4.248   6.506   1.895 -0.7317  0.5794  0.9665
 2076TIP3   OH227642   1.645   6.102  13.411 -0.0765  0.1251 -0.0296
 2076TIP3    H127643   1.703   6.147  13.473  2.3929  0.1282 -2.1476
 2076TIP3    H227644   1.578   6.062  13.466  1.9161  0.1578  2.6470
 2077TIP3   OH227645   2.765   1.124  15.856 -0.1557 -0.1661  0.2800
 2077TIP3    H127646   2.735   1.174  15.780 -1.4703 -2.0154 -0.4917
 2077TIP3    H227647   2.708   1.047  15.858  0.0129 -0.3162  2.9970
 2078TIP3   OH227648   2.384   4.455  14.077  0.3175  0.3257 -0.5922
 2078TIP3    H127649   2.450   4.520  14.103  0.2253  0.6945 -1.2570
 2078TIP3    H227650   2.435   4.378  14.051  0.3745 -0.9252  2.8026
 2079TIP3   OH227651   3.085   6.643   3.127  0.2065  0.3372 -0.0895
 2079TIP3    H127652   3.144   6.608   3.061  1.3379 -0.2091  1.1724
 2079TIP3    H227653   3.081   6.576   3.195 -2.0420  0.2690 -0.2061
 2080TIP3   OH227654   5.797   4.584  10.601  0.2329  0.5095 -0.4998
 2080TIP3    H127655   5.827   4.673  10.620 -0.2020  1.1319 -2.4748
 2080TIP3    H227656   5.709   4.596  10.564 -1.6733 -1.0852  3.0084
 2081TIP3   OH227657   4.598   0.691  15.619 -0.2337  0.2104 -0.2259
 2081TIP3    H127658   4.538   0.736  15.678  1.1991 -0.6142  2.0173
 2081TIP3    H227659   4.683   0.732  15.636  0.0115  0.9072 -2.8330
 2082TIP3   OH227660   1.561   3.249   2.788  0.1016  0.0355 -0.0843
 2082TIP3    H127661   1.551   3.219   2.879 -0.9507  2.7645  0.8050
 2082TIP3    H227662   1.512   3.186   2.736  0.4768 -1.4260  1.2616
 2083TIP3   OH227663   4.604   6.461  12.013 -0.4399 -0.3479  0.0672
 2083TIP3    H127664   4.516   6.491  11.990 -0.4371 -0.3920  0.0003
 2083TIP3    H227665   4.651   6.541  12.036 -0.7832 -0.4227  1.0689
 2084TIP3   OH227666   4.249   1.904   3.604  0.0499  0.3186  0.4265
 2084TIP3    H127667   4.177   1.967   3.607  0.8549  1.8439 -4.2545
 2084TIP3    H227668   4.207   1.820   3.583 -0.4934  0.9636 -1.1392
 2085TIP3   OH227669   1.888   6.798   4.821  0.2158 -0.1231 -0.0597
 2085TIP3    H127670   1.924   6.874   4.775 -2.6971  1.6984  0.3909
 2085TIP3    H227671   1.873   6.829   4.910  0.4636 -1.7649  0.5897
 2086TIP3   OH227672   2.329   1.138   5.623 -0.7183 -0.1233  0.1694
 2086TIP3    H127673   2.399   1.091   5.667  0.6338  1.8387  0.2230
 2086TIP3    H227674   2.278   1.177   5.694 -1.5931 -1.1389  0.1159
 2087TIP3   OH227675   4.077   6.193  11.590 -0.3268  0.1085 -0.8449
 2087TIP3    H127676   4.017   6.174  11.518 -1.2031 -1.4468  0.2325
 2087TIP3    H227677   4.118   6.109  11.609 -0.4284  0.3880  0.7320
 2088TIP3   OH227678   6.689   1.204  15.345  0.6546 -0.0594 -0.2022
 2088TIP3    H127679   6.636   1.226  15.268  1.1709  0.0152 -0.5465
 2088TIP3    H227680   6.648   1.126  15.381 -1.0614  1.2737  0.8832
 2089TIP3   OH227681   4.133   1.774   4.392 -0.1071  0.0343 -0.3691
 2089TIP3    H127682   4.166   1.697   4.346  3.4899  2.1334 -1.8019
 2089TIP3    H227683   4.096   1.829   4.322  0.0612  0.7985  0.1254
 2090TIP3   OH227684   0.857   1.500   5.650  0.1986  0.7417  0.3051
 2090TIP3    H127685   0.787   1.451   5.606  0.8384  0.6125 -0.6059
 2090TIP3    H227686   0.894   1.438   5.713  1.2271 -0.1113 -1.0755
 2091TIP3   OH227687   4.749   4.642  15.933  0.2495 -0.3653 -0.6398
 2091TIP3    H127688   4.777   4.704  15.865 -0.3623 -1.7439 -2.2277
 2091TIP3    H227689   4.789   4.675  16.013  0.9467  1.3795 -1.6445
 2092TIP3   OH227690   6.292   3.785   5.996 -0.2439  0.2134 -0.3813
 2092TIP3    H127691   6.373   3.748   6.030  0.7574  0.7067 -2.1128
 2092TIP3    H227692   6.308   3.879   5.992 -1.3243  0.4478  0.2788
 2093TIP3   OH227693   2.977   3.323  13.207  0.5028 -0.4112  0.0685
 2093TIP3    H127694   3.062   3.366  13.216  0.3260  0.2628 -1.1475
 2093TIP3    H227695   2.997   3.229  13.206  1.1378 -0.2879  0.5925
 2094TIP3   OH227696   1.163   2.895  14.759  0.3955  0.3601 -0.0301
 2094TIP3    H127697   1.248   2.897  14.803  1.3919  0.1998 -1.8558
 2094TIP3    H227698   1.168   2.819  14.701 -1.7430 -0.7869  1.1734
 2095TIP3   OH227699   5.166   6.609   0.793 -0.4984  0.3923  0.2945
 2095TIP3    H127700   5.183   6.699   0.818 -0.9929 -0.1409  2.7994
 2095TIP3    H227701   5.252   6.573   0.770 -0.0059  0.9847  1.1618
 2096TIP3   OH227702   0.243   5.177   5.105 -0.4655  0.9007  0.4732
 2096TIP3    H127703   0.148   5.167   5.095 -0.4569  1.8132 -0.9495
 2096TIP3    H227704   0.272   5.097   5.149 -1.9111  0.6927  1.1025
 2097TIP3   OH227705   2.845   2.921   2.344  0.6437  0.0792  0.0285
 2097TIP3    H127706   2.923   2.974   2.332  1.0681 -0.6227 -0.3717
 2097TIP3    H227707   2.858   2.878   2.428  0.6799 -0.0312 -0.0339
 2098TIP3   OH227708   4.962   1.595   5.675 -0.3247 -0.5709 -0.1689
 2098TIP3    H127709   4.893   1.611   5.739  1.0883 -0.0180  1.2980
 2098TIP3    H227710   4.957   1.669   5.615 -0.4264 -0.0598  0.4654
 2099TIP3   OH227711   0.293   1.526   0.920  0.3786 -0.5547 -0.5559
 2099TIP3    H127712   0.329   1.602   0.967 -0.4579  0.3671 -1.3711
 2099TIP3    H227713   0.346   1.519   0.841  0.2832 -0.6635 -0.6101
 2100TIP3   OH227714   3.362   3.512   1.324 -0.8452 -0.4061 -0.1283
 2100TIP3    H127715   3.281   3.562   1.333 -0.1810  0.6467  0.1891
 2100TIP3    H227716   3.432   3.575   1.345  0.0612 -1.2516 -0.5200
 2101TIP3   OH227717   0.430   0.273   3.792  0.2397  0.1645  0.1410
 2101TIP3    H127718   0.491   0.347   3.793 -1.2953  1.5186 -0.1782
 2101TIP3    H227719   0.457   0.220   3.717  1.9717 -0.1713  0.9522
 2102TIP3   OH227720   6.262   2.577  10.871  0.2533  0.0993 -0.1732
 2102TIP3    H127721   6.348   2.613  10.889  0.0734  0.6196 -0.3484
 2102TIP3    H227722   6.279   2.491  10.832  0.6632 -0.6493  1.5531
 2103TIP3   OH227723   2.063   2.880  11.756 -0.0410  0.9977  0.5889
 2103TIP3    H127724   2.100   2.959  11.717  1.1737  0.1436 -0.0978
 2103TIP3    H227725   1.985   2.861  11.703  0.7310  0.7070 -0.4813
 2104TIP3   OH227726   1.021   6.396  16.337  1.0243  0.8101  0.4505
 2104TIP3    H127727   1.056   6.316  16.377  0.3642  0.2637 -0.0383
 2104TIP3    H227728   1.029   6.382  16.243  1.0831  1.4052  0.3622
 2105TIP3   OH227729   0.611   5.039   1.799 -0.0509 -0.2637  0.0833
 2105TIP3    H127730   0.555   5.067   1.726 -1.1672 -0.0776  0.9723
 2105TIP3    H227731   0.607   5.112   1.860 -0.0675 -0.8883  0.8390
 2106TIP3   OH227732   6.569   2.165   4.194 -0.0754 -0.4546  0.0990
 2106TIP3    H127733   6.602   2.195   4.109 -0.7813  2.0781  0.6117
 2106TIP3    H227734   6.618   2.217   4.258 -1.0782 -0.7132  1.1114
 2107TIP3   OH227735   0.173   2.628  10.912 -0.3041 -0.6475  0.8047
 2107TIP3    H127736   0.136   2.584  10.989 -0.4361  0.3238  1.3212
 2107TIP3    H227737   0.268   2.626  10.927 -0.2745 -1.2168  0.5611
 2108TIP3   OH227738   4.530   5.021  14.174  0.5749  0.5601 -0.9925
 2108TIP3    H127739   4.589   5.004  14.247  0.6443  0.4516 -1.0748
 2108TIP3    H227740   4.442   5.004  14.209  0.6733 -0.4635 -1.2195
 2109TIP3   OH227741   0.908   3.859   3.391  0.5006 -0.3163  0.7004
 2109TIP3    H127742   0.934   3.767   3.398 -0.1357 -0.4613  1.2640
 2109TIP3    H227743   0.985   3.902   3.354  0.4071 -1.2481 -0.6555
 2110TIP3   OH227744   2.868   4.278  13.051  0.4361 -0.0915 -1.0969
 2110TIP3    H127745   2.899   4.268  12.961 -1.5526  0.3470 -1.8777
 2110TIP3    H227746   2.905   4.361  13.080  0.3808  0.1982 -1.8294
 2111TIP3   OH227747   6.516   3.582  15.835  0.1049 -0.0803  0.2327
 2111TIP3    H127748   6.538   3.555  15.746 -0.5837 -0.0516  0.0512
 2111TIP3    H227749   6.426   3.552  15.848  0.2224 -0.1480  0.9436
 2112TIP3   OH227750   1.003   1.658  15.871 -0.4991  0.0985 -0.8231
 2112TIP3    H127751   1.019   1.749  15.896 -1.1064 -0.1313  0.4500
 2112TIP3    H227752   0.913   1.657  15.839 -1.2927 -0.4415  1.2803
 2113TIP3   OH227753   2.280   5.619  10.189 -0.2058  0.2370  0.1331
 2113TIP3    H127754   2.229   5.623  10.270 -1.2542 -1.8774 -0.3670
 2113TIP3    H227755   2.321   5.706  10.183 -0.0627  0.4548  2.9118
 2114TIP3   OH227756   0.726   6.247  16.739 -0.8226  0.2319  0.3056
 2114TIP3    H127757   0.739   6.212  16.827 -0.7396 -2.4368 -0.6818
 2114TIP3    H227758   0.814   6.263  16.706 -0.7813 -0.4449  0.0851
 2115TIP3   OH227759   4.325   6.081  13.274 -0.1853  0.1172  0.0141
 2115TIP3    H127760   4.411   6.120  13.259  0.2764 -1.0924 -0.6887
 2115TIP3    H227761   4.265   6.132  13.220  0.1372  0.8017  0.3012
 2116TIP3   OH227762   5.427   6.748   3.402 -0.1535 -0.1385  0.0112
 2116TIP3    H127763   5.507   6.698   3.390 -0.1663 -0.2390  0.3272
 2116TIP3    H227764   5.415   6.752   3.497 -1.8562 -2.2545 -0.0280
 2117TIP3   OH227765   5.683   2.828   5.120  0.2137  0.4539 -0.9792
 2117TIP3    H127766   5.612   2.764   5.114 -0.3365  1.1128 -1.7989
 2117TIP3    H227767   5.687   2.868   5.033 -0.2846  2.3782 -0.1760
 2118TIP3   OH227768   2.692   5.608   3.150 -0.0892 -0.5028  0.5955
 2118TIP3    H127769   2.694   5.698   3.183  1.5975 -0.6179  0.8952
 2118TIP3    H227770   2.601   5.594   3.123 -0.5070  1.0868  1.0906
 2119TIP3   OH227771   5.831   2.169  11.501  0.1377 -0.2706  0.0108
 2119TIP3    H127772   5.897   2.103  11.479 -0.3497  0.2354 -3.6882
 2119TIP3    H227773   5.750   2.135  11.463 -1.0877  0.5475  1.7809
 2120TIP3   OH227774   5.336   3.824  12.692 -0.3859  0.2334 -0.4457
 2120TIP3    H127775   5.410   3.884  12.684 -0.6766  0.6509 -0.0727
 2120TIP3    H227776   5.348   3.784  12.778 -0.8805  0.7002 -0.1541
 2121TIP3   OH227777   5.459   0.779  14.282 -0.5851  0.0395  0.1512
 2121TIP3    H127778   5.513   0.708  14.317  1.1884  0.6748 -1.1120
 2121TIP3    H227779   5.413   0.813  14.358  1.5957  0.0740  1.5662
 2122TIP3   OH227780   0.801   1.153  12.345 -0.3019  0.1810 -0.4000
 2122TIP3    H127781   0.718   1.115  12.317 -1.3592 -0.0153  2.6546
 2122TIP3    H227782   0.864   1.081  12.337 -0.2729  0.3911 -2.9452
 2123TIP3   OH227783   2.644   1.213   2.831 -0.0416 -0.3690  0.7399
 2123TIP3    H127784   2.656   1.182   2.920 -0.3824  0.3644  1.0519
 2123TIP3    H227785   2.627   1.134   2.779 -2.3641 -0.6046  1.7399
 2124TIP3   OH227786   5.331   2.198  14.839  0.6301  0.1891 -0.7991
 2124TIP3    H127787   5.244   2.237  14.827 -0.1809 -1.1242  0.3871
 2124TIP3    H227788   5.388   2.272  14.858 -0.3175  1.0397 -1.1403
 2125TIP3   OH227789   0.841   2.209  16.418 -0.0140  0.6171  0.7294
 2125TIP3    H127790   0.805   2.163  16.342 -0.8553  0.8388  0.9790
 2125TIP3    H227791   0.810   2.158  16.493  1.3103  0.0521  0.9195
 2126TIP3   OH227792   6.450   0.751  12.671 -0.0743 -0.5409  0.2775
 2126TIP3    H127793   6.540   0.753  12.705  0.2134 -1.6041 -0.3548
 2126TIP3    H227794   6.398   0.721  12.745  0.5316 -2.7323 -0.1097
 2127TIP3   OH227795   6.618   2.379  15.960  0.3886 -0.5403  0.2780
 2127TIP3    H127796   6.653   2.413  16.043  1.3709 -1.1772  0.1535
 2127TIP3    H227797   6.530   2.416  15.953  0.6184  0.2126  1.1834
 2128TIP3   OH227798   2.442   6.735   1.321  0.1993  0.0357  0.6598
 2128TIP3    H127799   2.504   6.674   1.360  0.9508  0.9902  0.9695
 2128TIP3    H227800   2.421   6.797   1.390 -0.4403  0.2329  0.3025
 2129TIP3   OH227801   6.076   3.618   0.615 -0.6600 -0.8005  0.0228
 2129TIP3    H127802   6.161   3.581   0.591 -0.6239  0.1956 -1.4704
 2129TIP3    H227803   6.094   3.709   0.636 -1.1907 -0.8856  0.9489
 2130TIP3   OH227804   5.580   6.262  13.084 -0.6338 -0.2566 -0.1732
 2130TIP3    H127805   5.656   6.268  13.027  0.7374 -0.4135  1.5592
 2130TIP3    H227806   5.554   6.353  13.100 -2.9196 -0.1886 -3.3069
 2131TIP3   OH227807   1.031   2.123   4.832  0.0761  0.0146 -0.2459
 2131TIP3    H127808   1.004   2.142   4.742  0.7978  1.4178 -0.1994
 2131TIP3    H227809   0.953   2.087   4.874  0.2929 -2.7802 -1.9744
 2132TIP3   OH227810   5.871   4.627  12.270 -0.2436 -0.3357  0.0917
 2132TIP3    H127811   5.822   4.700  12.231  0.4058  0.4513  0.7065
 2132TIP3    H227812   5.871   4.559  12.202 -0.2382  0.5165 -0.7866
 2133TIP3   OH227813   1.944   5.927  12.292  0.2365 -0.1023  0.5299
 2133TIP3    H127814   1.892   5.963  12.364 -0.8091  1.1264 -0.7719
 2133TIP3    H227815   2.020   5.985  12.286 -0.5972  0.9292 -0.4837
 2134TIP3   OH227816   0.678   3.438   1.103 -0.1476 -0.2569  0.8661
 2134TIP3    H127817   0.650   3.399   1.186  0.1528 -0.3698  0.9198
 2134TIP3    H227818   0.617   3.510   1.087 -0.4235 -0.4577  1.0060
 2135TIP3   OH227819   2.892   5.050  12.613  0.4269  0.1177 -0.2880
 2135TIP3    H127820   2.804   5.086  12.622  0.1276 -0.5847 -0.3589
 2135TIP3    H227821   2.906   5.042  12.518  0.4657 -0.0223 -0.2705
 2136TIP3   OH227822   2.077   0.238  13.971 -0.0011  0.0016 -0.3870
 2136TIP3    H127823   2.018   0.267  14.040 -0.4357  2.0767 -1.5282
 2136TIP3    H227824   2.020   0.217  13.897  0.4880 -1.6466 -0.3252
 2137TIP3   OH227825   4.367   0.087   4.787  0.0508 -0.7397 -0.3355
 2137TIP3    H127826   4.374   0.069   4.881  1.7481 -0.6540 -0.4088
 2137TIP3    H227827   4.354   0.002   4.746  1.0551 -1.0064 -0.1355
 2138TIP3   OH227828   6.319   4.375   1.137  0.6390  0.0465 -0.1575
 2138TIP3    H127829   6.405   4.338   1.119 -0.3941 -1.3161 -2.9294
 2138TIP3    H227830   6.322   4.464   1.102  1.2147  0.3913  0.7419
 2139TIP3   OH227831   1.273   5.221  12.060  0.3901  0.3131 -0.0038
 2139TIP3    H127832   1.354   5.261  12.092  0.1390  0.0840  0.9524
 2139TIP3    H227833   1.297   5.129  12.044  1.0082  0.8210 -2.3508
 2140TIP3   OH227834   4.448   4.090  17.008 -0.8866 -0.0460 -0.1155
 2140TIP3    H127835   4.398   4.023  17.055 -1.8083 -1.0125 -2.3542
 2140TIP3    H227836   4.383   4.136  16.955  0.1902  0.5720 -0.9437
 2141TIP3   OH227837   1.837   1.256   0.551 -0.1816  0.2906 -0.3574
 2141TIP3    H127838   1.861   1.342   0.518  0.0032  0.5447  0.4203
 2141TIP3    H227839   1.857   1.260   0.645  0.8302 -0.9403 -0.4954
 2142TIP3   OH227840   1.687   5.879   5.564  0.0848  0.3068  0.0994
 2142TIP3    H127841   1.661   5.907   5.652  2.4448 -0.0449  0.9936
 2142TIP3    H227842   1.706   5.786   5.574 -2.0298 -0.3435 -1.4342
 2143TIP3   OH227843   0.099   2.203  12.001 -0.2720 -0.3273  0.2528
 2143TIP3    H127844   0.049   2.281  12.024 -2.6223 -1.9758  1.2242
 2143TIP3    H227845   0.096   2.148  12.080  3.0624 -0.6390  0.3158
 2144TIP3   OH227846   3.720   2.815   4.280 -0.1792  0.1230 -0.0211
 2144TIP3    H127847   3.791   2.783   4.223  0.0013  0.4550  0.0162
 2144TIP3    H227848   3.699   2.901   4.245 -0.1357  0.2878  0.3555
 2145TIP3   OH227849   0.695   1.774  13.343 -0.3345  0.2270  0.7424
 2145TIP3    H127850   0.657   1.853  13.382 -0.5883  0.5861 -0.1896
 2145TIP3    H227851   0.645   1.702  13.381 -0.7656  0.5883  0.8696
 2146TIP3   OH227852   0.678   0.336  14.502 -0.5572  0.1111 -0.4821
 2146TIP3    H127853   0.628   0.407  14.461 -0.1128  0.4649 -0.4236
 2146TIP3    H227854   0.768   0.368  14.503 -0.2762 -0.6457 -0.8677
 2147TIP3   OH227855   5.135   1.579   5.369 -0.0878 -0.3034  0.4536
 2147TIP3    H127856   5.044   1.551   5.378 -0.2475 -0.7554 -1.8631
 2147TIP3    H227857   5.130   1.675   5.367 -0.8315 -0.3191 -1.5572
 2148TIP3   OH227858   1.675   3.887  11.873  0.7168  0.2812  0.2796
 2148TIP3    H127859   1.732   3.873  11.949 -1.8457 -0.8544  2.1687
 2148TIP3    H227860   1.641   3.799  11.852  0.5899  0.7358 -1.5429
 2149TIP3   OH227861   3.062   1.381  14.347 -0.0417  0.7912 -0.7943
 2149TIP3    H127862   3.127   1.372  14.417  1.4150  1.2773 -2.0258
 2149TIP3    H227863   3.105   1.437  14.282 -2.1198  2.0246 -1.1851
 2150TIP3   OH227864   2.220   6.355  10.679 -0.1152  0.5501 -0.0208
 2150TIP3    H127865   2.177   6.374  10.762 -1.0203  1.5817 -0.6971
 2150TIP3    H227866   2.228   6.259  10.677 -0.7723  0.4632  0.9217
 2151TIP3   OH227867   4.187   3.451   2.181 -0.0488 -0.0279 -0.0047
 2151TIP3    H127868   4.198   3.540   2.148  1.8963 -0.3038 -0.1843
 2151TIP3    H227869   4.269   3.431   2.226  0.2395 -2.3351 -1.3934
 2152TIP3   OH227870   5.704   3.601  10.568  0.9120  0.0497  0.1396
 2152TIP3    H127871   5.660   3.644  10.641  0.4805 -0.5859  0.2624
 2152TIP3    H227872   5.718   3.671  10.504 -1.8588 -0.0098 -0.6715
 2153TIP3   OH227873   3.994   2.423   1.085  0.3870 -0.8828  0.1797
 2153TIP3    H127874   4.017   2.515   1.098 -0.0999 -0.8820  1.1062
 2153TIP3    H227875   3.960   2.395   1.170  0.4554 -1.8970 -0.1198
 2154TIP3   OH227876   5.272   3.707  13.148 -0.3661 -0.3726 -0.4316
 2154TIP3    H127877   5.193   3.760  13.154 -0.4166 -0.4446 -0.4564
 2154TIP3    H227878   5.275   3.660  13.232 -0.4304 -0.4815 -0.4893
 2155TIP3   OH227879   2.781   5.541   5.664 -0.4935  0.1105  0.4966
 2155TIP3    H127880   2.728   5.553   5.585 -0.3755  1.6213  0.6191
 2155TIP3    H227881   2.788   5.629   5.701  1.2354 -0.2339  1.0503
 2156TIP3   OH227882   3.381   5.208  13.141 -0.5216 -0.1102  0.3133
 2156TIP3    H127883   3.397   5.189  13.049  2.0322 -0.9298  0.8256
 2156TIP3    H227884   3.435   5.285  13.159  0.4804 -1.0461  1.4911
 2157TIP3   OH227885   2.093   4.860  11.108 -0.0526 -0.0042  0.1490
 2157TIP3    H127886   2.059   4.781  11.149 -2.2837  0.2113 -1.1313
 2157TIP3    H227887   2.154   4.829  11.042 -1.7889 -0.7870 -1.1501
 2158TIP3   OH227888   6.363   4.244   0.161  0.1461  0.3904 -0.3069
 2158TIP3    H127889   6.283   4.271   0.205 -0.9596 -0.9554 -1.4133
 2158TIP3    H227890   6.404   4.182   0.221 -0.1048  0.3832 -0.1447
 2159TIP3   OH227891   4.447   5.775  13.994 -0.1050  0.2694  0.4312
 2159TIP3    H127892   4.446   5.732  13.908  0.6000 -0.1146  0.6103
 2159TIP3    H227893   4.527   5.826  13.994 -1.3589  2.3382 -0.1245
 2160TIP3   OH227894   0.063   4.970  16.221 -0.2317 -0.2347 -0.0675
 2160TIP3    H127895   0.022   4.990  16.305  1.3428 -1.0709  0.9719
 2160TIP3    H227896   0.151   5.007  16.228  0.1743 -0.9519 -1.0553
 2161TIP3   OH227897   3.798   3.687   2.830  0.2003  0.0960 -0.1990
 2161TIP3    H127898   3.871   3.645   2.877 -0.3770 -1.9037 -0.9769
 2161TIP3    H227899   3.730   3.698   2.896  0.1031 -0.8877 -0.1187
 2162TIP3   OH227900   1.332   0.243  14.016 -1.0083  0.6299 -0.1103
 2162TIP3    H127901   1.328   0.249  13.921 -1.3573 -0.2236 -0.1531
 2162TIP3    H227902   1.258   0.188  14.040  0.2478 -0.8723  0.4890
 2163TIP3   OH227903   5.197   4.103   2.147 -0.4935 -0.1247 -0.2094
 2163TIP3    H127904   5.232   4.151   2.222 -0.3063  1.4945 -1.2674
 2163TIP3    H227905   5.271   4.095   2.087 -1.0370  0.1507 -0.9394
 2164TIP3   OH227906   3.940   0.713  12.264  0.1218 -0.4634 -0.3890
 2164TIP3    H127907   3.966   0.699  12.355  1.6785 -0.4557 -0.8064
 2164TIP3    H227908   3.973   0.800  12.242  2.1450 -1.5005 -1.7291
 2165TIP3   OH227909   0.061   3.161   0.906 -0.3021  0.3879  0.3853
 2165TIP3    H127910   0.148   3.176   0.871 -0.3410 -0.1527  0.0516
 2165TIP3    H227911   0.033   3.247   0.938  0.3028  0.5849  0.3909
 2166TIP3   OH227912   0.620   1.178   5.777 -0.4738  0.3584 -0.0044
 2166TIP3    H127913   0.651   1.216   5.860 -0.8808 -1.2273  0.9244
 2166TIP3    H227914   0.642   1.244   5.711  0.4566  1.3950  1.2692
 2167TIP3   OH227915   5.791   4.337  13.464  0.0276 -0.5392  0.0784
 2167TIP3    H127916   5.872   4.359  13.418  0.5996  0.2791  1.4085
 2167TIP3    H227917   5.773   4.414  13.518 -0.3440 -1.6181  1.5672
 2168TIP3   OH227918   4.608   3.577  11.464 -0.3958 -0.0701 -0.5803
 2168TIP3    H127919   4.677   3.543  11.407 -1.1873  0.5476 -1.9385
 2168TIP3    H227920   4.624   3.671  11.469  1.7242 -0.4489  3.0946
 2169TIP3   OH227921   3.690   2.642   3.981 -0.2251 -0.3934 -0.2706
 2169TIP3    H127922   3.733   2.557   3.972  2.0067  0.5946  0.1351
 2169TIP3    H227923   3.606   2.622   4.022  0.5445 -2.3382  0.5032
 2170TIP3   OH227924   4.268   6.303   5.138  0.5931 -0.0699  0.1411
 2170TIP3    H127925   4.250   6.215   5.107  2.2412 -1.3240  2.4176
 2170TIP3    H227926   4.359   6.300   5.167  1.4276  3.0373 -1.6623
 2171TIP3   OH227927   1.936   0.075  13.528 -0.9830  0.3368  0.2061
 2171TIP3    H127928   1.950  -0.016  13.557 -1.0664  0.1159 -0.4406
 2171TIP3    H227929   2.001   0.088  13.459 -0.0318  1.2207  1.2320
 2172TIP3   OH227930   5.572   3.929   4.314 -0.6829 -0.0535 -0.3655
 2172TIP3    H127931   5.590   4.021   4.328  1.8714 -0.6689  0.9638
 2172TIP3    H227932   5.558   3.921   4.219  0.0646  1.5386 -0.6433
 2173TIP3   OH227933   6.430   3.253  11.676  0.1708  0.2795  0.0006
 2173TIP3    H127934   6.388   3.209  11.750  2.2017  0.6401  1.4298
 2173TIP3    H227935   6.357   3.294  11.629 -1.3200 -1.0773  1.0093
 2174TIP3   OH227936   3.038   2.881  10.910 -0.2930  0.4460  0.2138
 2174TIP3    H127937   2.972   2.820  10.877  0.0627  0.4541 -0.5504
 2174TIP3    H227938   2.997   2.967  10.902 -0.0205  0.5026 -0.7512
 2175TIP3   OH227939   3.299   5.624  12.243  0.4968 -0.1438  0.4430
 2175TIP3    H127940   3.206   5.601  12.251  0.8882 -1.5756  1.2094
 2175TIP3    H227941   3.324   5.654  12.330  0.9954 -0.7434  0.5085
 2176TIP3   OH227942   6.171   1.558  11.376  0.2641  0.9516 -0.3043
 2176TIP3    H127943   6.107   1.493  11.405  0.2689  1.5215  1.0597
 2176TIP3    H227944   6.158   1.563  11.281 -0.1107 -0.6189 -0.3710
 2177TIP3   OH227945   2.655   2.637  14.101  0.5135  0.3960 -0.0630
 2177TIP3    H127946   2.633   2.545  14.093  1.2594  0.2443 -0.4536
 2177TIP3    H227947   2.658   2.669  14.010  0.1935  0.8229  0.0710
 2178TIP3   OH227948   4.343   5.039   4.907  0.0892 -0.5321  0.2075
 2178TIP3    H127949   4.268   5.093   4.881  0.8236  1.0240  1.1613
 2178TIP3    H227950   4.353   5.056   5.000  1.2917 -1.1688  0.2087
 2179TIP3   OH227951   3.743   1.842  14.854 -0.0474  0.2830  0.2279
 2179TIP3    H127952   3.795   1.774  14.897 -0.3597 -0.2075 -0.1567
 2179TIP3    H227953   3.719   1.804  14.770 -0.7023  0.6536  0.2416
 2180TIP3   OH227954   5.278   0.055  13.299  0.5647  0.0024  0.4097
 2180TIP3    H127955   5.229  -0.026  13.312  0.4412  0.0676  0.3461
 2180TIP3    H227956   5.213   0.118  13.267  0.6738  0.1086  0.3970
 2181TIP3   OH227957   4.771   6.151   3.155  0.2124  0.1382  0.7419
 2181TIP3    H127958   4.833   6.223   3.157 -0.5162  0.8406  3.4894
 2181TIP3    H227959   4.817   6.079   3.111  2.9038  0.6988  2.4123
 2182TIP3   OH227960   2.885   2.980   5.284  0.0411  0.0458  0.5738
 2182TIP3    H127961   2.923   3.026   5.209  1.8980 -0.3905  1.1742
 2182TIP3    H227962   2.796   2.959   5.258  0.0319  1.6071 -0.7441
 2183TIP3   OH227963   6.217   0.089   4.802  0.1008  0.4096 -0.1437
 2183TIP3    H127964   6.259   0.044   4.728  0.8472  0.9740 -0.0742
 2183TIP3    H227965   6.290   0.128   4.850 -0.2244 -1.0862  1.6774
 2184TIP3   OH227966   3.907   2.608  12.064  0.3926 -0.0644  0.3974
 2184TIP3    H127967   3.921   2.519  12.097 -0.4257 -0.4895 -0.3452
 2184TIP3    H227968   3.899   2.597  11.969  0.1876  0.7921  0.3064
 2185TIP3   OH227969   6.669   2.867   0.565  0.1222  0.0253  0.4928
 2185TIP3    H127970   6.590   2.881   0.512  1.1179  0.9906 -0.7935
 2185TIP3    H227971   6.708   2.954   0.573  1.0690 -0.4392  1.1226
 2186TIP3   OH227972   4.339   5.273   3.334 -0.5434  0.6226  0.7088
 2186TIP3    H127973   4.309   5.359   3.306  0.0467  0.3022 -0.9976
 2186TIP3    H227974   4.321   5.216   3.259 -0.0346 -0.5437  1.4536
 2187TIP3   OH227975   6.013   5.169  11.968  0.9630  0.1504 -0.7173
 2187TIP3    H127976   6.093   5.215  11.941  1.1732 -0.6248 -1.4413
 2187TIP3    H227977   6.040   5.118  12.044  1.1865 -0.1864 -1.0199
 2188TIP3   OH227978   2.414   4.206  16.115  0.1894  0.0496 -0.2370
 2188TIP3    H127979   2.479   4.221  16.184 -1.0320  0.9624  0.7627
 2188TIP3    H227980   2.421   4.282  16.058 -1.5893  1.4175  1.2331
 2189TIP3   OH227981   4.388   2.442  13.991  0.5980  0.5315  0.5580
 2189TIP3    H127982   4.301   2.413  14.018 -0.4801  1.7707 -1.3439
 2189TIP3    H227983   4.436   2.361  13.975 -0.8984 -0.2268 -0.3427
 2190TIP3   OH227984   4.570   5.014  11.386 -0.6966  0.5987 -0.6321
 2190TIP3    H127985   4.588   5.106  11.366 -0.1301  0.9442  1.2543
 2190TIP3    H227986   4.610   4.965  11.314  1.6169  1.7141 -0.1991
 2191TIP3   OH227987   1.591   2.959   2.751 -0.0308  0.1471  0.1023
 2191TIP3    H127988   1.636   2.995   2.675  0.8612 -0.8425  0.1468
 2191TIP3    H227989   1.531   2.893   2.715 -3.2221  2.9256 -0.2117
 2192TIP3   OH227990   5.134   2.897   2.135 -0.3214 -0.1291 -0.2040
 2192TIP3    H127991   5.127   2.884   2.041 -1.6437  1.0847 -0.2951
 2192TIP3    H227992   5.187   2.823   2.165  2.3164  0.7912 -2.2021
 2193TIP3   OH227993   5.620   6.085   4.258 -0.9413 -0.0707 -0.0832
 2193TIP3    H127994   5.699   6.113   4.304 -0.1749 -1.0268 -0.7797
 2193TIP3    H227995   5.593   6.006   4.303 -1.0091 -0.2139 -0.3741
 2194TIP3   OH227996   0.549   0.059  15.486  0.0569  0.3549  0.4978
 2194TIP3    H127997   0.530  -0.026  15.446 -0.1887  0.6926 -0.1288
 2194TIP3    H227998   0.595   0.038  15.567  0.7881 -0.3493 -0.0848
 2195TIP3   OH227999   5.437   0.066  13.662  0.1045 -0.6406 -0.5723
 2195TIP3    H128000   5.483   0.082  13.579  1.4397  2.3005  0.6173
 2195TIP3    H228001   5.467  -0.021  13.689  1.6853 -0.5667 -1.9005
 2196TIP3   OH228002   2.986   0.508   2.417 -0.3539  0.0942  0.3376
 2196TIP3    H128003   3.063   0.542   2.372  0.4902 -0.4169  1.3488
 2196TIP3    H228004   2.981   0.417   2.390  0.3258 -0.2950  1.4518
 2197TIP3   OH228005   0.104   3.035   2.724  0.0157  0.2847 -0.6656
 2197TIP3    H128006   0.123   2.944   2.748 -1.8935  0.4861  2.1527
 2197TIP3    H228007   0.118   3.084   2.805 -1.9470  1.9871 -1.2691
 2198TIP3   OH228008   3.147   0.297   2.953 -0.1060  0.3403 -0.0616
 2198TIP3    H128009   3.198   0.218   2.971  2.5025  1.8266 -0.4329
 2198TIP3    H228010   3.145   0.301   2.857 -0.6702  0.4806 -0.0449
 2199TIP3   OH228011   6.135   4.156   3.039 -0.5839 -0.4301  0.6019
 2199TIP3    H128012   6.141   4.103   3.118  2.4682 -1.6665 -0.3142
 2199TIP3    H228013   6.209   4.216   3.045  0.0922 -0.9438 -1.5356
 2200TIP3   OH228014   5.104   5.031  11.999 -0.1974 -0.3678  0.2289
 2200TIP3    H128015   5.150   4.953  11.968 -2.2495 -1.7937  0.5502
 2200TIP3    H228016   5.050   5.058  11.925 -0.5984 -0.1745  0.5846
 2201TIP3   OH228017   0.294   0.355  15.234 -0.2316 -0.3334 -0.6246
 2201TIP3    H128018   0.305   0.338  15.327 -0.0676 -0.3845 -0.6525
 2201TIP3    H228019   0.200   0.360  15.222 -0.2377  0.1596 -0.3696
 2202TIP3   OH228020   2.222   3.550   4.452 -0.2290  0.3943  0.2943
 2202TIP3    H128021   2.216   3.472   4.507  1.1572  0.5147  0.6473
 2202TIP3    H228022   2.165   3.615   4.495 -0.1671  0.0740  0.8621
 2203TIP3   OH228023   2.431   3.163   0.720 -0.4755  0.1172  0.3775
 2203TIP3    H128024   2.449   3.247   0.678 -0.7567  0.0209  0.0642
 2203TIP3    H228025   2.386   3.186   0.802 -0.3828  0.2804  0.3820
 2204TIP3   OH228026   6.162   2.960   2.377 -0.2124 -0.3296 -0.4209
 2204TIP3    H128027   6.217   3.036   2.397 -0.0119  0.2580 -2.8710
 2204TIP3    H228028   6.211   2.913   2.310  0.2582 -3.3986  1.8509
 2205TIP3   OH228029   0.274   1.012  16.834 -0.0716 -1.0073  0.9739
 2205TIP3    H128030   0.354   0.974  16.797 -0.7464 -1.9058  0.3802
 2205TIP3    H228031   0.252   1.084  16.776  0.6210 -0.3681  1.4819
 2206TIP3   OH228032   0.616   4.693  14.095  0.0392 -0.1773  0.3024
 2206TIP3    H128033   0.591   4.768  14.041  0.7808 -0.9430 -1.1761
 2206TIP3    H228034   0.665   4.731  14.168  2.0278  0.7316 -1.3856
 2207TIP3   OH228035   3.174   1.974   3.695  0.2180  0.2202  0.2033
 2207TIP3    H128036   3.149   2.064   3.719  3.1439  0.4688  2.7821
 2207TIP3    H228037   3.246   1.952   3.754  1.8077 -2.6569 -2.5271
 2208TIP3   OH228038   6.168   3.200  14.276  0.4675 -0.6037 -0.1662
 2208TIP3    H128039   6.109   3.254  14.223  0.9527 -0.4367 -0.5454
 2208TIP3    H228040   6.245   3.255  14.290  0.5262 -0.8106  0.3511
 2209TIP3   OH228041   6.010   4.923  15.337 -0.0148  0.6425  0.1252
 2209TIP3    H128042   6.063   4.933  15.258 -0.3946 -0.4445 -0.2808
 2209TIP3    H228043   5.920   4.933  15.307 -0.1945 -0.3255  0.3146
 2210TIP3   OH228044   3.977   0.276   5.451  0.1167 -0.3248  0.7068
 2210TIP3    H128045   3.940   0.189   5.464  0.6294 -0.4273  1.5388
 2210TIP3    H228046   4.055   0.278   5.507  0.2807  0.5614  0.4657
 2211TIP3   OH228047   3.253   2.681  10.389  0.3190 -0.3792  0.3384
 2211TIP3    H128048   3.176   2.625  10.399 -0.8752  0.9001 -1.1946
 2211TIP3    H228049   3.221   2.770  10.408  1.3727  0.1949 -0.4570
 2212TIP3   OH228050   1.751   2.139   0.725 -0.5589 -0.4150  0.7955
 2212TIP3    H128051   1.814   2.117   0.656  0.7619 -0.7067  2.0577
 2212TIP3    H228052   1.766   2.232   0.743 -0.0280 -0.6368  1.5370
 2213TIP3   OH228053   5.195   4.600   3.922  0.4888  0.0458  0.0765
 2213TIP3    H128054   5.236   4.514   3.931  3.0789  1.1370 -0.1535
 2213TIP3    H228055   5.184   4.612   3.828 -1.6098 -0.7068  0.1748
 2214TIP3   OH228056   5.665   4.532  15.179  0.2681 -0.1514  0.1453
 2214TIP3    H128057   5.759   4.534  15.195  0.5488  1.7659 -1.3794
 2214TIP3    H228058   5.631   4.605  15.230 -0.1382  0.2190 -0.6483
 2215TIP3   OH228059   3.322   2.228  14.804  0.5316 -0.5549  0.3781
 2215TIP3    H128060   3.374   2.305  14.826  0.2951 -0.2737 -0.0198
 2215TIP3    H228061   3.233   2.252  14.829  0.3861 -0.5237 -0.1600
 2216TIP3   OH228062   1.531   1.974   1.163 -0.1722  0.7873 -0.9157
 2216TIP3    H128063   1.535   2.056   1.212  1.3354  0.8274 -1.0715
 2216TIP3    H228064   1.566   1.995   1.077 -1.0573  0.2831 -1.4111
 2217TIP3   OH228065   4.760   1.282   4.559  0.2627  0.2701  0.4257
 2217TIP3    H128066   4.807   1.240   4.631  1.7446  0.6854 -0.2551
 2217TIP3    H228067   4.689   1.331   4.601  0.3652 -0.4607  1.4775
 2218TIP3   OH228068   0.691   2.239   6.382  0.3899  0.0346  0.3660
 2218TIP3    H128069   0.639   2.318   6.397  2.3404  1.7413 -1.2381
 2218TIP3    H228070   0.665   2.210   6.295  0.0292 -0.8578  0.7562
 2219TIP3   OH228071   3.608   2.132  11.241 -0.1689 -0.4185 -0.1233
 2219TIP3    H128072   3.690   2.084  11.250 -0.6312 -1.7533 -2.2017
 2219TIP3    H228073   3.597   2.142  11.146 -2.1224  0.2237  0.1251
 2220TIP3   OH228074   5.358   1.577  15.082 -0.1796  0.2838  0.5570
 2220TIP3    H128075   5.355   1.566  14.987 -2.6963  0.9155  0.5000
 2220TIP3    H228076   5.342   1.490  15.117  1.4264 -0.0867  0.4682
 2221TIP3   OH228077   1.216   2.949  15.403  0.6406 -0.3825 -0.2480
 2221TIP3    H128078   1.221   2.917  15.313 -0.9771 -0.0096 -0.5182
 2221TIP3    H228079   1.237   3.042  15.396  1.3022 -0.5198 -0.1105
 2222TIP3   OH228080   5.177   3.552   3.506  0.7764 -0.5258 -0.2560
 2222TIP3    H128081   5.162   3.618   3.573 -3.8503 -0.7638 -0.7403
 2222TIP3    H228082   5.173   3.468   3.553  0.6158 -0.6179 -0.4324
 2223TIP3   OH228083   2.171   6.066  12.149 -0.1038 -0.0028  0.2340
 2223TIP3    H128084   2.121   6.056  12.068 -0.9846  0.2444  0.7413
 2223TIP3    H228085   2.241   6.127  12.126  2.0535 -2.8038 -1.4087
 2224TIP3   OH228086   6.566   1.608   3.952 -0.0658  0.3265 -0.0412
 2224TIP3    H128087   6.647   1.613   4.003  0.6343  0.6586 -1.1402
 2224TIP3    H228088   6.504   1.563   4.009  0.5654  1.0294  1.2373
 2225TIP3   OH228089   5.832   5.947  14.971 -0.3704  0.4642  0.1696
 2225TIP3    H128090   5.779   6.025  14.956 -0.9738 -0.0739 -0.6510
 2225TIP3    H228091   5.921   5.973  14.947 -0.3010  1.3070  1.3120
 2226TIP3   OH228092   3.809   5.133   0.143  0.1490 -0.2037  0.3971
 2226TIP3    H128093   3.718   5.121   0.117 -0.3473 -1.9025  2.5779
 2226TIP3    H228094   3.859   5.081   0.079 -0.1739  1.8833 -1.6881
 2227TIP3   OH228095   3.487   1.862   4.283 -0.6771  0.0689  0.1260
 2227TIP3    H128096   3.513   1.839   4.194  2.0767  1.1794  0.5646
 2227TIP3    H228097   3.517   1.953   4.294 -0.7896 -0.1122  2.2407
 2228TIP3   OH228098   4.913   2.961   2.927 -0.2251  0.2124 -0.1230
 2228TIP3    H128099   4.936   2.922   2.842  0.4867  0.4106 -0.0301
 2228TIP3    H228100   4.885   2.888   2.981 -0.4802  0.0552 -0.4656
 2229TIP3   OH228101   5.344   0.987   3.808 -0.3032  0.7200 -0.1987
 2229TIP3    H128102   5.253   0.998   3.837 -0.0763  2.2099  0.0454
 2229TIP3    H228103   5.340   1.000   3.713 -0.1359  2.6468  0.0084
 2230TIP3   OH228104   3.706   0.298   5.263 -0.0099 -0.3917 -0.2231
 2230TIP3    H128105   3.797   0.269   5.261 -0.0629 -0.6414  0.8096
 2230TIP3    H228106   3.710   0.389   5.293 -0.1132 -0.4137 -0.1436
 2231TIP3   OH228107   6.318   5.399   5.144  0.0806 -0.2166 -0.0373
 2231TIP3    H128108   6.329   5.354   5.228 -1.0040  0.1900  0.3404
 2231TIP3    H228109   6.255   5.346   5.096  1.0251 -0.6862 -0.7884
 2232TIP3   OH228110   1.040   2.548  13.589 -0.4240 -0.5845  0.4747
 2232TIP3    H128111   1.125   2.572  13.551  0.1318 -0.9451  1.4691
 2232TIP3    H228112   0.976   2.573  13.522  0.2300  2.3120  0.7938
 2233TIP3   OH228113   5.266   0.754  16.206  0.5134  0.2417 -0.1498
 2233TIP3    H128114   5.307   0.669  16.197 -1.6120 -1.1174  1.7075
 2233TIP3    H228115   5.197   0.755  16.140 -0.0725  0.0761  0.4418
 2234TIP3   OH228116   1.417   5.621  14.148 -0.0904  0.3241  0.0762
 2234TIP3    H128117   1.476   5.552  14.177 -0.9149 -0.3591  0.1508
 2234TIP3    H228118   1.404   5.676  14.226 -2.3255 -1.5214  1.1413
 2235TIP3   OH228119   0.178   2.004  11.314  0.7973 -0.6953 -0.1058
 2235TIP3    H128120   0.171   2.072  11.248  2.3799 -0.0840  0.3205
 2235TIP3    H228121   0.269   1.973  11.308  1.5383  0.5393  2.8545
 2236TIP3   OH228122   5.195   4.819   5.845  0.4954 -0.2386 -0.2125
 2236TIP3    H128123   5.267   4.782   5.794  1.5694 -1.6265  2.1229
 2236TIP3    H228124   5.169   4.897   5.797  3.1137 -0.0512 -1.5205
 2237TIP3   OH228125   5.938   2.342  16.823  0.0594  0.3775  0.0997
 2237TIP3    H128126   5.997   2.293  16.767 -1.3186 -0.9571 -0.2446
 2237TIP3    H228127   5.897   2.406  16.764 -0.1959  0.0624 -0.0668
 2238TIP3   OH228128   4.724   0.546  12.267 -0.5462  0.5176  0.3850
 2238TIP3    H128129   4.632   0.535  12.290 -0.2313  0.2356  1.6075
 2238TIP3    H228130   4.762   0.458  12.273 -0.4305  0.4223 -1.3146
 2239TIP3   OH228131   4.320   2.158  14.650  0.0657 -0.5435  0.0865
 2239TIP3    H128132   4.351   2.210  14.724 -1.7688 -0.9524  1.2152
 2239TIP3    H228133   4.388   2.092  14.636  1.2205  0.5681  0.2814
 2240TIP3   OH228134   1.844   2.790  14.438 -0.3745 -0.2660  0.2529
 2240TIP3    H128135   1.907   2.860  14.424 -2.7427  1.7649 -1.0069
 2240TIP3    H228136   1.892   2.710  14.418  1.8154  1.1644 -0.5636
 2241TIP3   OH228137   0.119   0.401  12.591 -0.4347 -0.0310  0.3831
 2241TIP3    H128138   0.211   0.383  12.611 -0.2209  1.2733  0.6623
 2241TIP3    H228139   0.122   0.442  12.504 -0.8331 -0.6692  0.0620
 2242TIP3   OH228140   6.787   5.140   1.401  0.4394 -0.3877 -0.1996
 2242TIP3    H128141   6.879   5.122   1.422  0.6907  2.1604  1.2425
 2242TIP3    H228142   6.758   5.199   1.470 -2.2435 -0.9043 -0.7778
 2243TIP3   OH228143   4.345   5.086  13.230 -0.5216 -0.6855  0.0685
 2243TIP3    H128144   4.326   5.020  13.296 -0.0728 -2.0366 -1.1169
 2243TIP3    H228145   4.441   5.087  13.224 -0.5765 -1.0277 -0.9867
 2244TIP3   OH228146   5.421   6.387  14.253 -0.0759  0.7997  0.4801
 2244TIP3    H128147   5.332   6.402  14.284  0.2240  0.0020  1.8227
 2244TIP3    H228148   5.423   6.294  14.229  0.8482  0.3310  2.2120
 2245TIP3   OH228149   6.796   2.321  12.415 -0.4510 -0.0033 -0.2190
 2245TIP3    H128150   6.857   2.386  12.450 -1.3611  1.1925 -0.7921
 2245TIP3    H228151   6.791   2.341  12.322 -0.8198 -0.8530 -0.3856
 2246TIP3   OH228152   0.636   1.845   3.820  0.2772  0.1749 -0.2894
 2246TIP3    H128153   0.672   1.932   3.804 -1.4467  0.3517 -4.7219
 2246TIP3    H228154   0.704   1.785   3.792  0.1457  0.2177 -0.6992
 2247TIP3   OH228155   2.370   6.338   5.906  0.0636 -0.3611  0.6433
 2247TIP3    H128156   2.373   6.306   5.997  0.8892 -0.7180  0.4897
 2247TIP3    H228157   2.374   6.259   5.853 -0.1941 -0.1334  0.2819
 2248TIP3   OH228158   1.309   3.794   4.836  0.4426  0.4783  0.3126
 2248TIP3    H128159   1.304   3.705   4.801 -2.3306  0.0974  1.4145
 2248TIP3    H228160   1.222   3.831   4.821  0.4094  1.7461  2.9780
 2249TIP3   OH228161   0.031   4.335  16.552  0.4628  0.0829  0.2960
 2249TIP3    H128162  -0.025   4.391  16.607 -0.6693  1.7316 -2.3465
 2249TIP3    H228163  -0.018   4.252  16.545 -1.1437  1.0635 -0.9481
 2250TIP3   OH228164   3.088   6.285  13.482 -0.1677  0.2970 -0.0864
 2250TIP3    H128165   3.024   6.215  13.496 -0.1996  0.4901  0.7919
 2250TIP3    H228166   3.077   6.310  13.390  0.4979 -1.4844 -0.6786
 2251TIP3   OH228167   4.677   6.667   0.192  0.1638 -0.2593 -0.0294
 2251TIP3    H128168   4.620   6.623   0.129 -0.1280 -1.3674  0.9700
 2251TIP3    H228169   4.673   6.611   0.270  2.3363 -0.1692  0.1864
 2252TIP3   OH228170   4.823   1.052   2.769 -0.2455  0.1963  0.7973
 2252TIP3    H128171   4.748   1.095   2.728  0.2853  0.3325 -0.0474
 2252TIP3    H228172   4.798   0.960   2.776 -0.6723  0.3221  0.9544
 2253TIP3   OH228173   2.345   6.501  12.590 -1.0633 -0.4028  1.0133
 2253TIP3    H128174   2.302   6.449  12.658  0.1387 -0.5052  1.7459
 2253TIP3    H228175   2.438   6.482  12.602 -0.6658  1.1933  0.6860
 2254TIP3   OH228176   3.616   4.780   0.812  0.7111 -0.1837 -0.4205
 2254TIP3    H128177   3.548   4.715   0.794  0.5231  0.3099 -1.5598
 2254TIP3    H228178   3.608   4.798   0.906 -3.7704  3.1325 -1.1037
 2255TIP3   OH228179   2.717   2.525   2.632 -0.2450 -0.4527  0.2326
 2255TIP3    H128180   2.706   2.597   2.571  0.1788 -1.3976 -0.9876
 2255TIP3    H228181   2.690   2.447   2.583  0.5018 -1.2887  1.1022
 2256TIP3   OH228182   2.507   4.813   2.703  0.2331 -0.2533 -0.0110
 2256TIP3    H128183   2.501   4.719   2.687 -1.1364 -0.3316  0.7925
 2256TIP3    H228184   2.433   4.833   2.761  0.7663  1.2403  0.2158
 2257TIP3   OH228185   1.725   6.488  13.730  0.2411 -0.1328 -0.0943
 2257TIP3    H128186   1.765   6.512  13.813 -2.8720  1.3416  1.1592
 2257TIP3    H228187   1.733   6.566  13.675  0.1555 -0.2405 -0.2616
 2258TIP3   OH228188   0.863   3.014  10.388  0.3702  1.0876 -0.0532
 2258TIP3    H128189   0.854   3.102  10.426 -0.3666  2.7526 -3.6189
 2258TIP3    H228190   0.774   2.978  10.392  0.4631  0.8997  0.4670
 2259TIP3   OH228191   6.332   2.046   2.933 -0.1915 -0.1919 -0.0269
 2259TIP3    H128192   6.384   1.966   2.926  0.5445  0.1263  1.4071
 2259TIP3    H228193   6.304   2.048   3.025 -2.4066 -0.1340 -0.6444
 2260TIP3   OH228194   1.878   0.264  14.167  0.0557  0.1744 -0.9099
 2260TIP3    H128195   1.912   0.352  14.184 -1.1881  0.8046 -1.5434
 2260TIP3    H228196   1.789   0.278  14.136 -0.8990 -1.4263  0.8976
 2261TIP3   OH228197   6.652   6.796  13.649  0.9215  0.4759 -0.2342
 2261TIP3    H128198   6.686   6.727  13.592  2.5488  0.8994  0.1691
 2261TIP3    H228199   6.637   6.870  13.590 -4.0759 -1.0355 -1.3487
 2262TIP3   OH228200   3.624   4.312   2.301  0.3404  0.1739  0.3148
 2262TIP3    H128201   3.703   4.362   2.284  0.1812  0.4797  0.4590
 2262TIP3    H228202   3.581   4.304   2.215 -0.1373  1.1553  0.4526
 2263TIP3   OH228203   1.208   2.681  11.901  0.1519 -0.4498  0.4782
 2263TIP3    H128204   1.284   2.651  11.851  0.2775 -0.1162  0.4679
 2263TIP3    H228205   1.207   2.625  11.979  0.3753 -0.4893  0.4528
 2264TIP3   OH228206   3.036   0.833   3.822 -0.1469  0.0075  0.0621
 2264TIP3    H128207   3.083   0.752   3.799  0.1452  0.8864 -2.7030
 2264TIP3    H228208   2.952   0.802   3.857  0.5829 -1.4916  0.5938
 2265TIP3   OH228209   1.747   0.941   0.493 -0.1036 -0.1649 -0.5718
 2265TIP3    H128210   1.680   0.890   0.538 -0.7352  1.0162 -0.1196
 2265TIP3    H228211   1.769   0.889   0.416  0.8805 -2.1424  0.9709
 2266TIP3   OH228212   3.580   4.035  15.251 -0.5602 -0.4131 -0.1135
 2266TIP3    H128213   3.658   4.086  15.271 -1.4338  1.7501 -1.7731
 2266TIP3    H228214   3.594   3.951  15.294  2.2833  0.1851  0.3105
 2267TIP3   OH228215   0.309   1.182   3.344  0.0721  0.2175  0.3361
 2267TIP3    H128216   0.368   1.256   3.360  0.7651 -0.4726  1.0176
 2267TIP3    H228217   0.366   1.106   3.338 -0.7647 -0.5355  1.4265
 2268TIP3   OH228218   6.275   2.917  15.193 -0.5941 -0.1787 -0.2873
 2268TIP3    H128219   6.210   2.920  15.263  0.0469 -2.9111  0.5712
 2268TIP3    H228220   6.231   2.869  15.123  0.7666 -3.4387  0.8642
 2269TIP3   OH228221   1.183   4.320  16.931  0.5036  0.2108  0.5110
 2269TIP3    H128222   1.157   4.254  16.996  1.7039 -0.5198  0.2598
 2269TIP3    H228223   1.263   4.286  16.891  1.6244  2.1764  0.9290
 2270TIP3   OH228224   0.340   1.827   4.776 -0.1372 -0.2309 -0.2708
 2270TIP3    H128225   0.348   1.762   4.707 -0.2700 -0.3489 -0.1760
 2270TIP3    H228226   0.271   1.793   4.833 -1.0952  0.6215 -0.9022
 2271TIP3   OH228227   1.981   6.019  16.259 -0.5680 -0.0200 -0.8377
 2271TIP3    H128228   2.052   6.051  16.203  0.5168 -0.6315  0.1497
 2271TIP3    H228229   1.983   6.076  16.336 -1.0507 -0.1373 -0.7342
 2272TIP3   OH228230   1.501   2.008  13.218  0.1982 -0.3038 -0.3175
 2272TIP3    H128231   1.407   2.024  13.211  0.2534 -0.2214 -0.9570
 2272TIP3    H228232   1.541   2.078  13.166  0.7436  1.1108  1.8415
 2273TIP3   OH228233   4.855   2.239   3.601  0.2072  0.1953 -0.7061
 2273TIP3    H128234   4.802   2.165   3.628  0.8488 -0.8448 -2.1537
 2273TIP3    H228235   4.942   2.221   3.638  0.2080  0.5321 -0.5440
 2274TIP3   OH228236   6.394   0.158  10.937 -0.5064  0.3606 -0.1735
 2274TIP3    H128237   6.468   0.114  10.978  0.4631  0.8120 -1.3854
 2274TIP3    H228238   6.409   0.148  10.843 -2.6457 -0.6044 -0.4626
 2275TIP3   OH228239   5.125   6.677   3.910  0.1950 -0.2895 -0.0397
 2275TIP3    H128240   5.086   6.664   3.824  1.0258 -0.3611 -0.4109
 2275TIP3    H228241   5.123   6.772   3.924  0.1990 -0.2666 -0.1977
 2276TIP3   OH228242   2.037   0.642   4.705 -0.7192  0.0989  0.4635
 2276TIP3    H128243   2.063   0.683   4.623 -2.5619  0.1007 -0.1574
 2276TIP3    H228244   2.114   0.650   4.761  1.0883 -1.1212 -1.6731
 2277TIP3   OH228245   0.450   5.943  13.654  0.1676 -0.1720 -0.0975
 2277TIP3    H128246   0.403   6.013  13.700 -1.0960 -0.2058 -1.2481
 2277TIP3    H228247   0.523   5.921  13.711  0.4990  1.9670  0.3847
 2278TIP3   OH228248   1.753   1.294  13.549  0.5221 -0.2467  0.1998
 2278TIP3    H128249   1.754   1.388  13.529 -1.2650  0.0236  1.1829
 2278TIP3    H228250   1.778   1.252  13.466  1.5335  1.0723 -0.2056
 2279TIP3   OH228251   2.079   3.795  16.210 -0.5284  0.0889 -0.1048
 2279TIP3    H128252   2.149   3.796  16.276 -0.6255 -1.7332  0.0730
 2279TIP3    H228253   2.124   3.799  16.126 -0.3710  1.6772  0.0265
 2280TIP3   OH228254   2.341   6.494  13.323 -0.2034 -0.1302 -0.2160
 2280TIP3    H128255   2.405   6.521  13.388  0.6471  1.5444 -1.6878
 2280TIP3    H228256   2.328   6.400  13.340  3.2142 -0.7393 -0.3519
 2281TIP3   OH228257   0.535   1.393  13.210 -0.0448 -0.4520 -0.9854
 2281TIP3    H128258   0.502   1.468  13.160  0.7251  1.3104  0.9914
 2281TIP3    H228259   0.625   1.382  13.180 -0.3943 -1.1359 -1.8329
 2282TIP3   OH228260   2.131   0.782  16.910  0.0353  0.3231 -0.1547
 2282TIP3    H128261   2.157   0.842  16.840 -0.6906  0.5197 -0.2695
 2282TIP3    H228262   2.114   0.699  16.865 -0.0575  0.3432 -0.1560
 2283TIP3   OH228263   4.967   4.230   3.109 -0.0910 -0.0605 -0.2841
 2283TIP3    H128264   4.895   4.171   3.088 -0.4197  0.3968 -0.4706
 2283TIP3    H228265   4.925   4.316   3.117  0.5280  0.3156 -1.0041
 2284TIP3   OH228266   1.949   5.227  12.012  0.2340 -0.2308 -0.2350
 2284TIP3    H128267   1.970   5.183  11.930  0.1998 -0.0024 -0.3678
 2284TIP3    H228268   2.026   5.213  12.067  0.9239  0.9313 -0.8538
 2285TIP3   OH228269   0.813   5.850  10.638 -0.0085  0.1560 -0.0170
 2285TIP3    H128270   0.858   5.787  10.583  1.5442  0.5845  0.7130
 2285TIP3    H228271   0.720   5.833  10.623  0.3310 -2.4967  0.3698
 2286TIP3   OH228272   4.597   4.039   3.387 -0.1243 -0.1230 -0.1453
 2286TIP3    H128273   4.543   3.962   3.408 -0.3854 -0.0738 -0.6190
 2286TIP3    H228274   4.680   4.023   3.432 -1.0268  0.5020  1.8399
 2287TIP3   OH228275   5.230   5.007  16.794 -0.3046  0.2252 -0.0249
 2287TIP3    H128276   5.139   5.033  16.809 -0.2070  1.7471 -1.7877
 2287TIP3    H228277   5.241   5.011  16.699  1.1844 -1.4782  0.0146
 2288TIP3   OH228278   2.874   0.851   3.603 -0.2438 -0.4179 -0.4149
 2288TIP3    H128279   2.924   0.862   3.683  1.7593  0.5652 -1.7227
 2288TIP3    H228280   2.837   0.938   3.585  0.2373 -0.3582 -1.1308
 2289TIP3   OH228281   3.716   0.007   1.207 -0.7184 -0.1031  0.2601
 2289TIP3    H128282   3.654   0.077   1.230 -1.2221  0.1773 -1.7285
 2289TIP3    H228283   3.776   0.048   1.145 -0.5192 -1.2219 -0.3059
 2290TIP3   OH228284   1.585   2.892   1.644  0.3411  0.1875  0.5155
 2290TIP3    H128285   1.596   2.813   1.697  1.5134  1.0052  1.5445
 2290TIP3    H228286   1.552   2.860   1.560 -0.5594 -1.2495  1.3698
 2291TIP3   OH228287   2.530   4.632   1.753  0.0815  0.3581  0.6444
 2291TIP3    H128288   2.461   4.675   1.703 -0.9618  0.8659  2.4409
 2291TIP3    H228289   2.496   4.626   1.842  1.6022 -1.1108  1.1892
 2292TIP3   OH228290   3.619   6.439  15.580 -0.2257  0.2142 -0.1887
 2292TIP3    H128291   3.619   6.376  15.653  0.2549  0.5958  0.1436
 2292TIP3    H228292   3.541   6.493  15.596 -0.3560  0.0319 -0.1946
 2293TIP3   OH228293   1.655   0.228  11.397 -0.3924  0.0445  0.7954
 2293TIP3    H128294   1.639   0.309  11.349  0.8891  0.2072  0.5874
 2293TIP3    H228295   1.742   0.241  11.436 -0.9552 -0.4960  2.3062
 2294TIP3   OH228296   1.672   5.524   3.131  0.1186  0.3529 -0.6106
 2294TIP3    H128297   1.579   5.516   3.108 -0.3185 -0.3998  1.2094
 2294TIP3    H228298   1.672   5.567   3.217  1.2535 -2.0851  0.7119
 2295TIP3   OH228299   6.229   0.003  16.983  0.3406  0.0382 -0.0391
 2295TIP3    H128300   6.238   0.047  17.067  0.1667  0.9036 -0.4654
 2295TIP3    H228301   6.185  -0.080  17.005  0.0162  0.3870  0.6788
 2296TIP3   OH228302   2.957   5.661   0.997 -0.0954  0.2292 -0.1549
 2296TIP3    H128303   2.969   5.728   1.065  1.5447 -0.1647 -0.0308
 2296TIP3    H228304   3.042   5.618   0.989 -0.7623 -0.9897 -1.1539
 2297TIP3   OH228305   1.477   1.464   4.914 -0.3119  0.3865  0.2143
 2297TIP3    H128306   1.395   1.477   4.962 -0.9652 -0.0197 -0.7534
 2297TIP3    H228307   1.452   1.469   4.822  0.9021  1.0757 -0.1010
 2298TIP3   OH228308   3.219   0.286  12.627  0.5182 -0.0596  0.4137
 2298TIP3    H128309   3.150   0.322  12.571  0.2472  0.2668  0.9389
 2298TIP3    H228310   3.257   0.363  12.669  0.1604 -0.3528  1.2964
 2299TIP3   OH228311   4.882   1.516   2.209  0.7176 -0.0427  0.2753
 2299TIP3    H128312   4.976   1.505   2.193  0.5618 -0.0555 -0.6461
 2299TIP3    H228313   4.839   1.479   2.131 -0.0269  0.7466  0.2991
 2300TIP3   OH228314   2.655   4.107  10.520 -0.6280 -0.5714  1.0246
 2300TIP3    H128315   2.620   4.195  10.533 -3.7838 -1.7832  1.5484
 2300TIP3    H228316   2.747   4.121  10.499 -0.6783  2.7629  2.4323
 2301TIP3   OH228317   4.854   3.876  15.634 -0.3338  0.1301  0.3904
 2301TIP3    H128318   4.930   3.829  15.600 -2.6240 -2.8135 -1.0397
 2301TIP3    H228319   4.850   3.852  15.726 -0.5841 -1.3007  0.0277
 2302TIP3   OH228320   5.530   4.153   3.219  0.0782 -0.6848 -0.0710
 2302TIP3    H128321   5.533   4.201   3.136 -0.0744 -0.3370  0.1182
 2302TIP3    H228322   5.566   4.067   3.199 -0.2148 -0.6966 -0.5614
 2303TIP3   OH228323   6.221   0.521   3.952  0.0607 -0.4010 -0.1757
 2303TIP3    H128324   6.249   0.447   3.898  2.7455  0.5556 -0.2555
 2303TIP3    H228325   6.294   0.583   3.948 -1.5226  1.6840  0.9710
 2304TIP3   OH228326   1.447   2.522  16.294  0.2701  0.1816  0.7836
 2304TIP3    H128327   1.475   2.611  16.276  0.5162  0.2630  1.5362
 2304TIP3    H228328   1.506   2.467  16.241 -0.3345  0.4813 -0.2218
 2305TIP3   OH228329   4.140   4.379   5.546 -0.0141  0.1693  0.4011
 2305TIP3    H128330   4.054   4.396   5.507 -0.3802 -0.1441  1.0641
 2305TIP3    H228331   4.179   4.311   5.491 -0.9617 -1.0285  1.1908
 2306TIP3   OH228332   5.120   3.861  15.089 -0.4500 -0.0029  0.4104
 2306TIP3    H128333   5.159   3.913  15.159 -1.1444 -0.0464  0.8499
 2306TIP3    H228334   5.028   3.887  15.089 -0.4315  0.1005 -0.5957
 2307TIP3   OH228335   4.026   1.576   6.254  0.5188 -0.3844 -0.3987
 2307TIP3    H128336   3.968   1.592   6.328  0.5812 -1.0035 -0.2176
 2307TIP3    H228337   4.034   1.662   6.211 -0.3012 -0.2362 -0.2621
 2308TIP3   OH228338   5.374   3.809   2.347 -0.2020  0.4867 -0.1005
 2308TIP3    H128339   5.459   3.844   2.321 -0.6449  2.9224  1.4657
 2308TIP3    H228340   5.395   3.736   2.405  0.7897  0.4546 -0.4779
 2309TIP3   OH228341   6.782   5.915  13.427 -0.3620  0.5513 -0.4060
 2309TIP3    H128342   6.838   5.844  13.393 -0.5296 -0.3531  1.1426
 2309TIP3    H228343   6.771   5.973  13.352  0.6983 -0.4796 -1.4197
 2310TIP3   OH228344   6.209   3.378  12.002 -0.0631  0.1467  0.0966
 2310TIP3    H128345   6.304   3.381  12.011 -0.0598 -0.8814  0.5065
 2310TIP3    H228346   6.178   3.443  12.065  0.3668  0.5111 -0.0627
 2311TIP3   OH228347   4.928   5.938   1.100  0.2542  0.1889  0.7617
 2311TIP3    H128348   4.986   5.939   1.023  0.2521  1.1631  0.7677
 2311TIP3    H228349   4.900   6.029   1.111 -1.6120 -0.3069  0.5167
 2312TIP3   OH228350   6.629   4.366  14.428  0.2562 -0.0531  0.1286
 2312TIP3    H128351   6.634   4.439  14.367 -1.5553 -1.0511 -1.3262
 2312TIP3    H228352   6.706   4.312  14.407  0.9589  0.8243  0.4125
 2313TIP3   OH228353   3.548   5.009  14.340  0.2296  0.4089 -0.4661
 2313TIP3    H128354   3.497   4.930  14.362 -0.9654  1.1130 -0.6128
 2313TIP3    H228355   3.482   5.073  14.314  1.3239  0.8380 -2.3162
 2314TIP3   OH228356   3.391   2.276  12.000 -0.5529  0.6945 -0.2981
 2314TIP3    H128357   3.474   2.312  12.030  0.7158 -1.3215 -1.2050
 2314TIP3    H228358   3.389   2.294  11.906  0.0675 -1.3563 -0.7608
 2315TIP3   OH228359   4.000   6.768   3.253  0.0234 -0.0398  0.0501
 2315TIP3    H128360   3.912   6.786   3.221  0.1034 -0.9656 -0.7224
 2315TIP3    H228361   3.992   6.775   3.349 -1.1211 -1.1091  0.0568
 2316TIP3   OH228362   1.900   6.015  13.329 -0.2856  0.3160  0.8394
 2316TIP3    H128363   1.813   6.041  13.358 -0.5423  1.4965 -0.8604
 2316TIP3    H228364   1.943   6.097  13.305  0.2607 -0.4887 -1.1039
 2317TIP3   OH228365   3.579   3.666  13.438 -0.1348  0.0306  0.0005
 2317TIP3    H128366   3.542   3.715  13.512 -1.4478 -0.7698 -0.0968
 2317TIP3    H228367   3.587   3.731  13.368  0.1410  0.5599  0.5079
 2318TIP3   OH228368   1.684   2.439  11.492  0.2244  1.1138  0.5883
 2318TIP3    H128369   1.697   2.355  11.448  0.3299  1.6774 -0.4751
 2318TIP3    H228370   1.659   2.415  11.582 -1.6375 -0.0961 -0.1810
 2319TIP3   OH228371   4.938   4.791  16.239  0.0836  0.0699 -0.2341
 2319TIP3    H128372   4.980   4.835  16.165  0.1145 -0.6769 -0.6805
 2319TIP3    H228373   4.917   4.861  16.301  0.6485  0.6302 -0.6608
 2320TIP3   OH228374   3.563   2.992  12.727 -0.5292  0.3826 -0.4360
 2320TIP3    H128375   3.611   2.915  12.757  1.6070  2.2779  1.3693
 2320TIP3    H228376   3.625   3.039  12.671 -0.4977  2.4193  1.1710
 2321TIP3   OH228377   3.100   3.066   1.364  0.2432  0.0548 -0.0808
 2321TIP3    H128378   3.176   3.092   1.415  0.9853  1.3194 -1.7060
 2321TIP3    H228379   3.067   3.149   1.327 -3.0911 -0.1590  2.0258
 2322TIP3   OH228380   5.207   1.756   0.521 -0.1021  0.2539  0.0960
 2322TIP3    H128381   5.188   1.725   0.609  1.1146  1.3565  0.7771
 2322TIP3    H228382   5.121   1.767   0.480 -0.6647 -0.5565  1.0325
 2323TIP3   OH228383   1.213   1.338   6.034 -0.0569  0.4700  0.6438
 2323TIP3    H128384   1.225   1.339   6.129 -0.4257  1.1787  0.6907
 2323TIP3    H228385   1.279   1.398   6.000 -0.2033  0.5445  0.4882
 2324TIP3   OH228386   3.997   3.194  13.827  0.4695  0.1500 -0.1230
 2324TIP3    H128387   4.070   3.132  13.836 -0.1363 -0.5143  0.3237
 2324TIP3    H228388   4.023   3.251  13.754  0.7108 -1.0812 -1.0273
 2325TIP3   OH228389   5.336   4.142  11.210  0.0487 -0.3963  0.0039
 2325TIP3    H128390   5.424   4.105  11.204 -0.1179 -0.6568 -1.0977
 2325TIP3    H228391   5.297   4.097  11.285  0.7380 -0.5370  0.2854
 2326TIP3   OH228392   0.332   4.993  11.692  0.0389 -0.1980  0.2377
 2326TIP3    H128393   0.323   4.903  11.723  0.3508 -0.8841 -1.5208
 2326TIP3    H228394   0.408   4.991  11.635 -1.3713  0.5481 -1.7979
 2327TIP3   OH228395   0.970   4.114   2.965 -0.1724  0.1030  0.3703
 2327TIP3    H128396   0.976   4.194   2.913  0.8781  0.8789  1.6309
 2327TIP3    H228397   0.881   4.081   2.949 -0.0950  0.6362 -1.3931
 2328TIP3   OH228398   6.139   1.940  14.414  0.2480 -0.2976 -0.0561
 2328TIP3    H128399   6.121   2.021  14.461  0.2098 -0.2525 -0.1474
 2328TIP3    H228400   6.198   1.966  14.343 -0.0794 -0.2801 -0.3217
 2329TIP3   OH228401   3.972   1.888   2.893 -0.3362  0.2354 -0.2283
 2329TIP3    H128402   4.030   1.814   2.911 -1.2970 -0.3530  0.5681
 2329TIP3    H228403   4.013   1.962   2.937  0.8499  0.2933 -1.3711
 2330TIP3   OH228404   0.888   0.722   3.619  0.3210  0.1767 -0.1502
 2330TIP3    H128405   0.804   0.686   3.591  1.2968 -0.8645 -1.8623
 2330TIP3    H228406   0.892   0.701   3.713 -0.4019 -1.6831 -0.4829
 2331TIP3   OH228407   5.884   1.039  15.632  0.9131 -0.7033 -0.6658
 2331TIP3    H128408   5.833   1.027  15.713 -0.9118 -1.2258 -1.8241
 2331TIP3    H228409   5.877   0.954  15.587  0.6285  0.0165 -2.0345
 2332TIP3   OH228410   4.909   2.217  14.964  1.1090  0.5440 -0.2571
 2332TIP3    H128411   4.968   2.269  14.908 -0.3758  3.2430  0.4973
 2332TIP3    H228412   4.937   2.237  15.053 -0.3160  1.1138  0.0817
 2333TIP3   OH228413   3.637   2.568  14.271  0.4857  0.0929  0.7069
 2333TIP3    H128414   3.732   2.582  14.270  0.4947  0.0509  0.8497
 2333TIP3    H228415   3.609   2.585  14.182  0.7626 -0.8237  0.4305
 2334TIP3   OH228416   1.446   1.673  15.909 -0.0417  0.7571 -0.5513
 2334TIP3    H128417   1.499   1.610  15.860 -1.7861 -0.3136 -1.1676
 2334TIP3    H228418   1.454   1.755  15.861  0.0506  0.2914 -1.3355
 2335TIP3   OH228419   2.251   6.211  11.022  0.8356  0.0227  0.7734
 2335TIP3    H128420   2.237   6.293  10.975  1.0636 -0.2398  0.2422
 2335TIP3    H228421   2.163   6.177  11.037  0.7169  0.5862  1.4044
 2336TIP3   OH228422   4.714   6.010   1.275  0.0453  0.5673  0.4438
 2336TIP3    H128423   4.683   5.955   1.204  1.7288 -0.6392  0.5591
 2336TIP3    H228424   4.745   6.090   1.233 -1.4885  1.0400  0.1606
 2337TIP3   OH228425   6.639   6.072  15.341  0.2611 -0.6347 -0.1594
 2337TIP3    H128426   6.577   6.001  15.357  0.6258 -1.1781 -1.0694
 2337TIP3    H228427   6.586   6.151  15.344  0.1594 -0.6895  2.8550
 2338TIP3   OH228428   5.419   3.730   3.756 -0.0996  0.1697 -0.7215
 2338TIP3    H128429   5.460   3.797   3.811 -0.6110 -0.7389  0.8507
 2338TIP3    H228430   5.326   3.735   3.778 -0.2272 -0.6568 -1.0234
 2339TIP3   OH228431   0.455   5.693   4.930 -0.4176 -0.1886  0.1377
 2339TIP3    H128432   0.486   5.783   4.924  1.8984 -0.9644 -0.4238
 2339TIP3    H228433   0.502   5.656   5.004 -0.2707 -1.3084 -0.4869
 2340TIP3   OH228434   0.810   2.989   2.752  0.3114 -0.3773 -0.1521
 2340TIP3    H128435   0.848   3.049   2.689  0.3026 -0.8305 -0.5981
 2340TIP3    H228436   0.720   2.977   2.722  0.2003 -0.3123  0.1550
 2341TIP3   OH228437   6.777   2.538   4.720  0.2504  0.2981  0.0804
 2341TIP3    H128438   6.758   2.459   4.769 -0.4535  0.5263  0.1880
 2341TIP3    H228439   6.870   2.555   4.736  0.1664  0.0563  0.8772
 2342TIP3   OH228440   0.339   5.332  14.446  0.2857  0.8742  0.1627
 2342TIP3    H128441   0.289   5.402  14.488 -0.6508  0.7035 -0.6402
 2342TIP3    H228442   0.424   5.371  14.428  0.9031  0.8235  2.6113
 2343TIP3   OH228443   6.753   3.032  10.859  0.0762  0.2612  0.5935
 2343TIP3    H128444   6.758   3.126  10.840 -2.0224  0.3878  0.4190
 2343TIP3    H228445   6.723   3.027  10.950 -0.5117 -0.2189  0.3819
 2344TIP3   OH228446   3.445   3.723   5.504  0.4887 -0.1442 -0.6250
 2344TIP3    H128447   3.402   3.808   5.498  1.1187  0.1162 -1.7447
 2344TIP3    H228448   3.373   3.660   5.512 -0.0026  0.4387 -0.3570
 2345TIP3   OH228449   2.578   5.327   4.843 -0.2912 -0.0516 -0.8133
 2345TIP3    H128450   2.673   5.317   4.847 -0.3800 -0.5936  0.8277
 2345TIP3    H228451   2.546   5.237   4.834 -0.6648  0.0677 -0.6666
 2346TIP3   OH228452   5.191   1.137   0.359 -0.0431 -0.2386  0.3669
 2346TIP3    H128453   5.247   1.143   0.436  2.7151  1.0426 -1.5714
 2346TIP3    H228454   5.213   1.053   0.320  1.3093  0.6309 -0.8589
 2347TIP3   OH228455   0.972   4.857  14.390 -0.4901  0.0843  0.4432
 2347TIP3    H128456   0.880   4.832  14.379 -0.6122  0.6290  0.1457
 2347TIP3    H228457   1.021   4.789  14.343 -0.8553  0.7780 -1.0258
 2348TIP3   OH228458   1.945   4.781  14.205 -0.1139  0.2705 -0.1343
 2348TIP3    H128459   1.985   4.813  14.124 -0.5076 -0.2999 -0.5563
 2348TIP3    H228460   2.018   4.776  14.267  0.4063 -0.3974 -0.7896
 2349TIP3   OH228461   3.264   5.168   5.278 -0.2114  0.0605  0.1073
 2349TIP3    H128462   3.314   5.142   5.355  0.6271 -0.8582 -0.7197
 2349TIP3    H228463   3.174   5.144   5.298 -0.0188 -0.0464  0.8480
 2350TIP3   OH228464   2.443   6.538  14.999 -0.1506  0.8658  0.0373
 2350TIP3    H128465   2.393   6.457  15.013 -1.5612  1.4105 -1.5327
 2350TIP3    H228466   2.533   6.514  15.018 -0.6602 -0.8318  0.5070
 2351TIP3   OH228467   2.287   6.213   2.910 -0.0348 -0.0542  0.2201
 2351TIP3    H128468   2.372   6.238   2.947  0.5990 -1.4510 -0.2420
 2351TIP3    H228469   2.252   6.295   2.874  2.0656  0.1900 -1.4528
 2352TIP3   OH228470   5.620   3.764  15.104  0.2042  0.7367 -0.1452
 2352TIP3    H128471   5.681   3.784  15.032  1.6353  1.1691  1.1307
 2352TIP3    H228472   5.541   3.813  15.083  0.0599 -0.2319 -2.1125
 2353TIP3   OH228473   1.418   3.053  14.426  0.1855  0.4093  0.2106
 2353TIP3    H128474   1.394   3.128  14.481 -2.1187 -0.2284  0.1621
 2353TIP3    H228475   1.360   3.059  14.350 -0.5172 -1.7484  0.5074
 2354TIP3   OH228476   4.240   0.740  16.275 -0.2803 -0.6325  0.3700
 2354TIP3    H128477   4.314   0.713  16.329 -0.2214 -0.8901  0.1675
 2354TIP3    H228478   4.211   0.659  16.232 -0.1399 -0.3827 -0.2061
 2355TIP3   OH228479   3.306   3.092  14.316  0.3916 -0.1693  0.3722
 2355TIP3    H128480   3.388   3.108  14.362  0.6226  0.1782 -0.1519
 2355TIP3    H228481   3.326   3.020  14.255 -0.4106 -1.9821  2.1187
 2356TIP3   OH228482   2.557   0.383   2.468  0.1920 -0.3159 -0.0025
 2356TIP3    H128483   2.581   0.410   2.379  0.1674 -0.0096  0.0830
 2356TIP3    H228484   2.614   0.435   2.524 -0.5937  0.3385  0.2022
 2357TIP3   OH228485   1.022   4.094  15.933 -0.3168 -0.2497  0.2925
 2357TIP3    H128486   1.083   4.136  15.994 -2.4896  0.9268  1.8055
 2357TIP3    H228487   1.073   4.025  15.891  2.3756  1.4438  0.5242
 2358TIP3   OH228488   0.130   4.504   3.852 -0.1729  0.0056 -0.3625
 2358TIP3    H128489   0.221   4.524   3.874 -0.2342  3.1363 -2.4102
 2358TIP3    H228490   0.127   4.408   3.849  2.3242 -0.3193  2.3204
 2359TIP3   OH228491   0.099   5.782   1.657 -0.7685  0.8757  0.4932
 2359TIP3    H128492   0.101   5.723   1.732  2.1460 -1.1524 -0.9705
 2359TIP3    H228493   0.166   5.848   1.676  0.7371 -0.2557 -0.6744
 2360TIP3   OH228494   4.823   6.020   0.085  0.0937  0.7988 -0.2384
 2360TIP3    H128495   4.914   6.041   0.107 -0.4794  1.4638  1.7082
 2360TIP3    H228496   4.790   5.974   0.162 -0.9817 -0.2394 -1.2806
 2361TIP3   OH228497   1.819   2.591  12.760 -0.3549 -0.4614 -0.6302
 2361TIP3    H128498   1.807   2.590  12.854  0.4336  3.0241 -0.3552
 2361TIP3    H228499   1.894   2.534  12.745  0.0086 -0.4447  0.9511
 2362TIP3   OH228500   5.143   2.652   1.175  0.3107  0.1293  0.7156
 2362TIP3    H128501   5.098   2.683   1.253 -0.6524 -0.6476  0.4892
 2362TIP3    H228502   5.080   2.594   1.132  1.6552 -1.3006  0.5718
 2363TIP3   OH228503   5.479   2.467  15.665  0.1005 -0.8012 -0.3479
 2363TIP3    H128504   5.574   2.473  15.656 -0.0754 -0.0094 -1.9511
 2363TIP3    H228505   5.460   2.512  15.747  1.1489 -1.6186  0.3854
 2364TIP3   OH228506   4.760   4.799   2.757  0.0544  0.2923  0.6415
 2364TIP3    H128507   4.701   4.727   2.738  1.5962 -0.4168 -1.9517
 2364TIP3    H228508   4.770   4.798   2.852  0.3864 -3.2356  0.6695
 2365TIP3   OH228509   5.623   2.826  14.277 -0.8323 -0.6008  0.3565
 2365TIP3    H128510   5.692   2.772  14.240 -1.7498 -0.6742 -1.3210
 2365TIP3    H228511   5.570   2.854  14.202 -2.5819 -0.4850  1.5532
 2366TIP3   OH228512   5.749   6.618   0.960 -0.6079 -0.4882 -0.5478
 2366TIP3    H128513   5.658   6.617   0.991 -0.7043 -0.2297 -0.8162
 2366TIP3    H228514   5.782   6.704   0.984 -0.6491 -0.3254 -1.0639
 2367TIP3   OH228515   0.269   2.503   4.801  0.8314 -0.1885 -0.0158
 2367TIP3    H128516   0.229   2.536   4.881 -0.7280 -1.4327 -0.2395
 2367TIP3    H228517   0.333   2.438   4.831 -0.5938 -1.5385  0.2411
 2368TIP3   OH228518   0.979   5.645   1.364  0.1453  0.6239 -0.2112
 2368TIP3    H128519   0.934   5.728   1.348 -1.2886  0.1925  1.3178
 2368TIP3    H228520   0.910   5.585   1.392  1.6290 -0.1067  2.1602
 2369TIP3   OH228521   6.077   0.538   4.569  0.3611 -0.1161 -0.0725
 2369TIP3    H128522   5.984   0.548   4.590  0.3138 -0.7836  0.0519
 2369TIP3    H228523   6.100   0.619   4.523 -0.2240  0.1529  0.1008
 2370TIP3   OH228524   1.845   1.215  13.840 -0.0074 -0.1423 -0.3585
 2370TIP3    H128525   1.833   1.252  13.753  3.7346  1.4992 -0.3373
 2370TIP3    H228526   1.901   1.139  13.826  0.5984  0.1161  0.6053
 2371TIP3   OH228527   2.745   5.595   0.792  0.5723 -0.0650 -0.2633
 2371TIP3    H128528   2.792   5.541   0.728  1.1940 -0.2792  0.3562
 2371TIP3    H228529   2.809   5.662   0.817  0.4466 -0.1836  0.3735
 2372TIP3   OH228530   5.544   2.292   3.446  0.3365 -0.1759 -0.0404
 2372TIP3    H128531   5.535   2.332   3.359  1.9942  1.4601  0.4679
 2372TIP3    H228532   5.458   2.304   3.487  0.0099  0.4751 -0.8886
 2373TIP3   OH228533   2.637   2.338   0.295 -0.5002 -0.8457  0.5232
 2373TIP3    H128534   2.573   2.346   0.366 -0.3441  1.0638  0.4907
 2373TIP3    H228535   2.592   2.374   0.219  1.1012  2.2185  0.8731
 2374TIP3   OH228536   6.216   2.127   6.246  0.2592 -0.6067 -0.0054
 2374TIP3    H128537   6.223   2.211   6.293 -1.7460 -0.1606 -0.4138
 2374TIP3    H228538   6.192   2.064   6.314 -3.1396  0.1283 -0.3322
 2375TIP3   OH228539   6.709   1.946   3.161 -0.2825  0.3772  0.0108
 2375TIP3    H128540   6.786   1.894   3.185  0.8213  1.6639 -0.6182
 2375TIP3    H228541   6.673   1.977   3.244 -0.8352 -1.1712  0.3816
 2376TIP3   OH228542   6.425   3.623  11.333 -0.2298  0.3770 -0.5830
 2376TIP3    H128543   6.385   3.617  11.246 -0.3059 -0.1161 -0.5129
 2376TIP3    H228544   6.518   3.636  11.316 -0.1097 -0.6224 -0.7399
 2377TIP3   OH228545   1.404   4.799   1.567 -0.1321 -0.3733  0.7996
 2377TIP3    H128546   1.310   4.811   1.568 -0.2124 -1.0315  1.4502
 2377TIP3    H228547   1.429   4.813   1.475 -0.9055 -0.5139  0.5634
 2378TIP3   OH228548   4.694   6.243  14.806 -0.0054 -0.1817  0.7011
 2378TIP3    H128549   4.761   6.282  14.750  1.2182  1.5041  3.1467
 2378TIP3    H228550   4.612   6.257  14.758  0.8743  1.9132 -0.3333
 2379TIP3   OH228551   0.899   5.754   4.334 -0.6029  0.1076  0.8807
 2379TIP3    H128552   0.880   5.668   4.373  3.1670 -1.3011  0.0491
 2379TIP3    H228553   0.844   5.757   4.255  0.4659 -2.4813 -0.0842
 2380TIP3   OH228554   4.046   1.871   6.168 -0.9289  0.3364  0.5010
 2380TIP3    H128555   4.135   1.895   6.143  0.0077 -3.4535 -0.5412
 2380TIP3    H228556   4.013   1.946   6.216  2.3235  2.4351 -0.2297
 2381TIP3   OH228557   0.371   6.588  15.952 -0.3718  0.3197 -0.0356
 2381TIP3    H128558   0.316   6.623  15.882 -0.7958  0.2313  0.2514
 2381TIP3    H228559   0.322   6.605  16.032  0.6549  1.5105  0.3695
 2382TIP3   OH228560   3.072   1.404   3.169 -0.0325  0.5979  0.2475
 2382TIP3    H128561   3.037   1.356   3.245 -0.0999  0.8633  0.3886
 2382TIP3    H228562   3.007   1.473   3.153 -0.4327  0.0370 -0.5715
 2383TIP3   OH228563   6.406   4.866   4.706 -0.0639 -0.1910 -0.6603
 2383TIP3    H128564   6.431   4.864   4.799  1.8303 -0.1857 -1.1426
 2383TIP3    H228565   6.311   4.880   4.708 -0.1089 -0.4420  1.2765
 2384TIP3   OH228566   2.696   2.856  14.265 -0.2812  0.4816  0.0479
 2384TIP3    H128567   2.697   2.787  14.198  1.9500  0.6661 -0.1863
 2384TIP3    H228568   2.608   2.892  14.261 -0.2635  0.4582 -2.8063
 2385TIP3   OH228569   6.227   2.104  12.747 -0.8763 -0.5365  0.1984
 2385TIP3    H128570   6.312   2.132  12.780  0.1814 -0.6641 -2.2097
 2385TIP3    H228571   6.226   2.009  12.759  0.4813 -0.9012 -2.0646
 2386TIP3   OH228572   3.807   0.350  12.770  0.0763 -0.3020 -0.1433
 2386TIP3    H128573   3.872   0.340  12.839 -0.9978 -0.3143  0.8940
 2386TIP3    H228574   3.788   0.444  12.768 -1.7185 -0.5837  1.3421
 2387TIP3   OH228575   2.645   1.841   2.038  0.7844 -0.7091 -0.2879
 2387TIP3    H128576   2.701   1.792   2.098  0.7866 -2.0464 -1.3643
 2387TIP3    H228577   2.615   1.777   1.974 -1.7052  0.0272  0.0243
 2388TIP3   OH228578   6.345   1.635   0.072  0.0514 -0.5392 -0.0674
 2388TIP3    H128579   6.366   1.705   0.011 -1.2458 -0.1435 -0.0831
 2388TIP3    H228580   6.261   1.600   0.041 -0.0924 -1.0449  0.8480
 2389TIP3   OH228581   5.901   6.062   4.932 -0.4998  0.4497  0.1529
 2389TIP3    H128582   5.913   5.978   4.888  0.1301  1.2107 -1.1931
 2389TIP3    H228583   5.856   6.040   5.014  0.7355 -1.3377  0.4185
 2390TIP3   OH228584   5.418   2.657  12.327  0.3466 -0.1428  0.0096
 2390TIP3    H128585   5.508   2.689  12.316  1.1949 -2.0029  0.9788
 2390TIP3    H228586   5.420   2.611  12.411 -1.6096  0.0110  0.1778
 2391TIP3   OH228587   3.568   6.075  11.178  0.0255  0.3615  0.7275
 2391TIP3    H128588   3.566   6.016  11.102 -0.2302  0.9310  0.2770
 2391TIP3    H228589   3.567   6.017  11.254  2.0998 -0.3068  0.3243
 2392TIP3   OH228590   2.845   5.715   0.395 -0.1699 -0.1370 -0.6460
 2392TIP3    H128591   2.872   5.775   0.465  1.0077 -0.7088 -0.5789
 2392TIP3    H228592   2.799   5.644   0.440  2.5332 -1.6732 -0.0890
 2393TIP3   OH228593   2.596   1.701   6.290  0.1278  0.4282 -0.2363
 2393TIP3    H128594   2.549   1.688   6.207  0.1930 -1.0031 -0.0621
 2393TIP3    H228595   2.668   1.638   6.287 -0.9655 -1.0292  1.7184
 2394TIP3   OH228596   2.977   5.164  10.893 -0.2436  0.8388  0.3220
 2394TIP3    H128597   2.983   5.247  10.848  1.6043  0.2734 -0.5881
 2394TIP3    H228598   2.955   5.100  10.825 -0.4795  0.4159  0.7846
 2395TIP3   OH228599   4.399   3.927   6.204  0.5071  0.0807 -0.0246
 2395TIP3    H128600   4.398   3.878   6.286  0.0589  0.5075  0.2318
 2395TIP3    H228601   4.491   3.931   6.180  0.7419  0.6778  0.9048
 2396TIP3   OH228602   5.105   4.585  15.703  0.3332  0.6014 -0.3205
 2396TIP3    H128603   5.061   4.501  15.693 -1.4445  1.5889 -1.2971
 2396TIP3    H228604   5.096   4.627  15.618 -0.9134  2.6983  0.7508
 2397TIP3   OH228605   1.938   2.160  14.130 -0.3525 -0.2832 -0.1708
 2397TIP3    H128606   1.997   2.120  14.195 -1.9914 -2.1884  0.2538
 2397TIP3    H228607   1.950   2.254  14.141  0.9554 -0.5947  1.4554
 2398TIP3   OH228608   2.122   3.411  11.165  0.0096  0.4947 -0.0224
 2398TIP3    H128609   2.214   3.428  11.146 -0.0305 -0.5942 -1.3724
 2398TIP3    H228610   2.106   3.323  11.129 -1.7371  0.9759 -0.5171
 2399TIP3   OH228611   6.275   3.420  13.235  0.1601 -0.2586  0.8235
 2399TIP3    H128612   6.353   3.453  13.189  1.2209 -1.8496  1.3817
 2399TIP3    H228613   6.249   3.493  13.291 -0.0345  1.0498 -0.8624
 2400TIP3   OH228614   0.816   1.448  15.632 -0.0313 -0.2983  0.2631
 2400TIP3    H128615   0.792   1.393  15.558  0.3267 -0.1315  0.0193
 2400TIP3    H228616   0.865   1.390  15.690  0.0295 -0.3318  0.1788
 2401TIP3   OH228617   0.020   1.631  16.428  0.6126  0.7816 -0.1443
 2401TIP3    H128618   0.067   1.692  16.372 -0.8871  1.0591 -1.1347
 2401TIP3    H228619  -0.070   1.663  16.429  0.2322 -0.2436  0.9975
 2402TIP3   OH228620   2.612   6.539   2.152 -0.9354 -0.2135  0.3718
 2402TIP3    H128621   2.658   6.554   2.070 -1.7322 -1.5757 -0.3686
 2402TIP3    H228622   2.679   6.551   2.219 -0.3048  1.0677 -0.4504
 2403TIP3   OH228623   6.661   0.474  13.039 -0.1664 -0.1111  0.4992
 2403TIP3    H128624   6.683   0.467  12.946  0.8050 -0.7912  0.7663
 2403TIP3    H228625   6.628   0.387  13.062 -2.2445  0.5941  0.3579
 2404TIP3   OH228626   0.390   6.609  14.026 -0.3310  0.2932 -0.1155
 2404TIP3    H128627   0.405   6.558  14.106 -0.6645 -0.8243 -0.7428
 2404TIP3    H228628   0.473   6.654  14.010  0.2270 -0.6515  0.0488
 2405TIP3   OH228629   1.898   1.532  16.745 -0.1093 -0.6246 -0.0504
 2405TIP3    H128630   1.812   1.534  16.704 -0.0847 -1.3661 -0.1430
 2405TIP3    H228631   1.945   1.463  16.699  0.4124 -0.4718  0.2477
 2406TIP3   OH228632   1.871   2.041  16.969 -0.6082  0.1190 -0.5608
 2406TIP3    H128633   1.870   1.965  16.911  0.2086  0.1092 -0.5621
 2406TIP3    H228634   1.956   2.037  17.013 -0.5462  1.0464 -0.5853
 2407TIP3   OH228635   0.215   1.464  12.298  0.8358 -0.2886  0.2420
 2407TIP3    H128636   0.281   1.476  12.366  0.9109  2.6662 -0.2534
 2407TIP3    H228637   0.263   1.426  12.224  0.7108 -3.7790  1.7230
 2408TIP3   OH228638   3.100   4.045  16.893  0.5773 -1.1878  0.4065
 2408TIP3    H128639   3.009   4.018  16.877  0.0332  0.5938  0.2111
 2408TIP3    H228640   3.129   3.992  16.967 -0.6812 -1.6936  0.5568
 2409TIP3   OH228641   2.133   6.032  15.699  0.4316 -0.1865 -0.0708
 2409TIP3    H128642   2.128   5.962  15.765  3.0062 -0.3730  0.0313
 2409TIP3    H228643   2.048   6.029  15.655 -0.5934 -1.4583  1.8306
 2410TIP3   OH228644   0.600   5.117  11.303  0.2960 -0.0037  0.5735
 2410TIP3    H128645   0.585   5.206  11.269 -2.1087  0.0089  1.4967
 2410TIP3    H228646   0.604   5.062  11.226 -1.0865  0.5455  0.0938
 2411TIP3   OH228647   1.294   1.102   2.496  0.2578 -0.2024  0.4881
 2411TIP3    H128648   1.269   1.167   2.430  2.2823  0.2398  0.1026
 2411TIP3    H228649   1.210   1.065   2.526 -0.8164  1.0667 -0.8055
 2412TIP3   OH228650   1.382   4.341  10.821 -0.3824 -0.0752  0.2184
 2412TIP3    H128651   1.353   4.357  10.731 -0.3097 -2.1507 -0.2093
 2412TIP3    H228652   1.313   4.287  10.859  1.1886 -2.1677  0.2643
 2413TIP3   OH228653   3.368   1.602  12.978  0.7717  0.3448  0.0974
 2413TIP3    H128654   3.347   1.693  12.997  0.1505  0.2399 -0.0477
 2413TIP3    H228655   3.339   1.589  12.887  2.4516  0.4674 -0.4758
 2414TIP3   OH228656   6.673   5.525  16.730  0.4333  0.6622  0.7203
 2414TIP3    H128657   6.727   5.549  16.655  0.9208 -2.3469 -0.0334
 2414TIP3    H228658   6.596   5.483  16.692  1.8996 -3.4056  1.6821
 2415TIP3   OH228659   0.938   5.030   0.972  0.4890  0.8548 -0.7802
 2415TIP3    H128660   0.975   4.943   0.961  0.0977  0.5796  0.0339
 2415TIP3    H228661   0.882   5.023   1.049 -0.4285  1.5330 -1.3608
 2416TIP3   OH228662   3.481   5.218   0.105  0.0782 -0.2623 -0.0232
 2416TIP3    H128663   3.424   5.213   0.028  1.0102 -2.6717 -0.6515
 2416TIP3    H228664   3.460   5.140   0.156  1.7915 -0.4718  0.4421
 2417TIP3   OH228665   4.749   1.433   4.949  0.3320  0.4386 -0.0969
 2417TIP3    H128666   4.775   1.428   5.041  1.1662 -1.3051 -0.3770
 2417TIP3    H228667   4.686   1.361   4.939  0.7759  0.1640 -1.0276
 2418TIP3   OH228668   3.982   5.497   4.477  0.1904 -0.0821  0.3182
 2418TIP3    H128669   3.929   5.496   4.397  1.3180 -1.9031 -0.4827
 2418TIP3    H228670   4.072   5.508   4.446  0.4661  1.3781  1.5306
 2419TIP3   OH228671   3.671   6.669  13.180 -0.1209  0.3006  0.7317
 2419TIP3    H128672   3.705   6.623  13.103  2.7239  1.0580  1.4050
 2419TIP3    H228673   3.596   6.617  13.208 -0.4322 -0.7402 -1.7414
 2420TIP3   OH228674   3.398   5.185  12.629  0.6247 -0.4337 -0.3320
 2420TIP3    H128675   3.348   5.208  12.551 -0.3745 -0.4281  0.2956
 2420TIP3    H228676   3.489   5.182  12.599  0.6714  2.7105 -0.8329
 2421TIP3   OH228677   5.104   6.325   0.877  0.2949 -0.0825  0.2074
 2421TIP3    H128678   5.177   6.375   0.839 -0.4952  1.6831  0.8581
 2421TIP3    H228679   5.040   6.318   0.806  1.6104 -2.9535 -0.8384
 2422TIP3   OH228680   4.671   3.321  14.364  0.2134  0.4877  0.3273
 2422TIP3    H128681   4.726   3.243  14.364  0.3965  0.6120 -0.5054
 2422TIP3    H228682   4.733   3.394  14.366  0.0425  0.6397  2.3523
 2423TIP3   OH228683   1.911   3.548  15.526  0.4028 -0.6392 -0.3026
 2423TIP3    H128684   1.939   3.457  15.539 -0.0132 -0.9219 -1.2807
 2423TIP3    H228685   1.868   3.548  15.441  0.2122  0.4415 -0.2236
 2424TIP3   OH228686   4.153   6.676  12.110 -0.1614 -0.0577 -0.7616
 2424TIP3    H128687   4.193   6.746  12.161  1.2005 -0.2722 -1.4870
 2424TIP3    H228688   4.200   6.678  12.027  1.9320 -3.6562  0.1560
 2425TIP3   OH228689   6.293   4.324  12.552 -0.1368 -0.3853 -0.2722
 2425TIP3    H128690   6.291   4.418  12.566 -0.3376 -0.4208 -0.0551
 2425TIP3    H228691   6.304   4.314  12.457  1.0471 -0.1443 -0.1688
 2426TIP3   OH228692   1.217   3.592   2.489 -0.1621 -0.3687  0.2507
 2426TIP3    H128693   1.217   3.616   2.396 -1.6622 -0.0661  0.2967
 2426TIP3    H228694   1.137   3.633   2.523  0.3934 -0.4547  1.6838
 2427TIP3   OH228695   1.786   3.727  14.572 -0.9135 -0.2617  0.4351
 2427TIP3    H128696   1.818   3.780  14.499  0.4223 -0.5723  0.7685
 2427TIP3    H228697   1.837   3.757  14.647 -1.7377 -0.4778  1.0876
 2428TIP3   OH228698   0.126   5.188   5.469 -0.3460  0.1547 -0.3674
 2428TIP3    H128699   0.104   5.242   5.545 -0.5733 -0.0506 -0.2865
 2428TIP3    H228700   0.179   5.245   5.414 -1.0106  0.6415 -0.5255
 2429TIP3   OH228701   5.083   4.416  11.825 -0.5023 -0.5274  0.4251
 2429TIP3    H128702   5.019   4.360  11.867 -0.3192 -3.3565 -2.6690
 2429TIP3    H228703   5.160   4.360  11.812  0.0918  0.6800 -1.9035
 2430TIP3   OH228704   6.168   3.796  15.291  0.3468  0.3276 -0.3399
 2430TIP3    H128705   6.215   3.757  15.365  0.6175  1.8230  0.3180
 2430TIP3    H228706   6.229   3.789  15.217 -0.4799 -2.4874 -0.8475
 2431TIP3   OH228707   1.442   2.870  12.234  0.5832  0.7445 -0.1831
 2431TIP3    H128708   1.479   2.795  12.186 -1.3969 -2.6254  2.9671
 2431TIP3    H228709   1.512   2.899  12.291  0.6118 -0.7176  0.5807
 2432TIP3   OH228710   4.957   6.187  11.491 -0.1221 -0.2667 -0.1099
 2432TIP3    H128711   4.873   6.212  11.529  0.5429 -0.6553  1.6884
 2432TIP3    H228712   4.935   6.161  11.401 -2.0594 -1.1789  0.5590
 2433TIP3   OH228713   6.435   3.083   3.106 -0.5787  1.0062 -0.0074
 2433TIP3    H128714   6.394   3.042   3.029 -0.2603 -0.1756  0.4200
 2433TIP3    H228715   6.415   3.023   3.178  2.0727  0.2057  0.1755
 2434TIP3   OH228716   4.960   4.949   2.425 -0.6562  0.4236 -0.0028
 2434TIP3    H128717   4.998   4.959   2.512 -0.7386 -0.0170  0.0862
 2434TIP3    H228718   4.950   4.855   2.414 -0.5435  0.4707 -0.5328
 2435TIP3   OH228719   1.970   6.751   2.671  0.0113  0.1436  0.0394
 2435TIP3    H128720   2.032   6.824   2.666 -2.0097  1.8870 -1.7282
 2435TIP3    H228721   1.898   6.778   2.614 -3.1346 -1.0210  3.1598
 2436TIP3   OH228722   4.066   2.699  13.862 -0.0785  0.2322  0.2004
 2436TIP3    H128723   4.078   2.640  13.788  0.0030  1.2711 -0.6320
 2436TIP3    H228724   3.974   2.690  13.885  0.2103 -1.1918  0.9472
 2437TIP3   OH228725   2.153   1.819   3.784 -0.0762  0.0091 -0.0674
 2437TIP3    H128726   2.158   1.914   3.783  0.0013  0.0152  0.6460
 2437TIP3    H228727   2.086   1.798   3.849  0.6301 -0.4383  0.5443
 2438TIP3   OH228728   4.815   5.416   3.027  0.1853 -0.3901  0.7555
 2438TIP3    H128729   4.860   5.434   3.110  1.8070 -1.9487  0.2796
 2438TIP3    H228730   4.851   5.481   2.967  0.2685 -0.3166  0.8814
 2439TIP3   OH228731   2.078   0.111  15.297  0.0582 -0.0072 -0.2764
 2439TIP3    H128732   2.166   0.149  15.291 -0.4559  1.1432 -0.7790
 2439TIP3    H228733   2.083   0.030  15.246  0.4845  0.7274 -1.4517
 2440TIP3   OH228734   4.630   4.125  11.975 -0.5748  0.3598  0.5260
 2440TIP3    H128735   4.586   4.044  11.951 -0.3167  0.2446  0.4318
 2440TIP3    H228736   4.610   4.136  12.068 -0.8534  0.3447  0.4680
 2441TIP3   OH228737   2.438   0.263   3.465 -0.0956  0.0518 -0.4074
 2441TIP3    H128738   2.483   0.309   3.536  0.9922 -0.3844 -0.7885
 2441TIP3    H228739   2.412   0.179   3.503  1.0247 -0.4306 -0.6796
 2442TIP3   OH228740   0.219   5.967   2.340  0.0301  0.0315  0.9001
 2442TIP3    H128741   0.312   5.946   2.351  0.4640  1.6156  0.6033
 2442TIP3    H228742   0.173   5.892   2.375  1.4262 -0.2738  2.1909
 2443TIP3   OH228743   2.258   4.746  11.940  0.3373 -0.3357 -0.1789
 2443TIP3    H128744   2.211   4.748  11.857 -0.4049  1.2925  0.2404
 2443TIP3    H228745   2.301   4.660  11.942 -2.0271 -1.6114 -0.9156
 2444TIP3   OH228746   5.279   5.599  10.544 -0.4169  0.3146 -0.2061
 2444TIP3    H128747   5.338   5.673  10.528  0.3445 -0.4261 -0.8351
 2444TIP3    H228748   5.199   5.622  10.497  0.7377 -0.4603 -2.6662
 2445TIP3   OH228749   3.277   3.428   0.429  0.0443  0.3923  0.2281
 2445TIP3    H128750   3.245   3.465   0.347 -2.5904 -1.6309  0.2031
 2445TIP3    H228751   3.332   3.354   0.403  1.7613  1.5678  0.3329
 2446TIP3   OH228752   6.564   6.429  11.550  0.3443  0.1665 -0.0789
 2446TIP3    H128753   6.594   6.463  11.634  0.4070 -1.5955  0.6603
 2446TIP3    H228754   6.469   6.426  11.557  0.3925 -0.8772  0.3292
 2447TIP3   OH228755   5.548   1.582  15.811 -0.1668  0.1586 -0.0381
 2447TIP3    H128756   5.456   1.581  15.837 -0.0891  1.3923  0.3852
 2447TIP3    H228757   5.554   1.650  15.743  0.9016  2.3714  2.0945
 2448TIP3   OH228758   2.604   1.836   0.800 -0.1018 -0.3448  0.2668
 2448TIP3    H128759   2.694   1.808   0.817  0.0113  1.3328  3.1216
 2448TIP3    H228760   2.555   1.754   0.793  1.3465 -1.2858  0.5965
 2449TIP3   OH228761   1.968   6.331   4.787  0.2592 -0.6763  0.0031
 2449TIP3    H128762   2.003   6.326   4.877 -1.7535  0.1542  0.8865
 2449TIP3    H228763   1.905   6.259   4.782 -0.5347  0.0249 -0.3130
 2450TIP3   OH228764   1.783   5.258  10.916  0.6049  0.0067  0.1285
 2450TIP3    H128765   1.692   5.284  10.930  0.1146 -0.9730 -1.0302
 2450TIP3    H228766   1.809   5.218  10.999 -0.8910 -2.0237 -0.2702
 2451TIP3   OH228767   2.916   2.381   3.648  0.1361  0.3343 -0.7819
 2451TIP3    H128768   2.969   2.415   3.720  0.0318  2.2570 -1.5482
 2451TIP3    H228769   2.830   2.421   3.661 -1.1160 -2.4371  0.2270
 2452TIP3   OH228770   5.279   5.352   0.063 -0.1732 -0.3661 -0.5145
 2452TIP3    H128771   5.295   5.258   0.052  0.4019 -0.4402  0.7535
 2452TIP3    H228772   5.334   5.393  -0.003  0.2020 -0.8963 -0.5425
 2453TIP3   OH228773   2.722   5.734  14.781 -0.3512 -0.3726 -0.0070
 2453TIP3    H128774   2.789   5.741  14.850  1.0495 -1.8409 -1.1418
 2453TIP3    H228775   2.693   5.643  14.786 -0.4221 -0.4197 -1.1652
 2454TIP3   OH228776   6.380   0.539  14.789 -0.0368  0.4583 -0.9766
 2454TIP3    H128777   6.409   0.629  14.780 -0.4811  0.5549 -1.5277
 2454TIP3    H228778   6.452   0.487  14.753 -0.2088  0.6556 -1.6241
 2455TIP3   OH228779   6.791   3.913  13.751  0.7252  0.0102  0.1941
 2455TIP3    H128780   6.733   3.981  13.787  0.4922  0.8864 -1.7348
 2455TIP3    H228781   6.769   3.910  13.658  1.5727 -1.9073  0.0211
 2456TIP3   OH228782   6.235   3.982  16.030  0.0298  0.4536  0.2308
 2456TIP3    H128783   6.193   4.009  15.948  0.4469  3.0072  0.7580
 2456TIP3    H228784   6.327   3.970  16.006  0.0257  0.5095  0.1867
 2457TIP3   OH228785   4.941   2.396   6.580  0.2537  0.2954  0.2510
 2457TIP3    H128786   5.010   2.432   6.636  1.0958  1.0980 -1.2321
 2457TIP3    H228787   4.897   2.332   6.635 -0.2056  2.3490  2.4726
 2458TIP3   OH228788   5.160   2.695  16.003  0.3171  0.4327  0.9329
 2458TIP3    H128789   5.229   2.630  16.014 -0.6858 -1.4003 -2.2263
 2458TIP3    H228790   5.085   2.660  16.052  0.2353 -0.0792  0.4578
 2459TIP3   OH228791   2.710   0.428   4.151  0.0687 -0.0453  0.2980
 2459TIP3    H128792   2.616   0.425   4.137 -0.1241 -0.8281  1.5654
 2459TIP3    H228793   2.726   0.364   4.220  1.2693  1.4497  1.4970
 2460TIP3   OH228794   2.193   1.870   1.346  0.2231 -0.3553  0.0379
 2460TIP3    H128795   2.150   1.884   1.430 -0.7696 -1.5060 -0.2589
 2460TIP3    H228796   2.166   1.944   1.292  1.5133  0.8284  0.9396
 2461TIP3   OH228797   0.240   2.640   1.670 -0.2366  0.1203 -0.2599
 2461TIP3    H128798   0.152   2.642   1.632 -0.3733  0.5211  0.0654
 2461TIP3    H228799   0.244   2.559   1.721 -0.0513 -0.4261 -1.1162
 2462TIP3   OH228800   0.116   3.722  13.515 -0.0715 -0.5412  0.5090
 2462TIP3    H128801   0.083   3.801  13.472  0.6071 -1.1761 -1.2954
 2462TIP3    H228802   0.043   3.692  13.569 -1.0784  0.1736 -0.4048
 2463TIP3   OH228803   5.946   0.686  16.658 -0.1623 -0.2442 -0.6281
 2463TIP3    H128804   5.959   0.596  16.629  1.3716  0.4512 -2.2021
 2463TIP3    H228805   5.922   0.678  16.751  0.4381 -2.2359 -0.6100
 2464TIP3   OH228806   0.021   2.909   2.045 -0.9019 -0.3125 -0.1561
 2464TIP3    H128807  -0.034   2.987   2.049 -0.2572  0.2765 -1.7593
 2464TIP3    H228808   0.025   2.888   1.952 -0.4459 -1.8315  0.1799
 2465TIP3   OH228809   4.972   2.818  11.272  0.0445  0.7224  0.1572
 2465TIP3    H128810   4.972   2.878  11.346  1.1637  0.0267  0.7539
 2465TIP3    H228811   5.011   2.868  11.200 -0.4229  1.1797  0.2176
 2466TIP3   OH228812   5.371   0.889  16.512 -0.6807  0.1043  0.1844
 2466TIP3    H128813   5.397   0.977  16.484 -0.2004  0.0816  0.5368
 2466TIP3    H228814   5.311   0.859  16.444 -1.5720  1.0597  0.5273
 2467TIP3   OH228815   6.431   5.334  16.663  0.5593 -0.1277  0.4953
 2467TIP3    H128816   6.336   5.342  16.657  0.2757 -2.9245  0.1732
 2467TIP3    H228817   6.448   5.307  16.753  1.0647  0.2660  0.5234
 2468TIP3   OH228818   0.823   5.737   5.456  0.3192  0.7551 -0.5588
 2468TIP3    H128819   0.915   5.759   5.473  0.6920 -0.8574 -0.3193
 2468TIP3    H228820   0.827   5.657   5.405 -0.9390 -1.1518  2.1007
 2469TIP3   OH228821   5.707   5.409  13.044  0.1705  0.0674 -0.5509
 2469TIP3    H128822   5.721   5.503  13.055 -0.3449  0.0757  0.1233
 2469TIP3    H228823   5.673   5.400  12.955  1.5855  0.3501 -1.1472
 2470TIP3   OH228824   1.558   2.749   4.789  0.3646 -0.2487  0.5514
 2470TIP3    H128825   1.568   2.711   4.702  0.4335  0.8737  0.0490
 2470TIP3    H228826   1.619   2.700   4.844  0.1363 -1.1387  0.0298
 2471TIP3   OH228827   2.791   2.803  13.488 -0.1137  0.1807 -0.1579
 2471TIP3    H128828   2.830   2.738  13.545 -1.0871 -0.5099 -0.2509
 2471TIP3    H228829   2.727   2.848  13.543 -0.4261  0.1093 -0.4581
 2472TIP3   OH228830   0.366   1.171  13.265  0.2871 -0.5292  0.6619
 2472TIP3    H128831   0.407   1.085  13.260 -0.2759 -0.8015  0.7355
 2472TIP3    H228832   0.438   1.232  13.251  0.5178 -1.0325 -0.4461
 2473TIP3   OH228833   4.955   3.106  16.133 -0.5770 -0.4590  0.1559
 2473TIP3    H128834   5.022   3.174  16.125 -0.8076 -0.3910 -1.6687
 2473TIP3    H228835   4.928   3.110  16.224  1.2152  0.1623  0.7047
 2474TIP3   OH228836   1.531   3.923  14.571 -0.1160 -0.6378  0.1253
 2474TIP3    H128837   1.618   3.883  14.563  0.2556 -0.0842  1.2612
 2474TIP3    H228838   1.547   4.017  14.559 -0.6257 -0.5756 -0.0862
 2475TIP3   OH228839   4.468   3.437  15.466  0.2940 -0.7547  0.0680
 2475TIP3    H128840   4.443   3.349  15.437 -0.9310 -0.4494  0.1504
 2475TIP3    H228841   4.457   3.434  15.561  0.8271 -0.6793  0.1346
 2476TIP3   OH228842   0.692   2.077   1.986  0.2235 -0.3542  0.1913
 2476TIP3    H128843   0.600   2.077   1.961 -0.2158 -1.5317  1.6463
 2476TIP3    H228844   0.739   2.091   1.904 -1.2524  1.1340 -0.4600
 2477TIP3   OH228845   5.408   0.927   5.278  0.0666 -0.5841 -0.1210
 2477TIP3    H128846   5.386   0.882   5.360  3.1649 -0.2475  1.0526
 2477TIP3    H228847   5.350   1.003   5.276 -1.0038 -1.3324  1.0583
 2478TIP3   OH228848   1.401   2.400  11.256  0.0038  0.0505 -0.3675
 2478TIP3    H128849   1.354   2.317  11.244  0.3731 -0.0119 -1.4465
 2478TIP3    H228850   1.478   2.392  11.200  1.5640 -0.0275  1.6531
 2479TIP3   OH228851   3.146   4.236   0.738 -0.0521 -0.3911 -0.2750
 2479TIP3    H128852   3.197   4.262   0.662  0.0420  0.4779  0.0739
 2479TIP3    H228853   3.062   4.205   0.702 -1.4965  3.3911 -0.6296
 2480TIP3   OH228854   6.217   0.481   3.618 -0.3115 -0.2683 -0.2282
 2480TIP3    H128855   6.163   0.408   3.649 -1.7716  0.5773 -0.6965
 2480TIP3    H228856   6.307   0.450   3.628 -0.8182 -1.3412  1.5758
 2481TIP3   OH228857   5.855   3.902  16.445  0.3227  0.1750 -0.1819
 2481TIP3    H128858   5.882   3.812  16.428  2.4612  0.6951  0.1230
 2481TIP3    H228859   5.903   3.954  16.381  0.3816  1.2210  0.6799
 2482TIP3   OH228860   5.529   5.642  12.594  0.0809  0.6080 -0.0157
 2482TIP3    H128861   5.489   5.706  12.536  0.3715 -0.1347 -1.0596
 2482TIP3    H228862   5.484   5.559  12.575  1.1158  0.0616 -0.2035
 2483TIP3   OH228863   3.239   6.014   1.333  0.1815 -0.2634  0.0568
 2483TIP3    H128864   3.282   6.068   1.266 -0.5278 -0.5992 -0.6863
 2483TIP3    H228865   3.146   6.035   1.326 -0.0633 -1.2856  0.0078
 2484TIP3   OH228866   3.606   6.440  14.331 -0.6488 -0.6772 -0.4787
 2484TIP3    H128867   3.612   6.521  14.281  0.1809  0.7573  1.7964
 2484TIP3    H228868   3.695   6.421  14.358 -0.9618 -1.8908 -0.2067
 2485TIP3   OH228869   1.910   4.089   1.509  0.0959 -0.0498 -0.3203
 2485TIP3    H128870   2.005   4.091   1.499  0.2413 -2.5781 -0.0386
 2485TIP3    H228871   1.891   4.161   1.570  1.6176  1.3422 -1.3818
 2486TIP3   OH228872   3.030   2.472   5.549 -0.1329  0.3403 -0.1917
 2486TIP3    H128873   2.968   2.544   5.559 -2.8704 -1.9202  0.0551
 2486TIP3    H228874   3.045   2.467   5.455 -0.7801  0.5383 -0.3086
 2487TIP3   OH228875   1.099   3.445  11.115 -0.3006 -0.0745  0.2598
 2487TIP3    H128876   1.049   3.368  11.143  0.7415 -1.1772 -0.7551
 2487TIP3    H228877   1.085   3.449  11.020  1.5620 -0.5120 -0.0901
 2488TIP3   OH228878   5.162   6.197  10.639  0.3037  0.1748  0.4322
 2488TIP3    H128879   5.204   6.153  10.713  0.9113 -1.1772 -0.6579
 2488TIP3    H228880   5.110   6.129  10.596 -0.5148  1.0747 -0.0527
 2489TIP3   OH228881   1.527   0.577   3.109 -0.7340  0.1225  0.2784
 2489TIP3    H128882   1.467   0.568   3.183 -1.5647  2.7108  0.0189
 2489TIP3    H228883   1.474   0.618   3.040  0.8285  0.6381 -0.6736
 2490TIP3   OH228884   0.231   4.034  15.460  0.1262 -0.0939  0.3983
 2490TIP3    H128885   0.157   3.985  15.496 -0.2190  0.8001  0.9177
 2490TIP3    H228886   0.306   4.006  15.512 -0.1175  0.1205  0.8674
 2491TIP3   OH228887   1.736   3.158   2.559  0.0458  0.4869 -0.4208
 2491TIP3    H128888   1.679   3.207   2.499 -0.6855  0.1378 -0.0209
 2491TIP3    H228889   1.799   3.114   2.502 -0.7414  0.0260 -0.9541
 2492TIP3   OH228890   0.814   3.556  14.375  0.2916 -0.1864  0.2130
 2492TIP3    H128891   0.852   3.506  14.447 -0.2517 -0.2271  0.4740
 2492TIP3    H228892   0.726   3.578  14.405  0.7066  1.4133  0.3282
 2493TIP3   OH228893   4.941   1.625  15.763  0.0125  0.3426  0.4439
 2493TIP3    H128894   4.962   1.710  15.802  2.0401  0.3695 -0.6030
 2493TIP3    H228895   4.860   1.598  15.808 -0.7148  2.8052  0.7716
 2494TIP3   OH228896   4.268   2.352   6.074  0.1171 -0.8511  0.0919
 2494TIP3    H128897   4.319   2.289   6.124  0.0167  0.2910  1.7114
 2494TIP3    H228898   4.198   2.379   6.133 -0.4923 -0.0479 -0.9563
 2495TIP3   OH228899   5.158   4.509  13.795 -0.0256 -0.6672 -0.1169
 2495TIP3    H128900   5.199   4.515  13.881 -2.0696 -1.1361  0.9345
 2495TIP3    H228901   5.100   4.584  13.789 -1.9180 -2.0400  0.0773
 2496TIP3   OH228902   0.717   4.506  14.802  0.2501  0.2991  0.3467
 2496TIP3    H128903   0.649   4.535  14.742  1.1711  1.7508 -0.0565
 2496TIP3    H228904   0.747   4.586  14.845  1.8384 -0.2391  0.3345
 2497TIP3   OH228905   5.458   2.480   1.742  0.1831 -0.1978 -0.3050
 2497TIP3    H128906   5.512   2.404   1.718  0.3815 -0.0738 -0.2430
 2497TIP3    H228907   5.514   2.556   1.728  0.2724 -0.1132  0.4722
 2498TIP3   OH228908   4.092   0.916   2.023  0.3356  0.5101  0.7168
 2498TIP3    H128909   4.129   0.849   1.966 -1.0665  0.6057 -0.3493
 2498TIP3    H228910   4.086   0.994   1.969 -1.7922  0.3810  0.6653
 2499TIP3   OH228911   1.285   5.980  14.385  0.2832  0.2045 -0.0198
 2499TIP3    H128912   1.239   5.944  14.461  1.5925 -0.1068  0.6604
 2499TIP3    H228913   1.352   5.914  14.364  0.7012  0.8340 -0.7077
 2500TIP3   OH228914   2.657   0.954   2.671 -0.6557  0.1243  0.1508
 2500TIP3    H128915   2.706   0.872   2.682  1.1621  1.3008  1.2273
 2500TIP3    H228916   2.640   0.958   2.577 -0.1298 -1.1116 -0.0234
 2501TIP3   OH228917   5.569   0.349  14.592  0.5226 -0.6459 -0.4195
 2501TIP3    H128918   5.653   0.316  14.559  0.1649 -0.9221 -1.0860
 2501TIP3    H228919   5.590   0.387  14.677  1.6942  1.1209 -1.4221
 2502TIP3   OH228920   4.124   5.188  13.768 -0.1460 -0.7450  0.0138
 2502TIP3    H128921   4.197   5.170  13.827 -0.5096 -3.2137 -0.1820
 2502TIP3    H228922   4.108   5.282  13.778  0.0817 -0.9254  3.5347
 2503TIP3   OH228923   4.564   5.040   2.228 -0.4488  0.3360 -0.0779
 2503TIP3    H128924   4.520   4.961   2.259 -2.3435  0.1204 -2.9362
 2503TIP3    H228925   4.652   5.010   2.205 -1.3744 -1.2576 -1.8920
 2504TIP3   OH228926   1.338   1.349   4.135  0.5657  0.0587  0.1054
 2504TIP3    H128927   1.323   1.358   4.040  0.4430  0.0855  0.1265
 2504TIP3    H228928   1.418   1.398   4.151 -0.1299  1.2008  0.2228
 2505TIP3   OH228929   3.785   2.057   1.584 -0.0707 -0.5765  0.1220
 2505TIP3    H128930   3.877   2.042   1.562 -0.3250  0.5439 -1.9065
 2505TIP3    H228931   3.742   2.071   1.500 -1.6090  1.5542  1.1653
 2506TIP3   OH228932   5.901   3.328  14.454 -0.4231 -0.3304 -0.6102
 2506TIP3    H128933   5.918   3.319  14.548 -2.3863 -0.4474 -0.2287
 2506TIP3    H228934   5.975   3.380  14.422 -0.6449  1.3148  1.3434
 2507TIP3   OH228935   4.516   5.226  16.874 -0.0608 -0.1873 -0.2106
 2507TIP3    H128936   4.521   5.241  16.968  0.9010 -0.2915 -0.2315
 2507TIP3    H228937   4.544   5.309  16.835 -0.0847 -0.2667 -0.3996
 2508TIP3   OH228938   2.435   2.690   4.120  0.3256  0.2032  0.2459
 2508TIP3    H128939   2.399   2.723   4.203 -0.6363  0.5539 -0.2967
 2508TIP3    H228940   2.486   2.763   4.086  0.6359  0.0949  0.4718
 2509TIP3   OH228941   6.359   0.661   6.390  0.6933  0.3875 -0.0953
 2509TIP3    H128942   6.288   0.628   6.335  0.9270 -1.4289  0.6131
 2509TIP3    H228943   6.324   0.660   6.479  1.6262 -0.7829  0.2996
 2510TIP3   OH228944   2.431   5.577   0.209  1.1881 -0.5002  0.2818
 2510TIP3    H128945   2.439   5.559   0.115 -1.1532  0.0795 -0.0906
 2510TIP3    H228946   2.435   5.491   0.251  2.2463 -0.7628 -0.3252
 2511TIP3   OH228947   3.971   4.980  16.997  0.3532  0.2282  0.1998
 2511TIP3    H128948   3.933   4.958  16.912  1.5510 -0.9753 -0.0655
 2511TIP3    H228949   4.004   4.897  17.031  0.8190  0.8677  1.3694
 2512TIP3   OH228950   4.105   0.187   6.502 -0.0899  0.1945 -1.1373
 2512TIP3    H128951   4.151   0.161   6.582  0.1146 -0.5632 -1.4968
 2512TIP3    H228952   4.052   0.263   6.529 -0.8264 -0.6715 -0.0180
 2513TIP3   OH228953   0.758   1.740   5.691  0.1755 -0.0830  0.1199
 2513TIP3    H128954   0.779   1.646   5.687 -1.5257 -0.5717  1.1350
 2513TIP3    H228955   0.796   1.769   5.774  0.7678  0.1555 -0.2309
 2514TIP3   OH228956   5.447   3.750  11.776 -0.1450 -0.4127  0.4340
 2514TIP3    H128957   5.434   3.660  11.745  1.6945 -1.1021  1.5301
 2514TIP3    H228958   5.403   3.753  11.861  1.0372 -0.7412  1.0716
 2515TIP3   OH228959   2.036   5.584  15.332 -0.1232  0.6069  0.1395
 2515TIP3    H128960   2.119   5.632  15.333 -0.4678  1.2180  0.0978
 2515TIP3    H228961   2.058   5.498  15.298  0.4636  0.8232 -0.0363
 2516TIP3   OH228962   4.438   4.064  16.369 -0.2754 -0.0437  0.0046
 2516TIP3    H128963   4.351   4.023  16.370  0.1450 -1.1551 -2.1359
 2516TIP3    H228964   4.496   3.994  16.339  1.0134  1.2442 -0.5624
 2517TIP3   OH228965   6.078   0.538   2.365  0.5849 -0.4002  0.2543
 2517TIP3    H128966   6.136   0.469   2.332  1.9103  1.5655 -1.8115
 2517TIP3    H228967   6.023   0.562   2.291 -0.6736  0.0103  1.2741
 2518TIP3   OH228968   6.047   0.167   5.545  0.0903 -0.1492 -0.2168
 2518TIP3    H128969   6.018   0.142   5.633  1.0921  0.4501  0.3040
 2518TIP3    H228970   6.118   0.229   5.560 -0.9750  1.4470 -1.4663
 2519TIP3   OH228971   5.742   2.489   1.041  0.1583 -0.0861 -0.4830
 2519TIP3    H128972   5.752   2.451   0.954 -1.1647 -1.1811 -0.2031
 2519TIP3    H228973   5.650   2.516   1.045  0.1219 -0.3039  0.6639
 2520TIP3   OH228974   1.424   5.267  14.527  0.3356 -0.8065 -0.2983
 2520TIP3    H128975   1.418   5.295  14.618  0.1162  1.3760 -0.9279
 2520TIP3    H228976   1.515   5.238  14.516  0.8319  0.5083  0.2092
 2521TIP3   OH228977   1.982   0.356  13.152 -0.1217 -0.1442 -0.0880
 2521TIP3    H128978   1.889   0.348  13.173 -0.6370  2.2118 -1.1648
 2521TIP3    H228979   1.996   0.450  13.142  2.8016 -0.2642  1.7883
 2522TIP3   OH228980   1.025   5.493   0.096 -0.1171 -1.2217 -0.9217
 2522TIP3    H128981   0.936   5.490   0.063  0.3833 -2.5754 -2.2452
 2522TIP3    H228982   1.079   5.462   0.024  1.3655 -1.0515  0.0653
 2523TIP3   OH228983   4.199   1.221   4.144 -0.2115  0.1321 -0.1077
 2523TIP3    H128984   4.264   1.281   4.180  0.9032 -1.7476  1.1614
 2523TIP3    H228985   4.125   1.226   4.205  0.3837 -0.6865  0.6920
 2524TIP3   OH228986   0.606   5.017  14.792 -0.5997  0.4730  0.1869
 2524TIP3    H128987   0.656   4.995  14.870 -0.4573 -1.2556 -0.3402
 2524TIP3    H228988   0.576   5.107  14.806 -0.7042  0.1459  2.2726
 2525TIP3   OH228989   6.089   4.799  15.871  0.4578  0.0553 -0.0011
 2525TIP3    H128990   6.036   4.719  15.869 -0.3139  0.5299  0.8149
 2525TIP3    H228991   6.127   4.801  15.959  0.2433  0.7277  0.0807
 2526TIP3   OH228992   6.402   1.685  11.262  0.0748  0.0271  0.7659
 2526TIP3    H128993   6.321   1.637  11.284  0.3173 -0.3796  0.7768
 2526TIP3    H228994   6.427   1.652  11.176 -0.2355  0.7784  0.3846
 2527TIP3   OH228995   6.420   1.719   0.695 -0.0099  0.3134  0.2671
 2527TIP3    H128996   6.492   1.778   0.671  0.7840 -0.6484  0.2474
 2527TIP3    H228997   6.357   1.776   0.739  0.7940  1.1566  0.3595
 2528TIP3   OH228998   5.070   2.354   0.165  0.2983 -0.1254  0.2033
 2528TIP3    H128999   5.131   2.346   0.238  1.6383 -0.1014 -0.8654
 2528TIP3    H229000   5.126   2.349   0.087 -0.9429  0.9850 -0.7972
 2529TIP3   OH229001   3.844   3.806  11.599 -0.2098  0.1299  0.0709
 2529TIP3    H129002   3.832   3.898  11.579  0.7334  0.2926  0.1742
 2529TIP3    H229003   3.830   3.798  11.693 -0.6173  0.1079  0.0076
 2530TIP3   OH229004   2.602   1.459   1.763  0.2493  0.5791  0.6038
 2530TIP3    H129005   2.641   1.511   1.833  0.8164  1.7980 -0.5595
 2530TIP3    H229006   2.530   1.412   1.805 -0.2153  2.2252  1.7724
 2531TIP3   OH229007   0.391   1.644  14.749  0.1780  0.0704  0.4975
 2531TIP3    H129008   0.411   1.676  14.837  1.1313  1.8104 -0.2860
 2531TIP3    H229009   0.476   1.640  14.705 -0.1219 -2.0649  0.0242
 2532TIP3   OH229010   4.510   3.073   0.937  0.7313 -0.4255  0.1709
 2532TIP3    H129011   4.456   3.013   0.886  0.1024  0.2514  0.0169
 2532TIP3    H229012   4.538   3.022   1.013  1.4202 -1.3522 -0.6769
 2533TIP3   OH229013   4.871   1.065  14.199  0.1021  0.4559 -0.0274
 2533TIP3    H129014   4.781   1.060  14.231 -0.3419  1.1048 -1.1223
 2533TIP3    H229015   4.898   0.974  14.190 -1.1835  0.1792 -1.6114
 2534TIP3   OH229016   0.473   5.056   3.408  0.5427  0.1046 -0.0776
 2534TIP3    H129017   0.394   5.065   3.462  0.5503 -1.7910  0.3129
 2534TIP3    H229018   0.440   5.040   3.320  0.5117  0.2865 -0.1003
 2535TIP3   OH229019   3.116   5.365  14.303  0.0621  0.2547 -0.0759
 2535TIP3    H129020   3.032   5.321  14.286 -0.0723  0.6070 -0.3359
 2535TIP3    H229021   3.099   5.457  14.284  0.3155  0.4416  0.5599
 2536TIP3   OH229022   2.891   4.609   5.746  0.1596  0.3652  0.1550
 2536TIP3    H129023   2.909   4.699   5.719  0.8697 -0.0727 -0.9063
 2536TIP3    H229024   2.807   4.615   5.791  0.2787  1.5872  0.2684
 2537TIP3   OH229025   0.903   0.380  12.966  0.3954 -0.0488  0.3399
 2537TIP3    H129026   0.938   0.465  12.941  1.4161 -0.8159 -0.9635
 2537TIP3    H229027   0.874   0.340  12.884 -1.7235 -0.2847  1.1348
 2538TIP3   OH229028   0.236   6.096  12.603  0.1876 -0.6733 -0.0531
 2538TIP3    H129029   0.160   6.123  12.655  0.1324 -0.4660 -0.2397
 2538TIP3    H229030   0.311   6.137  12.646 -0.2102  2.9542 -2.3975
 2539TIP3   OH229031   1.625   4.109   1.357 -0.2138 -0.2517 -0.2340
 2539TIP3    H129032   1.660   4.145   1.276 -0.5887 -0.9882 -0.7310
 2539TIP3    H229033   1.700   4.066   1.399  0.0874  0.5294  0.0535
 2540TIP3   OH229034   6.545   2.051   4.515 -0.5554 -0.0257 -0.2883
 2540TIP3    H129035   6.492   2.030   4.439  0.9031 -2.7392 -0.7010
 2540TIP3    H229036   6.624   2.092   4.479 -0.6538  0.3607 -0.0667
 2541TIP3   OH229037   2.982   6.615  15.171 -0.0641 -0.2149  0.3082
 2541TIP3    H129038   3.007   6.578  15.087 -3.3409 -0.1145 -0.8756
 2541TIP3    H229039   3.042   6.576  15.234  1.2712 -1.7951 -1.8150
 2542TIP3   OH229040   0.586   5.348   2.182  0.3300  0.5496  0.5036
 2542TIP3    H129041   0.530   5.292   2.129  0.9770  0.1218  0.2613
 2542TIP3    H229042   0.530   5.377   2.254 -0.7389  1.5888 -0.6830
 2543TIP3   OH229043   0.832   1.419   2.489  0.1921 -0.0260 -0.3532
 2543TIP3    H129044   0.768   1.428   2.418 -1.2894  0.1430  0.9541
 2543TIP3    H229045   0.811   1.335   2.530  0.7883  0.0540  0.1300
 2544TIP3   OH229046   3.627   3.073  16.819 -0.6709  0.2373 -0.5877
 2544TIP3    H129047   3.703   3.108  16.772  1.4901  1.0597  3.1807
 2544TIP3    H229048   3.637   2.978  16.815  0.0276  0.3211 -0.8893
 2545TIP3   OH229049   2.260   0.954  10.729 -0.4947  0.1422  0.0025
 2545TIP3    H129050   2.179   0.947  10.781 -0.4289  0.3503  0.1317
 2545TIP3    H229051   2.295   0.865  10.728  0.2863  0.4014  1.5690
 2546TIP3   OH229052   1.216   0.855  16.281  0.4259 -0.5700 -0.3882
 2546TIP3    H129053   1.158   0.930  16.278  0.7984 -0.3158 -2.3296
 2546TIP3    H229054   1.163   0.782  16.247  0.4711 -0.9089  0.2506
 2547TIP3   OH229055   2.956   2.738  12.441 -0.0430  0.3731  0.3522
 2547TIP3    H129056   2.978   2.673  12.375 -0.3124  1.2716 -0.6468
 2547TIP3    H229057   2.870   2.770  12.415  0.3850  1.6217  0.4130
 2548TIP3   OH229058   0.465   0.927   6.506 -0.7152  0.8139 -0.2455
 2548TIP3    H129059   0.542   0.959   6.552  0.7366 -0.0229 -1.9925
 2548TIP3    H229060   0.447   0.841   6.546 -0.9136  1.1068  0.3122
 2549TIP3   OH229061   5.472   5.406  12.807  0.1475 -0.1367  0.3597
 2549TIP3    H129062   5.441   5.398  12.717  0.8343 -2.3021  0.2582
 2549TIP3    H229063   5.565   5.428  12.799  0.0534  0.3698  0.5745
 2550TIP3   OH229064   5.089   0.817   0.986  0.3953  0.3385 -0.1284
 2550TIP3    H129065   5.159   0.782   0.932 -0.6610 -0.2042 -1.1904
 2550TIP3    H229066   5.127   0.895   1.027  1.2017  0.8538 -1.7664
 2551TIP3   OH229067   0.499   0.752  12.689  0.2319 -0.2646  0.2086
 2551TIP3    H129068   0.520   0.822  12.750  0.3620  0.6721 -0.8717
 2551TIP3    H229069   0.580   0.739  12.638  0.5743 -1.9848  1.1155
 2552TIP3   OH229070   5.104   3.060  13.382 -0.0613  0.1341 -0.5075
 2552TIP3    H129071   5.014   3.054  13.350 -0.7190  1.6812  0.9623
 2552TIP3    H229072   5.153   3.099  13.309 -0.5487 -0.6776 -1.2983
 2553TIP3   OH229073   5.765   2.571  10.213  0.0741 -0.0442  0.2158
 2553TIP3    H129074   5.683   2.522  10.203  1.2649 -2.4585  1.4553
 2553TIP3    H229075   5.773   2.586  10.307  0.7418  0.8085  0.0379
 2554TIP3   OH229076   6.336   5.969   2.935  0.3658 -0.4460  0.3446
 2554TIP3    H129077   6.303   6.049   2.894 -1.8039 -0.9599  0.9334
 2554TIP3    H229078   6.268   5.944   2.998  2.4778 -0.9900  2.5587
 2555TIP3   OH229079   2.101   2.669  12.325  0.4420 -0.1580 -0.3927
 2555TIP3    H129080   2.146   2.599  12.277 -0.2820 -0.5064 -0.5787
 2555TIP3    H229081   2.093   2.740  12.261  1.0483  0.0494 -0.2472
 2556TIP3   OH229082   0.653   6.812   1.673  0.0848 -0.0415 -0.0420
 2556TIP3    H129083   0.563   6.788   1.652 -0.1621 -0.0056  0.8977
 2556TIP3    H229084   0.678   6.750   1.742 -0.2721  1.7593  1.8295
 2557TIP3   OH229085   2.404   2.160  10.710 -0.2872  0.5751  0.2474
 2557TIP3    H129086   2.369   2.126  10.628  1.4542 -0.9051  0.0693
 2557TIP3    H229087   2.381   2.253  10.709 -0.4605  0.5579 -1.8310
 2558TIP3   OH229088   4.342   5.790  14.619 -0.0696 -0.1747  0.3669
 2558TIP3    H129089   4.343   5.832  14.705  0.2417  0.1022  0.2314
 2558TIP3    H229090   4.393   5.710  14.630  2.8586  1.4506 -0.3312
 2559TIP3   OH229091   4.405   1.998   5.137 -0.8713  0.0546 -0.0700
 2559TIP3    H129092   4.349   1.967   5.066  0.4008 -1.1700 -0.5622
 2559TIP3    H229093   4.479   1.938   5.139 -0.5487  0.4350  1.8871
 2560TIP3   OH229094   4.691   1.855  11.303 -0.3626 -0.5089 -0.1345
 2560TIP3    H129095   4.754   1.902  11.248  0.5320  0.2427  1.4596
 2560TIP3    H229096   4.611   1.851  11.250  0.7642 -0.7793 -1.8908
 2561TIP3   OH229097   1.319   3.623  16.267  0.1265  0.5192 -0.1322
 2561TIP3    H129098   1.270   3.587  16.193  1.0536  2.6031 -1.8593
 2561TIP3    H229099   1.396   3.567  16.274 -1.3830 -1.5035  1.2574
 2562TIP3   OH229100   2.827   1.947  15.013 -0.4047  0.0991 -0.4134
 2562TIP3    H129101   2.911   1.902  15.024 -0.1260  0.5803 -0.5119
 2562TIP3    H229102   2.843   2.010  14.942 -0.4054  1.2053  0.5311
 2563TIP3   OH229103   5.336   5.974   0.457  0.7238 -0.8127  0.3502
 2563TIP3    H129104   5.412   5.961   0.514  1.5919  1.0791 -0.2928
 2563TIP3    H229105   5.267   6.004   0.516  1.0995 -0.5205  0.6439
 2564TIP3   OH229106   3.843   4.851   4.219  0.1435 -0.6227 -0.1817
 2564TIP3    H129107   3.795   4.787   4.166  0.5262 -1.0570 -0.0184
 2564TIP3    H229108   3.862   4.923   4.159 -0.4221 -0.5914 -0.3302
 2565TIP3   OH229109   2.085   1.220  14.002  0.3190 -0.1983 -0.5367
 2565TIP3    H129110   2.092   1.203  14.096 -0.1537 -1.5567 -0.7301
 2565TIP3    H229111   1.991   1.216  13.983  0.3348  0.9034 -0.9349
 2566TIP3   OH229112   2.445   6.369   0.971  0.0851 -0.0556 -0.0093
 2566TIP3    H129113   2.400   6.285   0.980  0.8107 -0.4587  0.0133
 2566TIP3    H229114   2.478   6.388   1.060 -1.6203  1.1748  0.4063
 2567TIP3   OH229115   0.355   5.074  13.082  0.0815  0.2213  0.5034
 2567TIP3    H129116   0.318   5.040  13.164  2.3446  0.8153  1.8668
 2567TIP3    H229117   0.444   5.040  13.081 -0.0315 -0.1419 -2.0020
 2568TIP3   OH229118   5.549   6.749  11.562  0.1623 -0.6328 -0.0000
 2568TIP3    H129119   5.524   6.720  11.474  0.3945 -0.9528  0.0366
 2568TIP3    H229120   5.643   6.763  11.556 -0.0156  0.5734 -0.1430
 2569TIP3   OH229121   6.153   1.824   0.387 -0.0663  0.2273 -0.5676
 2569TIP3    H129122   6.122   1.853   0.301 -0.7983 -0.6067 -0.6004
 2569TIP3    H229123   6.202   1.899   0.421 -0.8823  1.0508 -1.1472
 2570TIP3   OH229124   5.526   4.783  11.129  0.1929  0.1611  0.3127
 2570TIP3    H129125   5.588   4.732  11.076 -0.0523 -0.2538  0.4251
 2570TIP3    H229126   5.459   4.812  11.067  0.0725 -0.0611  0.3408
 2571TIP3   OH229127   5.310   0.128  16.660  0.3045  0.1109 -0.4113
 2571TIP3    H129128   5.346   0.056  16.608 -0.8842 -0.9742  0.1917
 2571TIP3    H229129   5.235   0.160  16.609 -0.2183 -0.2544  0.1079
 2572TIP3   OH229130   5.072   1.147  16.373  0.0829 -0.1434 -0.4406
 2572TIP3    H129131   5.113   1.171  16.456 -0.0826  0.0432 -0.4127
 2572TIP3    H229132   5.140   1.100  16.325  0.5040  0.6153 -0.6109
 2573TIP3   OH229133   6.201   6.685  10.951  0.2789  0.2992 -0.5484
 2573TIP3    H129134   6.236   6.612  10.899 -0.6912  0.5616 -1.6176
 2573TIP3    H229135   6.130   6.646  11.001  0.5796  0.2528 -0.1562
 2574TIP3   OH229136   4.396   0.991   2.853 -0.5024 -0.1403 -0.4077
 2574TIP3    H129137   4.425   1.009   2.942  0.0860 -0.2960 -0.5648
 2574TIP3    H229138   4.415   0.898   2.839 -3.2936 -0.9196  0.3120
 2575TIP3   OH229139   1.948   2.259  15.568 -0.0576  0.3369  0.0257
 2575TIP3    H129140   2.037   2.263  15.533  0.1185 -0.0443  0.4248
 2575TIP3    H229141   1.913   2.347  15.554  0.0128  0.2016 -1.0824
 2576TIP3   OH229142   1.001   1.056   1.455  0.1312  0.0593  0.2060
 2576TIP3    H129143   0.921   1.104   1.475  0.8540  1.1918  0.4596
 2576TIP3    H229144   1.013   1.067   1.361 -0.3531 -0.6743  0.0498
 2577TIP3   OH229145   3.676   3.417  14.926 -0.6059 -0.4495 -0.4099
 2577TIP3    H129146   3.680   3.327  14.893  1.3182  0.4508 -2.9066
 2577TIP3    H229147   3.632   3.466  14.857 -1.2373  0.6505  0.7344
 2578TIP3   OH229148   5.887   5.826   4.744  0.1374  0.3203  0.2965
 2578TIP3    H129149   5.889   5.730   4.745 -0.7637  0.2895 -0.0167
 2578TIP3    H229150   5.978   5.851   4.728 -0.2052 -0.5791 -4.4438
 2579TIP3   OH229151   4.181   3.089  15.540 -0.2871 -0.0439  0.2952
 2579TIP3    H129152   4.123   3.077  15.615  1.5127 -0.4706  1.6923
 2579TIP3    H229153   4.267   3.060  15.571  0.7247  0.6838 -1.6382
 2580TIP3   OH229154   2.363   6.166   2.595  0.1014 -0.5601  0.0415
 2580TIP3    H129155   2.269   6.154   2.588 -0.8027  4.0339  1.1423
 2580TIP3    H229156   2.391   6.195   2.508  0.0772 -0.0427  0.1998
 2581TIP3   OH229157   6.681   0.853   4.270 -0.1188 -0.2026 -0.0784
 2581TIP3    H129158   6.637   0.937   4.258  0.0399 -0.1750 -0.4852
 2581TIP3    H229159   6.613   0.794   4.304 -0.2018  0.1177  0.3126
 2582TIP3   OH229160   0.350   2.325   5.033 -0.7139 -0.5230  0.4928
 2582TIP3    H129161   0.305   2.399   5.074 -0.4605  2.0715 -3.3368
 2582TIP3    H229162   0.279   2.271   4.998 -0.9649  0.5792 -0.7843
 2583TIP3   OH229163   5.759   3.252   4.585 -0.4848  0.1151  0.5854
 2583TIP3    H129164   5.752   3.274   4.492 -2.4718  2.0634  1.1242
 2583TIP3    H229165   5.801   3.328   4.625 -0.0775 -0.5046  1.3715
 2584TIP3   OH229166   1.851   1.377  12.216  0.2484  0.2369  0.0169
 2584TIP3    H129167   1.834   1.437  12.288  0.3102  0.3084 -0.0276
 2584TIP3    H229168   1.778   1.315  12.218  0.2585  0.2290  0.1507
 2585TIP3   OH229169   2.161   1.643  16.916  0.0366  0.1042  0.4149
 2585TIP3    H129170   2.070   1.673  16.915  0.4440  1.4045 -0.1515
 2585TIP3    H229171   2.160   1.560  16.869 -0.9247 -0.0988  0.7875
 2586TIP3   OH229172   1.296   3.455   0.670  0.6063 -0.0719 -0.1151
 2586TIP3    H129173   1.224   3.513   0.692  1.6042  0.5641  1.7173
 2586TIP3    H229174   1.341   3.439   0.754  0.9661 -2.6919 -0.6969
 2587TIP3   OH229175   6.534   1.150  12.778  0.0501 -0.5772 -0.8414
 2587TIP3    H129176   6.471   1.220  12.794  0.4531  0.0123 -1.7423
 2587TIP3    H229177   6.495   1.099  12.707 -0.7739 -1.9626  0.5455
 2588TIP3   OH229178   4.962   2.039   4.908 -0.1314  0.5601 -0.5488
 2588TIP3    H129179   4.964   2.062   4.815 -1.2268  0.9582 -0.4903
 2588TIP3    H229180   4.961   2.123   4.954 -1.9348  0.4255 -0.2637
 2589TIP3   OH229181   1.057   5.658   2.410 -0.1055 -0.1294  0.6592
 2589TIP3    H129182   1.065   5.677   2.503 -1.6082 -1.6132  1.1381
 2589TIP3    H229183   1.147   5.656   2.378  0.4143  0.7378  1.9889
 2590TIP3   OH229184   3.003   2.831   2.935  0.0734 -0.5062  0.1484
 2590TIP3    H129185   2.969   2.899   2.994  1.7939  2.3754 -1.8917
 2590TIP3    H229186   2.926   2.803   2.885 -0.3487  1.7603 -0.5836
 2591TIP3   OH229187   3.259   0.016  11.694  0.7616 -0.1803 -0.0714
 2591TIP3    H129188   3.285  -0.070  11.659  1.3800  0.5438 -1.4684
 2591TIP3    H229189   3.324   0.077  11.659  0.1502  0.9125  0.6452
 2592TIP3   OH229190   4.175   2.742  11.909  0.7111  0.3461 -0.0032
 2592TIP3    H129191   4.118   2.807  11.868 -0.2954 -0.7006 -0.3127
 2592TIP3    H229192   4.153   2.746  12.003 -0.2335 -0.3580 -0.1740
 2593TIP3   OH229193   0.483   5.597  14.214  0.0007 -0.1157 -0.3228
 2593TIP3    H129194   0.506   5.567  14.302  1.6007  0.8398 -0.3678
 2593TIP3    H229195   0.534   5.677  14.202 -0.7988  0.2071 -1.8285
 2594TIP3   OH229196   5.560   6.335   2.046 -0.4207  0.4417 -0.9328
 2594TIP3    H129197   5.529   6.353   1.957 -0.6186 -0.5446 -1.0731
 2594TIP3    H229198   5.654   6.321   2.035 -0.6966 -1.3471 -1.2711
 2595TIP3   OH229199   1.451   0.699   0.439  0.1177 -0.4752 -0.3900
 2595TIP3    H129200   1.398   0.619   0.440  0.4399 -0.7049 -1.0826
 2595TIP3    H229201   1.420   0.747   0.363 -0.8099  0.5796  0.6251
 2596TIP3   OH229202   0.201   6.477   0.491  0.4875 -0.1325 -0.0057
 2596TIP3    H129203   0.189   6.517   0.577  1.8782  0.8234 -0.2180
 2596TIP3    H229204   0.158   6.392   0.498  0.9421 -0.2620  1.7954
 2597TIP3   OH229205   0.266   3.525  11.936 -0.1910 -0.1505  0.7212
 2597TIP3    H129206   0.294   3.507  12.026  0.2602  1.1012  0.8436
 2597TIP3    H229207   0.346   3.517  11.884 -0.7173 -2.4862  0.1310
 2598TIP3   OH229208   5.231   5.019   1.806  0.4615  0.3179  0.0209
 2598TIP3    H129209   5.283   4.960   1.861  2.0273  0.7621 -0.9043
 2598TIP3    H229210   5.211   5.093   1.864 -0.0010 -0.2973  0.6695
 2599TIP3   OH229211   6.638   5.115   0.099 -0.0291 -0.3656  0.2241
 2599TIP3    H129212   6.578   5.060   0.149 -0.4542  1.1794  1.4988
 2599TIP3    H229213   6.710   5.057   0.076 -1.2245 -1.8494  0.0824
 2600TIP3   OH229214   2.854   4.792  15.688  0.3447  0.5951  0.3958
 2600TIP3    H129215   2.948   4.789  15.701  0.5042  2.4277 -0.0284
 2600TIP3    H229216   2.834   4.885  15.677 -1.6568  0.3608  1.4939
 2601TIP3   OH229217   0.888   1.692   2.257  0.0132  0.3182  0.0866
 2601TIP3    H129218   0.801   1.678   2.294  0.1553  0.4546  0.4748
 2601TIP3    H229219   0.874   1.753   2.185 -0.3887 -0.5904 -0.6344
 2602TIP3   OH229220   4.873   3.197   1.649  0.3459 -0.3153  0.1902
 2602TIP3    H129221   4.921   3.218   1.569  1.8677 -0.5174  1.0206
 2602TIP3    H229222   4.863   3.282   1.693 -2.8287  0.2955 -1.3478
 2603TIP3   OH229223   1.343   4.533   0.981 -0.3216 -0.7532 -0.2896
 2603TIP3    H129224   1.368   4.623   0.961  1.8272 -0.9620  1.1247
 2603TIP3    H229225   1.316   4.535   1.073  0.8024 -1.7014  0.0856
 2604TIP3   OH229226   1.503   3.628   2.710 -0.3650  0.3533  0.0452
 2604TIP3    H129227   1.414   3.610   2.739 -0.6269  0.7064 -0.5326
 2604TIP3    H229228   1.533   3.699   2.766  0.8979 -2.0993  2.7905
 2605TIP3   OH229229   4.522   0.977   4.424  0.1885 -0.0504 -0.2956
 2605TIP3    H129230   4.579   0.901   4.432  3.1943  2.0273 -0.1773
 2605TIP3    H229231   4.517   1.013   4.512 -0.1632  0.5797 -0.5662
 2606TIP3   OH229232   0.925   2.469   2.679 -0.3652  0.3231 -0.2127
 2606TIP3    H129233   0.905   2.393   2.624 -1.1700  0.1014  0.3708
 2606TIP3    H229234   0.866   2.461   2.754 -2.0884  2.6946 -1.1751
 2607TIP3   OH229235   2.131   0.299   5.322 -0.0520  0.6014  0.4036
 2607TIP3    H129236   2.079   0.227   5.360 -3.5483  3.2976  1.2636
 2607TIP3    H229237   2.175   0.339   5.397  2.5691 -0.9905 -0.1841
 2608TIP3   OH229238   4.758   3.678  15.854  0.1979 -0.1431  0.0908
 2608TIP3    H129239   4.769   3.735  15.930 -0.0272  1.1190 -0.7735
 2608TIP3    H229240   4.673   3.703  15.817 -0.4961 -1.9413  0.3779
 2609TIP3   OH229241   1.960   3.945   5.666  0.0365  0.6437 -0.5866
 2609TIP3    H129242   1.902   3.873   5.644 -0.8584  1.0342  0.3966
 2609TIP3    H229243   2.020   3.909   5.731 -1.5446  1.1641  1.3017
 2610TIP3   OH229244   4.020   4.554  13.524 -0.1403 -0.3414  0.2786
 2610TIP3    H129245   4.008   4.626  13.462  2.3528  0.3683  0.5198
 2610TIP3    H229246   4.064   4.486  13.473  1.7405  0.1636  1.1617
 2611TIP3   OH229247   6.111   0.951  12.145  0.3406  0.1790 -0.4560
 2611TIP3    H129248   6.068   1.033  12.171 -0.8540 -0.3413 -0.6970
 2611TIP3    H229249   6.038   0.890  12.128  1.2030 -1.2304  0.6501
 2612TIP3   OH229250   0.091   5.323   1.959 -0.1719  0.4089  0.1571
 2612TIP3    H129251   0.002   5.311   1.990 -1.2031  2.3602 -1.7875
 2612TIP3    H229252   0.131   5.236   1.967 -2.6113 -0.8284 -0.0691
 2613TIP3   OH229253   3.640   6.760  15.390  0.1524  0.3846  0.3597
 2613TIP3    H129254   3.642   6.760  15.485 -0.9430 -0.3246  0.3928
 2613TIP3    H229255   3.651   6.668  15.366  0.9315  0.6104 -0.2301
 2614TIP3   OH229256   6.747   1.616   4.133 -0.3441  0.3274  0.5951
 2614TIP3    H129257   6.806   1.579   4.198 -0.7429 -1.4208 -0.0006
 2614TIP3    H229258   6.703   1.688   4.179 -0.4332 -0.6986  2.1750
 2615TIP3   OH229259   3.483   0.852  13.658  0.1919 -0.0455  0.0083
 2615TIP3    H129260   3.450   0.915  13.723  1.2419  0.5720 -0.0315
 2615TIP3    H229261   3.578   0.867  13.656  0.1558  0.2327 -1.9334
 2616TIP3   OH229262   2.151   3.357   4.634 -0.2173  0.2451 -0.1530
 2616TIP3    H129263   2.177   3.405   4.713 -0.2265  1.7052 -0.9996
 2616TIP3    H229264   2.097   3.285   4.667 -2.7597  2.4976  1.0588
 2617TIP3   OH229265   5.389   3.336  11.387 -0.0473 -0.2277  0.7540
 2617TIP3    H129266   5.344   3.365  11.308  0.6149 -0.2971  0.3485
 2617TIP3    H229267   5.472   3.300  11.356 -0.1358 -1.0196  1.4043
 2618TIP3   OH229268   4.698   6.719   3.734 -0.1850 -0.5998  0.2212
 2618TIP3    H129269   4.695   6.812   3.714 -0.7212 -0.8480 -0.9133
 2618TIP3    H229270   4.610   6.687   3.716  0.0902 -1.4014  0.2540
 2619TIP3   OH229271   1.589   4.310  16.271  0.3779  0.4713 -0.2332
 2619TIP3    H129272   1.555   4.399  16.284 -0.5623  0.0048  0.6157
 2619TIP3    H229273   1.541   4.256  16.333  0.1169 -0.8316 -1.4997
 2620TIP3   OH229274   0.655   2.597   0.489  0.6667  1.0045 -0.8962
 2620TIP3    H129275   0.575   2.551   0.513  2.2896 -1.3067  0.6524
 2620TIP3    H229276   0.646   2.684   0.527 -1.0123  0.7079 -0.5586
 2621TIP3   OH229277   4.117   4.037  15.127 -0.2645  0.1538  0.0007
 2621TIP3    H129278   4.036   3.994  15.155 -0.4467 -0.5631 -1.5381
 2621TIP3    H229279   4.098   4.067  15.038  1.2661 -0.2896 -0.4983
 2622TIP3   OH229280   1.502   2.678  11.031 -0.3811  0.4129  0.1575
 2622TIP3    H129281   1.544   2.592  11.020  1.3305  1.4376 -2.2737
 2622TIP3    H229282   1.514   2.698  11.124 -1.7557 -2.3538  1.0503
 2623TIP3   OH229283   4.605   1.002   1.047  0.5742 -0.0554  0.9496
 2623TIP3    H129284   4.517   1.041   1.041  0.7038  0.1708  0.5298
 2623TIP3    H229285   4.664   1.078   1.054  0.9516 -0.0957 -1.2175
 2624TIP3   OH229286   2.502   5.234  14.014  0.2112 -0.9538  1.0539
 2624TIP3    H129287   2.410   5.208  14.022 -0.2304  0.3378  0.4499
 2624TIP3    H229288   2.513   5.254  13.921 -0.0493  2.8158  1.6869
 2625TIP3   OH229289   0.063   4.098   4.620 -0.1716  0.1448 -0.0367
 2625TIP3    H129290   0.093   4.098   4.710 -0.3609  1.8992  0.0689
 2625TIP3    H229291  -0.018   4.149   4.622 -0.1685  0.2261 -1.1870
 2626TIP3   OH229292   4.727   3.894   5.876  0.6238  0.1907  0.0590
 2626TIP3    H129293   4.809   3.935   5.903  1.0098 -0.3884 -0.2122
 2626TIP3    H229294   4.753   3.809   5.841 -0.0062  0.3610 -0.8570
 2627TIP3   OH229295   6.709   1.162  14.382  0.3188 -0.4818 -0.2081
 2627TIP3    H129296   6.667   1.186  14.299 -1.5435 -1.5519  0.3507
 2627TIP3    H229297   6.760   1.239  14.406  0.2712  0.1484 -1.9495
 2628TIP3   OH229298   0.534   4.982   4.302 -0.2645  0.0450 -0.3499
 2628TIP3    H129299   0.517   5.077   4.302 -1.2730 -0.1280  0.6462
 2628TIP3    H229300   0.611   4.972   4.358 -0.3029  0.2475 -0.2586
 2629TIP3   OH229301   2.377   2.926  15.683 -0.4582  0.1319 -0.0101
 2629TIP3    H129302   2.334   2.856  15.636 -1.6141  0.0494  1.1174
 2629TIP3    H229303   2.307   2.968  15.734  0.4806  1.0964  0.5345
 2630TIP3   OH229304   3.011   5.145  11.808 -0.1664  0.4522  0.0215
 2630TIP3    H129305   3.060   5.174  11.732 -0.5449  1.1332  0.0315
 2630TIP3    H229306   2.994   5.052  11.792 -0.2513  0.5964 -0.7224
 2631TIP3   OH229307   1.215   2.475   1.007  0.1034 -0.2430  0.0116
 2631TIP3    H129308   1.180   2.385   1.011  0.2168 -0.2555  0.6902
 2631TIP3    H229309   1.137   2.530   0.999  0.0737 -0.4544 -1.4962
 2632TIP3   OH229310   5.579   0.520   5.269  0.5017  0.5358 -0.0312
 2632TIP3    H129311   5.600   0.584   5.201 -0.4308  1.8589  0.8716
 2632TIP3    H229312   5.484   0.518   5.273  0.5250  0.6494  1.3549
 2633TIP3   OH229313   5.085   4.568  15.443 -0.0881  0.4731  0.8212
 2633TIP3    H129314   5.179   4.581  15.428 -0.1404 -0.1523 -0.1101
 2633TIP3    H229315   5.042   4.611  15.370 -0.5257  0.6300  1.1656
 2634TIP3   OH229316   1.923   3.260   6.676  0.0976 -0.2058  1.1076
 2634TIP3    H129317   1.995   3.249   6.613 -0.7518 -0.8056  0.2142
 2634TIP3    H229318   1.897   3.352   6.667 -1.9221 -0.9132 -1.6185
 2635TIP3   OH229319   2.013   2.105  12.533  0.0310 -0.1997 -0.0902
 2635TIP3    H129320   1.952   2.170  12.567 -0.1076 -0.9530  1.1953
 2635TIP3    H229321   2.076   2.155  12.482 -1.3684  0.6509 -1.0402
 2636TIP3   OH229322   3.967   2.866  11.748 -0.3167 -0.8960 -0.0374
 2636TIP3    H129323   3.929   2.785  11.713 -1.5648 -0.1910 -0.3616
 2636TIP3    H229324   3.956   2.930  11.678  0.0644 -0.2651  0.4672
 2637TIP3   OH229325   4.232   1.665  16.767 -0.0270  0.9639 -0.4780
 2637TIP3    H129326   4.214   1.756  16.742 -0.4869  0.6051 -1.4673
 2637TIP3    H229327   4.160   1.642  16.826  0.5219  1.4815  0.4331
 2638TIP3   OH229328   1.912   2.836   2.036  0.1809  0.0463 -0.4012
 2638TIP3    H129329   1.834   2.802   1.992  0.8033 -0.6999 -0.9581
 2638TIP3    H229330   1.932   2.771   2.103  0.8882 -0.2856 -0.9167
 2639TIP3   OH229331   1.190   3.644   5.177 -0.4340  0.5800  0.4492
 2639TIP3    H129332   1.262   3.699   5.208  2.1543 -0.8896 -2.3514
 2639TIP3    H229333   1.162   3.594   5.254  2.1548  0.6431  1.5253
 2640TIP3   OH229334   0.472   2.679   2.752  0.3513  0.4105 -0.2615
 2640TIP3    H129335   0.420   2.750   2.791 -0.2379 -0.3314  0.3347
 2640TIP3    H229336   0.558   2.719   2.735  0.1109  1.1960  0.2938
 2641TIP3   OH229337   4.390   3.828  12.226  0.1673 -0.7588 -0.0964
 2641TIP3    H129338   4.351   3.790  12.305  0.6926  0.0608  0.5788
 2641TIP3    H229339   4.333   3.902  12.204  0.6924 -0.2413  0.2418
 2642TIP3   OH229340   0.705   4.461   3.591 -0.4171 -0.1638 -0.1356
 2642TIP3    H129341   0.667   4.422   3.512 -0.7883 -1.2214  0.5377
 2642TIP3    H229342   0.797   4.434   3.588 -0.7122 -1.3007  0.4185
 2643TIP3   OH229343   3.346   1.063  14.211 -0.2996  0.3893  0.1425
 2643TIP3    H129344   3.257   1.070  14.177  0.1420  2.0605 -0.8108
 2643TIP3    H229345   3.359   1.145  14.259  0.4408 -0.2295  1.0468
 2644TIP3   OH229346   0.273   3.602  16.145  0.3041  0.4708 -0.0653
 2644TIP3    H129347   0.252   3.625  16.235  2.3107  1.0188  0.3206
 2644TIP3    H229348   0.365   3.576  16.148  0.5395  0.9022 -2.0053
 2645TIP3   OH229349   1.751   3.787   2.239  0.4156 -0.4194  0.1926
 2645TIP3    H129350   1.679   3.789   2.303  0.1466  0.4592 -0.1244
 2645TIP3    H229351   1.732   3.859   2.179  0.3472 -1.6141 -1.2533
 2646TIP3   OH229352   5.945   0.853  11.471  0.1892  0.3505  0.3869
 2646TIP3    H129353   5.914   0.764  11.452 -0.5296  0.6233  0.2490
 2646TIP3    H229354   6.040   0.845  11.471  0.2413  0.1327 -2.4303
 2647TIP3   OH229355   4.750   6.380  12.251 -0.0947 -0.0212  0.5166
 2647TIP3    H129356   4.695   6.427  12.187 -1.2740  1.3442  2.4130
 2647TIP3    H229357   4.812   6.446  12.282 -0.1523 -0.3871  1.4419
 2648TIP3   OH229358   2.860   6.016   1.571  0.1032  0.1668 -0.3222
 2648TIP3    H129359   2.844   6.032   1.478 -0.1468  1.7912 -0.0291
 2648TIP3    H229360   2.928   5.948   1.573 -0.1789 -0.1650 -1.6788
 2649TIP3   OH229361   5.931   5.249   1.859 -0.7103  0.2496  0.1496
 2649TIP3    H129362   5.902   5.252   1.768 -0.4640 -1.0988 -0.0069
 2649TIP3    H229363   5.854   5.223   1.908 -0.2028 -1.9004 -0.0814
 2650TIP3   OH229364   6.124   6.545  17.058  0.1817  0.2852 -0.1843
 2650TIP3    H129365   6.096   6.557  16.967  2.3808  0.4381 -0.8982
 2650TIP3    H229366   6.182   6.470  17.056 -1.2618 -0.9546  1.5045
 2651TIP3   OH229367   5.730   0.880  13.314 -0.0378  0.1228  0.4405
 2651TIP3    H129368   5.671   0.832  13.371 -1.5532  1.4002  0.0177
 2651TIP3    H229369   5.736   0.968  13.353 -0.2069  0.6713 -0.7147
 2652TIP3   OH229370   2.118   2.323   5.859 -0.1675 -0.4182 -0.0625
 2652TIP3    H129371   2.026   2.303   5.878 -0.6602  0.4081 -1.4183
 2652TIP3    H229372   2.155   2.349   5.943 -1.6649  0.9967  0.2083
 2653TIP3   OH229373   0.583   0.101   5.128 -1.0843  0.5785  0.0088
 2653TIP3    H129374   0.610   0.111   5.220 -0.3773  1.5765 -0.2901
 2653TIP3    H229375   0.526   0.176   5.112 -2.3867 -0.3690  0.0153
 2654TIP3   OH229376   5.881   4.184  11.193  0.0886  0.0137 -0.4299
 2654TIP3    H129377   5.844   4.097  11.200  1.6880 -0.7491 -0.9363
 2654TIP3    H229378   5.810   4.243  11.219 -1.6427 -1.2936 -1.9460
 2655TIP3   OH229379   1.725   4.502  10.940  0.2690 -0.6029 -0.2045
 2655TIP3    H129380   1.728   4.411  10.911  1.4930  0.2916 -3.1867
 2655TIP3    H229381   1.815   4.522  10.967  0.2416  0.0190 -0.5597
 2656TIP3   OH229382   3.699   4.456   2.757  0.5140  0.4846  0.2679
 2656TIP3    H129383   3.715   4.363   2.741 -0.5834 -0.1162  2.3365
 2656TIP3    H229384   3.607   4.469   2.733  0.7017  1.0900 -0.1537
 2657TIP3   OH229385   5.948   6.224   3.430  1.0920  0.4413 -0.3309
 2657TIP3    H129386   6.040   6.249   3.424  1.2305 -0.0816 -0.4251
 2657TIP3    H229387   5.919   6.258   3.515  1.3611  0.6381 -0.3180
 2658TIP3   OH229388   1.564   3.709  11.141  0.0536  0.2651  0.2005
 2658TIP3    H129389   1.553   3.615  11.158  0.4651  0.2074  0.1577
 2658TIP3    H229390   1.623   3.739  11.210  0.7307  0.2868 -0.3836
 2659TIP3   OH229391   4.031   6.143  16.332 -0.0310  0.2538  0.3443
 2659TIP3    H129392   3.944   6.181  16.346  0.3684  1.1103  0.5527
 2659TIP3    H229393   4.055   6.105  16.416  0.0873  0.6190  0.4745
 2660TIP3   OH229394   1.235   3.839  11.795  0.5242  0.2421  0.3094
 2660TIP3    H129395   1.252   3.930  11.818  2.2186 -0.3112  1.4077
 2660TIP3    H229396   1.142   3.837  11.774  0.1365  1.9308  1.6478
 2661TIP3   OH229397   2.115   3.324  15.597 -0.2245  0.1249  0.2118
 2661TIP3    H129398   2.116   3.351  15.505 -1.8647  1.5048  0.5304
 2661TIP3    H229399   2.207   3.328  15.624  0.1570  0.8235 -1.0746
 2662TIP3   OH229400   2.657   1.357  12.159 -0.5064  0.2259  0.0234
 2662TIP3    H129401   2.691   1.343  12.071 -0.6728 -0.4505  0.0618
 2662TIP3    H229402   2.587   1.422  12.147 -0.2781  0.4187 -0.2828
 2663TIP3   OH229403   6.618   4.609  15.491  0.4040 -0.2919 -0.1254
 2663TIP3    H129404   6.595   4.589  15.582  1.3408  0.3757  0.2718
 2663TIP3    H229405   6.559   4.679  15.465 -0.7900 -1.3949 -0.5018
 2664TIP3   OH229406   5.561   4.568  15.943  0.2806  0.6333  0.2819
 2664TIP3    H129407   5.548   4.480  15.908 -0.1168  0.8450 -0.1067
 2664TIP3    H229408   5.492   4.621  15.903 -0.7959  0.6865  2.0906
 2665TIP3   OH229409   4.241   4.885   0.611 -0.5136  0.1802 -0.5472
 2665TIP3    H129410   4.167   4.943   0.597  0.5633  1.6224 -0.4154
 2665TIP3    H229411   4.202   4.805   0.647 -1.9476  1.0948  0.0138
 2666TIP3   OH229412   1.961   6.549  11.414  0.0508 -0.0868  0.1039
 2666TIP3    H129413   1.892   6.572  11.351 -1.5245  0.5163  1.9513
 2666TIP3    H229414   1.974   6.455  11.401 -1.8998 -0.4382  0.4055
 2667TIP3   OH229415   6.333   3.638  11.075  0.4332 -0.1517  0.0877
 2667TIP3    H129416   6.278   3.716  11.062  0.0248  0.0870  2.6046
 2667TIP3    H229417   6.285   3.568  11.031 -0.9051  0.4327  0.5446
 2668TIP3   OH229418   4.339   3.133   6.612 -0.0620  0.2601  0.3458
 2668TIP3    H129419   4.337   3.041   6.584  2.5735  0.1204  0.4166
 2668TIP3    H229420   4.403   3.135   6.683  0.2916  2.2572  0.0060
 2669TIP3   OH229421   2.403   2.580  15.359  0.2040  0.3903 -0.0309
 2669TIP3    H129422   2.442   2.661  15.392  0.6990 -0.8306  2.6775
 2669TIP3    H229423   2.309   2.600  15.353 -0.1226  0.5313  3.2549
 2670TIP3   OH229424   0.275   0.302   4.462  0.2676  0.1790  0.2205
 2670TIP3    H129425   0.322   0.240   4.405 -0.0756 -1.5670  1.7466
 2670TIP3    H229426   0.238   0.248   4.531 -2.6177  1.7156  0.0068
 2671TIP3   OH229427   4.979   3.168  16.958  0.3255  0.0359 -0.3443
 2671TIP3    H129428   5.038   3.094  16.943 -0.1304 -0.4523  0.2027
 2671TIP3    H229429   5.026   3.244  16.923  1.5892 -0.2282  0.6885
 2672TIP3   OH229430   0.423   5.433  12.090  0.0785  0.3858  0.4605
 2672TIP3    H129431   0.355   5.391  12.037 -0.2394  1.7528 -0.2489
 2672TIP3    H229432   0.376   5.471  12.164  0.1876  0.6044  0.4187
 2673TIP3   OH229433   2.486   5.387  14.421 -0.3230  0.7731 -0.0534
 2673TIP3    H129434   2.569   5.382  14.374 -0.2642 -1.9188  0.1712
 2673TIP3    H229435   2.420   5.395  14.352 -0.0217  0.3890 -0.3918
 2674TIP3   OH229436   2.260   4.909  10.511  0.0123  0.1396 -0.3359
 2674TIP3    H129437   2.280   5.002  10.505 -1.7382  0.5417 -0.2355
 2674TIP3    H229438   2.229   4.885  10.423 -1.5246  0.1581  0.1777
 2675TIP3   OH229439   2.382   2.577  11.039 -0.0194  0.2592 -0.6309
 2675TIP3    H129440   2.325   2.534  10.975  0.1379 -0.1739 -0.4814
 2675TIP3    H229441   2.469   2.540  11.022 -0.1812 -0.7643  0.6147
 2676TIP3   OH229442   0.354   2.323  13.285 -0.6274  0.1706  0.3800
 2676TIP3    H129443   0.292   2.270  13.336  0.7791 -2.1839 -0.1998
 2676TIP3    H229444   0.413   2.360  13.351  0.4687 -1.8990  0.6456
 2677TIP3   OH229445   0.211   4.537  11.624 -0.3290 -0.0730  0.1148
 2677TIP3    H129446   0.126   4.494  11.622 -0.0920 -0.5321 -0.7138
 2677TIP3    H229447   0.265   4.485  11.564  0.7741 -0.2878  1.2435
 2678TIP3   OH229448   1.842   5.413  11.818  0.0261  0.1594 -0.6303
 2678TIP3    H129449   1.893   5.405  11.737 -0.4902 -1.4647 -0.8359
 2678TIP3    H229450   1.896   5.372  11.884  0.3082  1.2083 -0.1882
 2679TIP3   OH229451   0.074   0.948  14.842 -0.1250 -0.1622 -0.1104
 2679TIP3    H129452   0.086   1.002  14.765 -0.7779  0.9745  0.5665
 2679TIP3    H229453   0.033   1.006  14.907 -1.0246 -1.4995  0.5722
 2680TIP3   OH229454   6.012   6.325  15.545  0.5380 -0.5376  0.2682
 2680TIP3    H129455   6.063   6.287  15.616 -0.8015  1.3576  2.4237
 2680TIP3    H229456   5.921   6.312  15.572  0.0061  2.6947  0.4170
 2681TIP3   OH229457   3.909   3.883  15.081  0.0221 -0.2051 -0.1632
 2681TIP3    H129458   3.829   3.836  15.107 -0.6611  1.0642  0.1000
 2681TIP3    H229459   3.975   3.814  15.075 -0.8374 -1.1543  0.6513
 2682TIP3   OH229460   0.858   5.579   3.029  0.3119 -0.1607  0.0688
 2682TIP3    H129461   0.940   5.548   2.990  1.2397  0.8795  1.0863
 2682TIP3    H229462   0.882   5.661   3.072 -1.8889  1.7461 -2.0518
 2683TIP3   OH229463   4.181   5.636  11.990  0.9187 -0.3419  0.2688
 2683TIP3    H129464   4.101   5.668  12.032  0.3898 -2.5063  1.0160
 2683TIP3    H229465   4.242   5.621  12.062  1.1441 -1.0030 -0.0512
 2684TIP3   OH229466   3.104   4.193  12.254  0.5119 -0.8124  0.3033
 2684TIP3    H129467   3.129   4.258  12.188  1.2924  0.2563  1.5793
 2684TIP3    H229468   3.176   4.129  12.252  1.2257 -0.0632  0.9996
 2685TIP3   OH229469   1.547   1.683   0.011 -0.2102 -0.9478  0.1688
 2685TIP3    H129470   1.563   1.776   0.023  0.3646 -0.8956 -0.8443
 2685TIP3    H229471   1.537   1.673  -0.084  0.1192 -1.9636  0.2307
 2686TIP3   OH229472   4.459   0.261   1.764  0.0175  0.3850 -0.1188
 2686TIP3    H129473   4.494   0.176   1.738 -0.0267  0.2186  0.3569
 2686TIP3    H229474   4.445   0.254   1.858 -3.7232 -0.4640 -0.5661
 2687TIP3   OH229475   0.179   6.080   5.094  0.1880 -0.2492 -0.0829
 2687TIP3    H129476   0.143   6.027   5.023 -0.0649 -0.8035  0.4493
 2687TIP3    H229477   0.113   6.074   5.163  1.3523 -1.4263  0.9822
 2688TIP3   OH229478   3.177   2.742   2.671  0.0983  0.6955  0.0046
 2688TIP3    H129479   3.173   2.742   2.575  1.1164 -1.2044 -0.0920
 2688TIP3    H229480   3.203   2.832   2.694  0.2107  1.0811 -1.5244
 2689TIP3   OH229481   3.125   6.283   5.626  0.4818  0.0364  0.2576
 2689TIP3    H129482   3.208   6.249   5.594  0.1166  0.4904 -1.2693
 2689TIP3    H229483   3.061   6.214   5.606  0.2354  0.3611 -0.0990
 2690TIP3   OH229484   1.583   2.534   3.991 -0.2316 -0.1227 -0.6213
 2690TIP3    H129485   1.557   2.535   3.899  2.0071  2.3489 -1.3454
 2690TIP3    H229486   1.665   2.485   3.992  0.3121  0.7692 -0.1621
 2691TIP3   OH229487   5.537   0.365  13.287 -0.1878 -0.0193  0.7162
 2691TIP3    H129488   5.492   0.282  13.301 -0.6026  0.2072  0.7479
 2691TIP3    H229489   5.583   0.354  13.204 -0.7826 -0.0531  0.3873
 2692TIP3   OH229490   2.172   3.053  14.866  0.5871  0.1223  1.0349
 2692TIP3    H129491   2.150   2.961  14.882 -0.8944  0.3047  0.2373
 2692TIP3    H229492   2.127   3.100  14.936 -0.6832  0.4045  0.0709
 2693TIP3   OH229493   2.119   2.697   2.757  0.0525  0.3541 -0.5442
 2693TIP3    H129494   2.215   2.697   2.766  0.1249  0.3479 -1.2683
 2693TIP3    H229495   2.090   2.771   2.810  0.3856 -0.1543  0.3729
 2694TIP3   OH229496   1.785   3.721   2.915 -0.1175 -0.8234 -0.1332
 2694TIP3    H129497   1.834   3.719   2.833 -1.2832 -1.0420 -0.8537
 2694TIP3    H229498   1.702   3.764   2.892 -0.4910 -0.9565  0.9120
 2695TIP3   OH229499   1.657   5.707   3.913  0.2164  0.0096  0.0515
 2695TIP3    H129500   1.660   5.802   3.908 -1.5156  0.1303  0.6830
 2695TIP3    H229501   1.730   5.683   3.970  1.4273  0.8338 -1.0895
 2696TIP3   OH229502   4.333   6.749   0.377 -0.0546 -0.2268 -0.1125
 2696TIP3    H129503   4.375   6.702   0.448  1.5865  0.4011 -0.6249
 2696TIP3    H229504   4.254   6.699   0.357  0.3236 -1.3056  1.0449
 2697TIP3   OH229505   4.325   0.733   5.747  0.2287  0.5243 -0.3498
 2697TIP3    H129506   4.405   0.769   5.785  1.5555 -1.0126 -1.4994
 2697TIP3    H229507   4.331   0.639   5.765 -1.4187  0.3951 -0.3328
 2698TIP3   OH229508   3.583   1.728  16.952 -0.1693  0.4796  0.4706
 2698TIP3    H129509   3.528   1.750  16.876 -1.4007 -1.6272  0.6670
 2698TIP3    H229510   3.672   1.723  16.917  0.1577  4.5608  0.2482
 2699TIP3   OH229511   2.204   5.989  11.542  0.0870  0.7125  0.6794
 2699TIP3    H129512   2.193   5.952  11.454  0.3327  1.2844  0.4049
 2699TIP3    H229513   2.146   6.065  11.544 -0.2653  0.4333  1.1721
 2700TIP3   OH229514   2.599   3.891  12.601  0.0109  0.4158  0.3749
 2700TIP3    H129515   2.566   3.804  12.622 -1.4323  1.1060  1.1240
 2700TIP3    H229516   2.573   3.906  12.510  1.0060 -0.2531 -0.0269
 2701TIP3   OH229517   3.214   1.605  15.554 -0.2449  0.4992 -0.0634
 2701TIP3    H129518   3.195   1.515  15.529  0.5360  0.0634  0.8682
 2701TIP3    H229519   3.179   1.614  15.643  0.4110  0.8540  0.1665
 2702TIP3   OH229520   1.686   1.228  15.424 -0.5470  0.0127 -0.0226
 2702TIP3    H129521   1.627   1.287  15.377  0.3901 -0.4719 -1.9372
 2702TIP3    H229522   1.774   1.263  15.406  0.0780 -2.1513 -1.6426
 2703TIP3   OH229523   5.725   1.471  12.023 -0.3502  0.8515 -0.5256
 2703TIP3    H129524   5.812   1.429  12.024  0.0634  1.5927 -2.0982
 2703TIP3    H229525   5.664   1.398  12.032  0.4008  0.0624 -1.5171
 2704TIP3   OH229526   0.663   1.196  15.137 -0.4329  0.1283 -0.5082
 2704TIP3    H129527   0.583   1.158  15.100 -0.2162  0.6527 -1.5742
 2704TIP3    H229528   0.690   1.261  15.072  1.4389 -0.7848 -0.6931
 2705TIP3   OH229529   1.651   1.525  16.564 -0.0664 -0.2374 -0.0296
 2705TIP3    H129530   1.681   1.554  16.478 -0.1433 -0.4369 -0.1247
 2705TIP3    H229531   1.589   1.593  16.592  0.2735  0.0397  0.0504
 2706TIP3   OH229532   3.850   1.205   1.642 -0.1484  0.6157 -0.1501
 2706TIP3    H129533   3.770   1.153   1.643 -1.1521  2.1248  1.2109
 2706TIP3    H229534   3.827   1.284   1.593  0.3760  1.2615  0.6230
 2707TIP3   OH229535   3.970   5.095  15.512  0.4437  0.4251  0.0123
 2707TIP3    H129536   4.014   5.033  15.570  0.4648  0.3653 -0.0665
 2707TIP3    H229537   3.953   5.172  15.566  1.1174  0.6528 -0.0988
 2708TIP3   OH229538   4.234   4.642  14.639  0.2092  0.2547 -0.3188
 2708TIP3    H129539   4.213   4.733  14.617 -1.3095  0.4399  1.6664
 2708TIP3    H229540   4.195   4.590  14.569 -1.2833  1.0044 -0.0677
 2709TIP3   OH229541   5.345   6.192  16.329 -0.5316  0.1274 -0.0792
 2709TIP3    H129542   5.329   6.099  16.341  2.7918 -0.5678 -0.0631
 2709TIP3    H229543   5.338   6.205  16.234 -0.5027 -0.2733 -0.1387
 2710TIP3   OH229544   3.397   4.745   5.398 -0.0040 -0.6301 -0.0044
 2710TIP3    H129545   3.389   4.720   5.490  0.3593 -0.7258  0.0037
 2710TIP3    H229546   3.473   4.696   5.366 -1.2325 -2.0939 -0.8594
 2711TIP3   OH229547   4.050   1.168   1.824 -0.0100  0.2068 -0.3441
 2711TIP3    H129548   4.120   1.156   1.761  0.7575 -0.2751  0.5693
 2711TIP3    H229549   3.969   1.154   1.774  0.6245 -2.5053 -0.7407
 2712TIP3   OH229550   2.031   5.219   2.688 -0.2693  0.0270 -0.0912
 2712TIP3    H129551   1.943   5.246   2.714  0.0425 -0.5768  1.8144
 2712TIP3    H229552   2.088   5.264   2.750  0.7432  0.0625 -1.0220
 2713TIP3   OH229553   5.956   1.028  13.652  0.1337  0.1799  0.6310
 2713TIP3    H129554   5.894   1.042  13.581  0.8824  0.5029  0.0231
 2713TIP3    H229555   6.010   0.954  13.623  0.4287  0.2975  0.8673
 2714TIP3   OH229556   5.167   3.237   2.647 -0.5083  0.2363 -0.2629
 2714TIP3    H129557   5.198   3.279   2.727 -0.0015  0.2248 -0.4517
 2714TIP3    H229558   5.239   3.247   2.584 -0.5680 -0.4828 -0.4617
 2715TIP3   OH229559   1.751   4.326   4.126  0.1216 -0.4336  0.3186
 2715TIP3    H129560   1.803   4.253   4.159  0.1057 -0.9354 -0.7324
 2715TIP3    H229561   1.806   4.367   4.059  1.0143  1.8333  2.2666
 2716TIP3   OH229562   6.119   3.992  13.830 -0.1835 -0.1149  0.5764
 2716TIP3    H129563   6.194   4.020  13.881  0.1475  1.4083 -0.6791
 2716TIP3    H229564   6.074   4.073  13.806  0.3236 -0.6196 -2.4831
 2717TIP3   OH229565   6.529   0.538  11.826  0.2843 -0.0657 -0.3351
 2717TIP3    H129566   6.587   0.603  11.865  3.0792 -2.2750 -0.4969
 2717TIP3    H229567   6.529   0.465  11.888 -2.6552 -0.0853 -0.2096
 2718TIP3   OH229568   4.520   3.693   2.325 -0.9365  0.0802 -0.4992
 2718TIP3    H129569   4.590   3.747   2.360 -0.3012 -0.4087 -0.9896
 2718TIP3    H229570   4.463   3.677   2.400 -0.9413  1.1071 -0.2605
 2719TIP3   OH229571   6.179   1.948  13.372  0.2277 -0.1038  0.3225
 2719TIP3    H129572   6.103   1.889  13.376  0.9094 -0.9835  0.8795
 2719TIP3    H229573   6.208   1.944  13.281  0.2981 -0.6941  0.3630
 2720TIP3   OH229574   0.518   5.291  14.878  0.7020 -0.2380  0.0129
 2720TIP3    H129575   0.576   5.306  14.803 -0.5659  2.2307 -0.5832
 2720TIP3    H229576   0.572   5.315  14.954  0.5719  2.0684 -0.5382
 2721TIP3   OH229577   2.461   5.988  15.055  0.2218 -0.1548 -0.8278
 2721TIP3    H129578   2.368   5.973  15.035  0.0825 -1.6706  0.7159
 2721TIP3    H229579   2.506   5.915  15.012  0.5696 -0.0894 -0.5734
 2722TIP3   OH229580   1.499   5.698   1.452 -0.9981 -0.0210 -0.0967
 2722TIP3    H129581   1.433   5.719   1.518  0.6999  1.9452  1.1132
 2722TIP3    H229582   1.581   5.730   1.489  0.6811 -2.3238 -1.5445
 2723TIP3   OH229583   6.164   3.772  15.014 -0.0826  0.2017  0.3736
 2723TIP3    H129584   6.258   3.785  15.014  0.0645 -0.7159  0.7593
 2723TIP3    H229585   6.152   3.681  14.985 -0.9453  0.7799 -1.2025
 2724TIP3   OH229586   6.691   5.686  12.625  0.2448  0.3175  0.2259
 2724TIP3    H129587   6.758   5.683  12.557  0.0242  3.5910 -0.3156
 2724TIP3    H229588   6.616   5.641  12.586  1.5003 -1.8228  0.1540
 2725TIP3   OH229589   3.233   1.329  15.454 -0.4192 -0.9198 -0.1543
 2725TIP3    H129590   3.210   1.251  15.504 -1.6120 -0.8011 -0.4833
 2725TIP3    H229591   3.313   1.306  15.408  0.5404 -1.1440  1.5439
 2726TIP3   OH229592   3.954   4.302   5.924 -0.4671  0.0471  0.2357
 2726TIP3    H129593   4.032   4.267   5.880 -0.6162 -0.7503  0.5946
 2726TIP3    H229594   3.885   4.238   5.906 -1.3727  1.3147 -1.0676
 2727TIP3   OH229595   1.328   6.552   5.087 -0.5473  0.2924  0.3220
 2727TIP3    H129596   1.269   6.491   5.131 -1.5300  0.8996 -0.1318
 2727TIP3    H229597   1.270   6.615   5.044  0.4407  1.1041  0.1555
 2728TIP3   OH229598   5.424   1.929   2.700  0.3744  0.0176  0.0090
 2728TIP3    H129599   5.331   1.921   2.679  0.3603  0.4142 -0.0906
 2728TIP3    H229600   5.450   1.841   2.729 -0.2236  0.0953  0.8189
 2729TIP3   OH229601   1.475   5.575   0.717 -0.1986  0.2683  0.2842
 2729TIP3    H129602   1.431   5.558   0.801 -0.8760  1.3476  0.1591
 2729TIP3    H229603   1.506   5.665   0.724  0.2298  0.1819 -0.4205
 2730TIP3   OH229604   0.910   0.501  11.344  0.4890  0.0958 -0.0007
 2730TIP3    H129605   0.992   0.551  11.343 -0.1033  1.1143  0.5270
 2730TIP3    H229606   0.938   0.410  11.336  1.5809  0.5142 -1.8051
 2731TIP3   OH229607   6.341   5.224   2.657 -0.3590 -0.1083 -0.0336
 2731TIP3    H129608   6.434   5.230   2.635 -0.4408  0.0021 -0.3514
 2731TIP3    H229609   6.330   5.134   2.688  0.2617  0.4380  1.9566
 2732TIP3   OH229610   1.878   0.549  13.981  0.0297 -0.0254 -0.3333
 2732TIP3    H129611   1.799   0.514  13.939 -0.3721 -0.8022  0.9954
 2732TIP3    H229612   1.941   0.557  13.910 -0.9481 -0.2774 -1.2652
 2733TIP3   OH229613   4.647   5.299  14.413  0.5202 -0.6248  0.2020
 2733TIP3    H129614   4.681   5.302  14.323  0.1628  0.6194  0.1016
 2733TIP3    H229615   4.617   5.208  14.423  1.4459 -1.0483 -0.5881
 2734TIP3   OH229616   5.961   2.708   2.281 -0.2935  0.1518 -0.1878
 2734TIP3    H129617   5.984   2.617   2.302  0.3004  0.1774 -0.6677
 2734TIP3    H229618   5.868   2.705   2.260 -0.4818 -0.1818  0.6786
 2735TIP3   OH229619   3.690   5.316  13.578 -0.1177  0.2724  0.5921
 2735TIP3    H129620   3.733   5.326  13.663 -2.1922 -0.5582  1.8252
 2735TIP3    H229621   3.599   5.296  13.600 -0.5386 -0.7898 -1.8292
 2736TIP3   OH229622   1.067   2.630   3.801  0.2348  0.0775 -0.4589
 2736TIP3    H129623   1.008   2.691   3.846  1.6786  0.4992  0.9698
 2736TIP3    H229624   1.149   2.679   3.790  1.4566 -1.5458  0.7413
 2737TIP3   OH229625   0.446   4.568  14.743 -0.4022  0.9581 -0.3306
 2737TIP3    H129626   0.426   4.658  14.719 -1.9158  0.4967 -0.9388
 2737TIP3    H229627   0.380   4.545  14.808  0.3162  0.4609  0.2369
 2738TIP3   OH229628   2.144   5.755   1.970 -0.1271  0.2979  0.1586
 2738TIP3    H129629   2.067   5.745   1.914 -0.8389  1.0610  0.9698
 2738TIP3    H229630   2.190   5.672   1.963 -2.2158 -1.0498  1.3939
 2739TIP3   OH229631   2.093   5.568   5.567  0.3114  0.4392  0.5085
 2739TIP3    H129632   2.055   5.494   5.519  1.5988  0.9877 -1.4775
 2739TIP3    H229633   2.107   5.635   5.501  0.7573  1.8448  1.9586
 2740TIP3   OH229634   0.784   1.890  14.368  1.0923 -0.2345  0.5552
 2740TIP3    H129635   0.802   1.904  14.275  0.8935 -3.1366 -0.0285
 2740TIP3    H229636   0.870   1.890  14.409  1.1543  1.5346  0.5162
 2741TIP3   OH229637   4.888   5.611  12.955 -0.3377  0.2729  0.5243
 2741TIP3    H129638   4.795   5.599  12.973 -0.2639  0.8536  1.3735
 2741TIP3    H229639   4.909   5.696  12.993  0.5532  0.1243  0.3938
 2742TIP3   OH229640   3.842   0.789   3.094  0.2295  0.0166  0.6458
 2742TIP3    H129641   3.871   0.704   3.063 -0.8424 -0.5433  1.1106
 2742TIP3    H229642   3.848   0.784   3.189 -1.1534 -0.0717  0.7563
 2743TIP3   OH229643   6.776   0.788   3.686 -0.2556 -0.1935 -0.3486
 2743TIP3    H129644   6.758   0.697   3.662 -0.8777 -0.0389 -0.4915
 2743TIP3    H229645   6.712   0.809   3.753 -1.4501  0.7406 -1.7193
 2744TIP3   OH229646   6.137   3.890   0.631 -0.5694 -0.1761  0.0966
 2744TIP3    H129647   6.163   3.937   0.552 -2.7189  1.8653  0.5008
 2744TIP3    H229648   6.166   3.945   0.703 -2.0962  0.0043  0.6119
 2745TIP3   OH229649   0.146   5.180   0.676  0.0197  0.0109  0.2444
 2745TIP3    H129650   0.196   5.163   0.597 -0.1816 -1.1595  0.3389
 2745TIP3    H229651   0.057   5.197   0.645  0.1114  0.3493  0.1713
 2746TIP3   OH229652   3.810   3.527  15.716 -0.7696 -0.1605 -0.6871
 2746TIP3    H129653   3.905   3.522  15.723 -0.8842 -0.8184  0.6515
 2746TIP3    H229654   3.794   3.583  15.640  0.6765 -0.6945 -1.4150
 2747TIP3   OH229655   6.010   4.768   2.860  0.5289  0.0059 -0.3525
 2747TIP3    H129656   5.976   4.710   2.791 -1.2840 -0.2552  0.6875
 2747TIP3    H229657   5.935   4.822   2.885 -0.0182 -2.2225  3.7688
 2748TIP3   OH229658   1.392   4.160  16.417 -0.0245 -0.3329 -0.1258
 2748TIP3    H129659   1.361   4.084  16.368 -0.9367 -0.0805  0.0397
 2748TIP3    H229660   1.313   4.194  16.461  0.5909  0.0016  0.7504
 2749TIP3   OH229661   6.620   3.372   5.356  0.2020  0.1442 -0.1565
 2749TIP3    H129662   6.709   3.406   5.369 -0.0094  0.6590 -0.0407
 2749TIP3    H229663   6.618   3.344   5.265  0.2878  0.7326 -0.3444
 2750TIP3   OH229664   1.473   1.398   2.562 -0.4377  0.8033 -0.0383
 2750TIP3    H129665   1.564   1.418   2.583  0.0606  2.3671 -3.1742
 2750TIP3    H229666   1.474   1.305   2.540 -0.1538  0.2097  2.2314
 2751TIP3   OH229667   6.455   5.881  15.333 -0.3578  0.3879 -0.0777
 2751TIP3    H129668   6.396   5.827  15.387 -0.9149 -0.3074 -1.3401
 2751TIP3    H229669   6.448   5.844  15.245 -0.4944  2.3131 -0.9259
 2752TIP3   OH229670   1.943   2.439   6.150  0.2173 -0.1732  0.3458
 2752TIP3    H129671   2.024   2.434   6.100  0.2126  1.8575  0.0588
 2752TIP3    H229672   1.875   2.449   6.083 -0.1463 -0.5801  0.6474
 2753TIP3   OH229673   4.307   3.130   1.372  0.2106  0.0612  0.2828
 2753TIP3    H129674   4.262   3.091   1.447 -2.3319 -2.1957 -2.1980
 2753TIP3    H229675   4.266   3.215   1.361 -0.6902 -0.3576  0.3671
 2754TIP3   OH229676   3.660   4.111  13.019  0.2440  0.2112 -0.3969
 2754TIP3    H129677   3.710   4.188  12.990  0.0243  0.0222 -1.3215
 2754TIP3    H229678   3.654   4.056  12.941  0.5842 -0.8526  0.3065
 2755TIP3   OH229679   3.822   0.516   5.399  0.1017 -0.2007 -0.4360
 2755TIP3    H129680   3.880   0.579   5.357  0.8896 -0.4108  0.2981
 2755TIP3    H229681   3.881   0.453   5.441 -0.6533 -0.4989  0.2133
 2756TIP3   OH229682   2.915   1.538   4.549  0.0940  0.2439  0.3861
 2756TIP3    H129683   2.994   1.516   4.598  0.3226  1.8994  0.7943
 2756TIP3    H229684   2.911   1.633   4.551 -2.5467  0.1847  1.3827
 2757TIP3   OH229685   0.551   3.253   0.708  0.3174 -0.6656  0.4646
 2757TIP3    H129686   0.557   3.194   0.634  0.7251 -2.5584  1.9378
 2757TIP3    H229687   0.640   3.289   0.717 -0.0454  0.6218 -0.7288
 2758TIP3   OH229688   4.493   4.881   2.932  0.2893  0.2443 -0.0406
 2758TIP3    H129689   4.442   4.840   2.862 -0.9813  0.4890  0.7090
 2758TIP3    H229690   4.500   4.813   2.999  2.5469 -0.4082 -0.8448
 2759TIP3   OH229691   3.075   3.834   5.711 -0.6005  0.2051 -0.3490
 2759TIP3    H129692   2.996   3.851   5.661 -0.4670  1.8025 -0.0698
 2759TIP3    H229693   3.135   3.793   5.649 -1.1205  0.3470 -0.9520
 2760TIP3   OH229694   5.447   0.452  12.865  0.6489 -0.3724  0.5991
 2760TIP3    H129695   5.513   0.401  12.817  1.4712  0.5957  0.6726
 2760TIP3    H229696   5.425   0.397  12.940 -0.1465 -1.6065 -0.4915
 2761TIP3   OH229697   5.774   1.366   4.547  0.2951 -0.0533  0.1745
 2761TIP3    H129698   5.763   1.271   4.537  1.8907 -0.3406  0.7918
 2761TIP3    H229699   5.775   1.380   4.642 -0.2410  0.6268  0.0832
 2762TIP3   OH229700   1.400   4.157  15.460 -0.0926  0.0954  0.2788
 2762TIP3    H129701   1.409   4.252  15.464  0.9608  0.0312 -0.3489
 2762TIP3    H229702   1.401   4.130  15.552  0.1481  0.6423  0.4433
 2763TIP3   OH229703   5.516   1.111  16.397 -0.0988  0.4902 -0.7419
 2763TIP3    H129704   5.611   1.118  16.402  0.2990 -2.2926 -2.1788
 2763TIP3    H229705   5.491   1.170  16.326  0.7524  0.2094 -1.2923
 2764TIP3   OH229706   1.952   3.528   0.057 -0.0446  0.1719  0.2660
 2764TIP3    H129707   2.024   3.466   0.045 -0.1028  0.3428 -1.0477
 2764TIP3    H229708   1.960   3.556   0.149  0.8375 -0.6970  0.4732
 2765TIP3   OH229709   2.409   5.061  14.264 -0.2283 -0.8250 -0.0299
 2765TIP3    H129710   2.411   5.022  14.352 -0.7077 -3.1074 -0.9734
 2765TIP3    H229711   2.370   5.148  14.277 -4.3716 -2.6836  1.4981
 2766TIP3   OH229712   1.316   0.083   1.111  0.4511 -0.0760 -0.2504
 2766TIP3    H129713   1.259   0.159   1.097  0.1553 -0.6207 -2.4011
 2766TIP3    H229714   1.326   0.078   1.206 -2.8439  0.2271  0.2520
 2767TIP3   OH229715   0.265   4.664   3.608 -0.6476 -0.2712  0.0670
 2767TIP3    H129716   0.356   4.679   3.580 -0.6389  0.2947  0.3977
 2767TIP3    H229717   0.224   4.620   3.533 -0.1971 -0.2038 -0.2223
 2768TIP3   OH229718   0.401   6.724   2.661  0.3415 -0.5059 -0.1804
 2768TIP3    H129719   0.306   6.709   2.656  0.1913  0.4836 -0.5427
 2768TIP3    H229720   0.410   6.799   2.721  0.8601 -0.3144 -0.4951
 2769TIP3   OH229721   5.653   1.657  12.695 -0.2136  0.0312 -0.1339
 2769TIP3    H129722   5.598   1.710  12.752 -0.0415 -0.0041  0.0667
 2769TIP3    H229723   5.612   1.571  12.694 -0.4015  0.1227 -0.3282
 2770TIP3   OH229724   3.998   2.586  15.464 -0.3040 -0.5168  0.0510
 2770TIP3    H129725   3.973   2.654  15.401  0.6327 -1.3133 -1.2341
 2770TIP3    H229726   3.995   2.629  15.549 -2.9231  0.2557 -0.3466
 2771TIP3   OH229727   5.577   3.065   3.044 -0.4043 -0.4699 -0.2978
 2771TIP3    H129728   5.565   3.013   3.123 -1.0778  0.0884 -0.0123
 2771TIP3    H229729   5.668   3.094   3.048 -0.5060 -0.2025  0.4451
 2772TIP3   OH229730   4.289   3.923   3.172 -0.1084  0.0833 -0.1446
 2772TIP3    H129731   4.361   3.866   3.145 -0.1720 -0.6686  1.2054
 2772TIP3    H229732   4.325   4.012   3.164  1.0498 -0.2903  0.7391
 2773TIP3   OH229733   2.358   0.441  16.996  0.7189 -0.1749 -0.2362
 2773TIP3    H129734   2.417   0.371  16.968 -0.3570 -1.2677  0.1708
 2773TIP3    H229735   2.332   0.416  17.085 -0.8331 -0.0447 -0.6305
 2774TIP3   OH229736   0.400   1.199  15.925 -0.5403  0.2515 -0.1479
 2774TIP3    H129737   0.391   1.177  15.832 -1.3781  1.0044 -0.2633
 2774TIP3    H229738   0.362   1.287  15.933  1.2530  0.9984  0.5776
 2775TIP3   OH229739   5.286   5.554   5.192 -0.0681 -0.4808 -0.0784
 2775TIP3    H129740   5.208   5.588   5.147  1.1692  1.0791 -1.1367
 2775TIP3    H229741   5.275   5.581   5.283 -1.0832 -0.9138 -0.0493
 2776TIP3   OH229742   3.907   0.046   4.557 -0.0105 -0.2510 -0.1074
 2776TIP3    H129743   3.823   0.022   4.596  0.3478 -2.0987 -0.3819
 2776TIP3    H229744   3.915   0.140   4.573 -1.6272 -0.2450  0.8687
 2777TIP3   OH229745   5.353   0.544   2.813  0.2707 -0.6647  0.3868
 2777TIP3    H129746   5.269   0.499   2.823 -0.4125  0.7278  1.1783
 2777TIP3    H229747   5.405   0.516   2.888 -0.7799  1.1050  1.8660
 2778TIP3   OH229748   5.678   3.555  16.540  0.2046 -0.6640 -0.3044
 2778TIP3    H129749   5.731   3.485  16.579  0.0715 -2.0354 -2.4306
 2778TIP3    H229750   5.611   3.510  16.490  0.2246  0.9594 -1.9138
 2779TIP3   OH229751   5.654   6.755   4.725 -0.1138  0.1173 -0.0812
 2779TIP3    H129752   5.597   6.809   4.780  0.1005 -0.6912  0.9721
 2779TIP3    H229753   5.606   6.745   4.643 -0.6247  1.0199  0.0952
 2780TIP3   OH229754   0.783   2.079  14.809 -0.4345  0.0606 -0.3714
 2780TIP3    H129755   0.797   2.106  14.899  0.4308 -1.1218 -0.1156
 2780TIP3    H229756   0.849   2.010  14.794 -2.3511 -1.7643 -0.9869
 2781TIP3   OH229757   5.064   1.084  13.762  0.1433  0.0549 -0.1473
 2781TIP3    H129758   5.018   1.140  13.700 -0.2851  1.2126  1.1736
 2781TIP3    H229759   5.148   1.128  13.777 -0.0301  0.1411  0.5890
 2782TIP3   OH229760   2.778   3.367  14.271 -0.4989  0.8871 -0.4277
 2782TIP3    H129761   2.687   3.391  14.284 -0.1284  1.5398  1.2470
 2782TIP3    H229762   2.782   3.273  14.287 -0.5663  1.1926  1.5556
 2783TIP3   OH229763   5.135   5.780   2.948 -0.1961  0.0099  0.0579
 2783TIP3    H129764   5.139   5.822   2.862  1.3119  0.3885  0.2772
 2783TIP3    H229765   5.210   5.816   2.996  0.1894 -1.7024  0.8178
 2784TIP3   OH229766   6.493   2.510  16.830 -0.2421  0.0259 -0.5176
 2784TIP3    H129767   6.539   2.446  16.884  1.0385  0.5503 -0.9616
 2784TIP3    H229768   6.535   2.593  16.850 -1.4421  0.6399 -0.4493
 2785TIP3   OH229769   4.125   5.967  15.515 -0.5507 -0.5943 -0.0841
 2785TIP3    H129770   4.069   6.038  15.547 -0.2956 -0.4222 -0.0218
 2785TIP3    H229771   4.211   6.007  15.505 -0.3512 -0.9521  0.1759
 2786TIP3   OH229772   4.110   6.588   5.391  0.2078  0.0554  0.1148
 2786TIP3    H129773   4.123   6.494   5.382  1.4194  0.2093  0.0662
 2786TIP3    H229774   4.054   6.612   5.317  1.4308 -0.3466 -0.9753
 2787TIP3   OH229775   0.217   3.341  10.859  0.7266  0.1947  0.2855
 2787TIP3    H129776   0.212   3.288  10.779 -0.8987  0.5844  0.0863
 2787TIP3    H229777   0.299   3.389  10.851 -0.3560  1.8227 -2.2335
 2788TIP3   OH229778   6.690   3.158   0.415 -0.5220 -0.2259  0.4187
 2788TIP3    H129779   6.697   3.251   0.392 -1.4668 -0.3429 -0.4582
 2788TIP3    H229780   6.711   3.154   0.508  1.5276  0.5717  0.0358
 2789TIP3   OH229781   1.773   0.102   2.495 -0.1921 -0.7567 -0.2550
 2789TIP3    H129782   1.767   0.067   2.406 -0.2960 -2.2352  0.3038
 2789TIP3    H229783   1.845   0.165   2.490  0.0926 -1.1292 -1.3017
 2790TIP3   OH229784   4.558   6.178  11.859 -0.7008  0.0065 -0.1547
 2790TIP3    H129785   4.550   6.089  11.825 -2.9245  0.0628  0.0559
 2790TIP3    H229786   4.597   6.228  11.788  1.4067 -1.2553  0.0254
 2791TIP3   OH229787   3.634   1.752  16.460 -0.2328  0.1989  0.5588
 2791TIP3    H129788   3.685   1.817  16.412  0.2538 -0.4833  0.1296
 2791TIP3    H229789   3.649   1.670  16.413  1.1700 -0.7388  2.4916
 2792TIP3   OH229790   0.145   0.162   4.199 -0.3308  0.3288 -0.3491
 2792TIP3    H129791   0.190   0.148   4.282  0.5556 -0.6032 -0.9598
 2792TIP3    H229792   0.212   0.198   4.141 -0.6720  0.0516 -0.9280
 2793TIP3   OH229793   3.981   5.484   3.350 -0.0184 -0.4083  0.4197
 2793TIP3    H129794   4.023   5.515   3.430  0.2819 -0.2231  0.1946
 2793TIP3    H229795   4.053   5.452   3.296  0.0063  0.9749 -0.4412
 2794TIP3   OH229796   0.801   1.007  11.121  0.1951  0.1023  0.0232
 2794TIP3    H129797   0.762   1.026  11.036  0.8462 -0.7219 -0.4835
 2794TIP3    H229798   0.886   0.969  11.100  0.6944  0.5817  1.0660
 2795TIP3   OH229799   4.050   0.868  13.233  0.3414 -0.4411  0.0942
 2795TIP3    H129800   4.122   0.839  13.288  1.1182  0.2522 -0.5255
 2795TIP3    H229801   4.010   0.787  13.200 -0.2010 -0.8610  1.7275
 2796TIP3   OH229802   3.473   3.969  12.781  0.0539 -0.4592 -0.4806
 2796TIP3    H129803   3.503   4.052  12.745 -0.9505 -0.7972 -2.2220
 2796TIP3    H229804   3.479   3.907  12.707 -2.1518 -1.1816 -0.1184
 2797TIP3   OH229805   6.728   3.892  13.455 -0.0826 -0.2431 -0.1206
 2797TIP3    H129806   6.685   3.978  13.454  0.4265  0.0133 -1.3412
 2797TIP3    H229807   6.656   3.829  13.460 -0.5328  0.2258 -0.5745
 2798TIP3   OH229808   1.653   1.502  13.784 -0.1570 -0.3577 -0.0086
 2798TIP3    H129809   1.582   1.535  13.730 -0.9457  0.4608  1.4586
 2798TIP3    H229810   1.611   1.444  13.847  0.9205 -2.3675 -1.0643
 2799TIP3   OH229811   1.183   4.407   0.607  0.5553 -0.0115 -0.1345
 2799TIP3    H129812   1.099   4.450   0.622  1.1618  1.7223 -1.4144
 2799TIP3    H229813   1.164   4.341   0.540  0.2651  0.6231 -0.6923
 2800TIP3   OH229814   1.526   2.545  16.936 -0.8847 -0.3531 -0.2726
 2800TIP3    H129815   1.545   2.531  17.029  0.9429  1.4273 -0.3196
 2800TIP3    H229816   1.496   2.635  16.930 -0.3440 -0.2262 -1.4777
 2801TIP3   OH229817   3.199   1.649  14.471 -0.2103 -0.8531 -0.2662
 2801TIP3    H129818   3.107   1.654  14.446 -0.0624  1.1434 -0.5817
 2801TIP3    H229819   3.198   1.622  14.563 -1.1125 -0.6400 -0.2112
 2802TIP3   OH229820   3.433   0.341  15.047  0.3060  0.0321 -0.6750
 2802TIP3    H129821   3.478   0.424  15.030 -2.2757  2.0409  1.3963
 2802TIP3    H229822   3.479   0.304  15.122  0.3484  0.5566 -0.4355
 2803TIP3   OH229823   6.684   5.613   5.602 -0.4633  0.3972  0.2689
 2803TIP3    H129824   6.626   5.654   5.667  1.0365  0.5960  1.5240
 2803TIP3    H229825   6.759   5.582   5.652  0.7170  0.4681 -1.3644
 2804TIP3   OH229826   6.576   2.809  16.071 -0.3568 -0.7171 -0.5584
 2804TIP3    H129827   6.536   2.896  16.065  0.2123 -0.3485  0.6913
 2804TIP3    H229828   6.535   2.769  16.149  0.0802 -1.2002 -0.5727
 2805TIP3   OH229829   4.900   3.114  13.198  0.0641  0.0742 -0.1534
 2805TIP3    H129830   4.868   3.164  13.123 -0.3575 -2.1703 -1.5589
 2805TIP3    H229831   4.978   3.069  13.165 -0.7001 -1.7396  0.4242
 2806TIP3   OH229832   2.973   3.163   4.217  0.0359 -0.1958 -0.8647
 2806TIP3    H129833   2.997   3.078   4.253  1.8355  0.3717 -0.6376
 2806TIP3    H229834   3.056   3.203   4.192 -0.5868  2.1183  0.4375
 2807TIP3   OH229835   4.016   3.002   6.005  0.4200 -1.0646 -0.0978
 2807TIP3    H129836   3.945   3.020   6.067 -0.5802 -1.9874 -0.9443
 2807TIP3    H229837   4.073   3.079   6.011 -0.9284 -0.0595  0.2211
 2808TIP3   OH229838   4.811   3.561   3.453  0.0561 -0.3827 -0.1123
 2808TIP3    H129839   4.870   3.542   3.380  1.9761  1.5393  0.8085
 2808TIP3    H229840   4.828   3.490   3.515  2.3689  0.6946  0.6173
 2809TIP3   OH229841   1.993   3.414  14.634  0.1792  0.7032  0.1791
 2809TIP3    H129842   2.030   3.460  14.559  0.1841  1.7902  0.8075
 2809TIP3    H229843   1.960   3.332  14.599  0.9918  0.7877 -0.8346
 2810TIP3   OH229844   2.683   6.720   6.261  0.6899 -0.0297  0.8476
 2810TIP3    H129845   2.615   6.732   6.327  1.3566  1.3216  1.3254
 2810TIP3    H229846   2.717   6.631   6.276 -0.8690 -0.6901  0.6531
 2811TIP3   OH229847   6.561   4.244  11.629 -0.6391 -0.4319  0.3438
 2811TIP3    H129848   6.497   4.314  11.642 -0.8209 -0.4736 -0.3239
 2811TIP3    H229849   6.537   4.204  11.546 -1.8849 -2.6990  1.6639
 2812TIP3   OH229850   2.450   5.488  16.981  0.0818  0.1662  0.3046
 2812TIP3    H129851   2.372   5.515  16.934  0.3136 -1.4736 -1.1254
 2812TIP3    H229852   2.522   5.533  16.936  0.1540 -0.0830  0.1697
 2813TIP3   OH229853   5.905   0.512  14.059  0.3069 -0.4516  0.5035
 2813TIP3    H129854   5.912   0.540  13.967  1.1349 -0.1626  0.6481
 2813TIP3    H229855   5.949   0.427  14.061  0.6601 -0.2664  0.7101
 2814TIP3   OH229856   2.761   3.891  11.221  0.5667  0.0921  0.1842
 2814TIP3    H129857   2.805   3.824  11.273  1.6413  1.6594  1.3855
 2814TIP3    H229858   2.824   3.963  11.216  0.4826  0.0709 -3.2683
 2815TIP3   OH229859   3.531   4.415  14.388 -0.0856  0.0350  0.7458
 2815TIP3    H129860   3.518   4.393  14.296  0.3656  1.5678  0.2867
 2815TIP3    H229861   3.552   4.332  14.430 -1.7447 -0.9320 -0.2495
 2816TIP3   OH229862   2.668   3.524   1.279 -0.0308 -0.0827 -0.1832
 2816TIP3    H129863   2.628   3.603   1.242 -1.2790 -0.9527 -0.7551
 2816TIP3    H229864   2.677   3.544   1.373 -2.9195 -0.2300  0.2159
 2817TIP3   OH229865   6.747   2.465   5.652  0.5965 -0.2689 -0.1321
 2817TIP3    H129866   6.710   2.492   5.736  2.4230 -1.9447  1.3186
 2817TIP3    H229867   6.679   2.409   5.613  0.4982 -1.1327  1.2101
 2818TIP3   OH229868   3.710   3.827   4.267  0.2465  0.0342  0.5319
 2818TIP3    H129869   3.618   3.821   4.294 -0.2260 -1.9572 -1.2276
 2818TIP3    H229870   3.759   3.821   4.349 -1.1790  0.5948  1.4607
 2819TIP3   OH229871   3.753   5.446   3.023 -0.0377 -0.4236 -0.0011
 2819TIP3    H129872   3.697   5.465   2.948  1.3204  1.4857 -0.6018
 2819TIP3    H229873   3.700   5.469   3.099 -0.2052  1.1326 -0.5519
 2820TIP3   OH229874   0.333   0.715   0.272 -0.1422  0.4518  0.0174
 2820TIP3    H129875   0.343   0.781   0.204 -0.6189 -0.1383 -0.6373
 2820TIP3    H229876   0.413   0.663   0.267  0.3240  1.0765  0.6656
 2821TIP3   OH229877   0.685   6.454   5.208 -0.2456  0.2020  0.1393
 2821TIP3    H129878   0.765   6.408   5.233 -0.3718  0.5427  1.2277
 2821TIP3    H229879   0.715   6.532   5.162  0.2814  2.0894  3.3668
 2822TIP3   OH229880   3.758   5.360  13.870  0.2107 -0.4291  0.4396
 2822TIP3    H129881   3.769   5.310  13.951  2.1023 -0.3770  0.2592
 2822TIP3    H229882   3.745   5.450  13.899  1.7209 -0.2706  0.7189
 2823TIP3   OH229883   6.005   2.955   3.742  0.2090 -0.0057 -0.4494
 2823TIP3    H129884   5.989   2.861   3.751 -1.3501  0.4188  1.8854
 2823TIP3    H229885   6.045   2.980   3.825  1.8388  1.2119 -1.5443
 2824TIP3   OH229886   4.094   0.858   5.628  0.1339 -0.2940 -0.2270
 2824TIP3    H129887   4.113   0.819   5.542  0.9844  0.4169 -0.3721
 2824TIP3    H229888   4.151   0.811   5.689  0.6756  0.2723 -0.2980
 2825TIP3   OH229889   3.314   6.308   6.110 -0.4517  0.1917  0.2368
 2825TIP3    H129890   3.307   6.333   6.202  0.6764  0.9957  0.1234
 2825TIP3    H229891   3.380   6.367   6.074  0.9054 -1.6962 -0.5299
 2826TIP3   OH229892   4.215   2.416  15.521 -0.5734 -0.7412 -0.0773
 2826TIP3    H129893   4.144   2.473  15.493 -1.4024 -1.0829  1.2227
 2826TIP3    H229894   4.254   2.461  15.596 -0.6977 -1.4662  0.4351
 2827TIP3   OH229895   0.475   2.641  15.517 -0.0592  0.4460 -0.3142
 2827TIP3    H129896   0.492   2.727  15.556  0.2300  0.3296 -0.1733
 2827TIP3    H229897   0.477   2.656  15.423  1.7583  0.2941 -0.3422
 2828TIP3   OH229898   4.912   2.383  11.112 -0.2407  0.4333 -0.3964
 2828TIP3    H129899   4.979   2.440  11.149  0.0845  0.1626 -0.5561
 2828TIP3    H229900   4.861   2.440  11.054  1.0664  0.2546 -1.8062
 2829TIP3   OH229901   5.707   0.841  13.726 -0.4123  0.0220  0.4813
 2829TIP3    H129902   5.686   0.931  13.749  0.7107  0.1698  1.0103
 2829TIP3    H229903   5.792   0.825  13.767 -0.1380 -0.9671 -0.4198
 2830TIP3   OH229904   5.974   0.086   5.301  0.2184 -0.1157  0.6411
 2830TIP3    H129905   6.060   0.066   5.265  0.2897  3.3560 -1.5792
 2830TIP3    H229906   5.989   0.103   5.394  1.6099 -1.1201  0.6231
 2831TIP3   OH229907   3.362   3.885  14.449 -0.5339  0.3988  0.1852
 2831TIP3    H129908   3.417   3.905  14.374 -2.0370  0.7761 -0.8706
 2831TIP3    H229909   3.327   3.798  14.431  0.4513 -0.2535  1.3203
 2832TIP3   OH229910   2.062   0.788  15.541  0.6782 -0.3301 -0.3221
 2832TIP3    H129911   2.033   0.869  15.582 -0.8921 -0.7425 -0.5840
 2832TIP3    H229912   2.155   0.803  15.524  0.5289  1.2320  0.0506
 2833TIP3   OH229913   3.194   2.295   0.183  0.1920  0.2280  0.0213
 2833TIP3    H129914   3.224   2.307   0.274  0.1217  0.3473  0.0292
 2833TIP3    H229915   3.099   2.287   0.190  0.3171 -1.5429  0.1380
 2834TIP3   OH229916   4.858   5.129  13.722 -0.3759  0.3213 -0.2483
 2834TIP3    H129917   4.917   5.186  13.674  1.0688 -1.6154 -0.8997
 2834TIP3    H229918   4.904   5.109  13.803  1.7445 -3.9417 -2.1579
 2835TIP3   OH229919   2.853   2.441   0.463  0.3638 -0.0596  0.1957
 2835TIP3    H129920   2.779   2.422   0.406  1.9793  1.0535 -2.4426
 2835TIP3    H229921   2.889   2.355   0.485 -0.7657 -0.5384  0.2390
 2836TIP3   OH229922   3.761   1.585  12.039  0.5297  0.3053  0.0445
 2836TIP3    H129923   3.821   1.656  12.065  0.1484  0.2071  1.2471
 2836TIP3    H229924   3.799   1.506  12.079 -1.5849  0.5681  2.9207
 2837TIP3   OH229925   0.041   4.046   4.342 -0.2302  0.1494 -0.0335
 2837TIP3    H129926   0.134   4.036   4.322  0.0308  0.7672  0.8048
 2837TIP3    H229927   0.039   4.070   4.435 -1.0158  2.8087 -0.6366
 2838TIP3   OH229928   2.942   0.908   0.708  0.5559  0.3106 -0.0371
 2838TIP3    H129929   2.861   0.865   0.735  1.0135 -1.4684 -1.3020
 2838TIP3    H229930   3.004   0.890   0.779  0.8651 -1.6092 -0.7246
 2839TIP3   OH229931   2.957   4.915   0.924  0.1938 -0.2278 -0.4128
 2839TIP3    H129932   2.880   4.926   0.979  0.6849  4.1471 -0.2496
 2839TIP3    H229933   3.029   4.903   0.987  0.0841 -0.7851 -0.3916
 2840TIP3   OH229934   4.159   2.313   4.879 -0.2704 -0.2731 -0.0288
 2840TIP3    H129935   4.105   2.392   4.874 -1.6713 -1.0649  1.5800
 2840TIP3    H229936   4.130   2.260   4.805 -0.4694  0.0396 -0.1785
 2841TIP3   OH229937   4.395   0.986  12.287  0.2289  0.5184  0.0301
 2841TIP3    H129938   4.368   0.927  12.357 -0.2730  0.4609 -0.2028
 2841TIP3    H229939   4.328   0.975  12.219  0.8461  0.3786 -0.5673
 2842TIP3   OH229940   0.103   1.294   4.133 -0.5603  0.3038  0.4931
 2842TIP3    H129941   0.064   1.357   4.193 -2.0421  0.3133 -0.4154
 2842TIP3    H229942   0.051   1.214   4.145  0.0158 -0.1215  0.2108
 2843TIP3   OH229943   1.857   2.663   3.026 -0.4039  0.4893  0.0183
 2843TIP3    H129944   1.776   2.645   2.979 -1.4344  2.1651  1.0597
 2843TIP3    H229945   1.905   2.724   2.968 -1.0795  1.5246  0.5261
 2844TIP3   OH229946   4.832   5.428  14.014  0.8449  0.3574 -0.2684
 2844TIP3    H129947   4.769   5.486  13.973  1.0100  0.1823 -0.7802
 2844TIP3    H229948   4.869   5.377  13.942  1.0167 -0.0772  0.1167
 2845TIP3   OH229949   0.791   4.516  15.450 -0.6899  0.2947 -0.1374
 2845TIP3    H129950   0.708   4.546  15.412  0.5458  1.2666 -2.2834
 2845TIP3    H229951   0.827   4.594  15.492  0.4832  0.7669 -1.8898
 2846TIP3   OH229952   4.372   3.236   3.478  0.1298 -0.3011  0.3130
 2846TIP3    H129953   4.290   3.190   3.495 -0.2252  1.1256  2.8805
 2846TIP3    H229954   4.348   3.302   3.412 -1.0240  0.5509  1.5211
 2847TIP3   OH229955   3.657   4.912   2.921  0.6261  0.0233 -0.3755
 2847TIP3    H129956   3.649   4.982   2.985  1.9010 -0.3743  0.2435
 2847TIP3    H229957   3.723   4.943   2.858 -0.9647  0.6242 -1.8197
 2848TIP3   OH229958   4.641   0.228  15.291 -0.1714  0.4465 -0.1395
 2848TIP3    H129959   4.695   0.200  15.217 -1.7954  2.3299 -2.1346
 2848TIP3    H229960   4.669   0.318  15.308 -1.9257  1.0924 -0.5321
 2849TIP3   OH229961   2.634   0.041  14.575  0.0885 -0.1612 -0.3455
 2849TIP3    H129962   2.589   0.041  14.659  1.2743 -1.5253  0.3395
 2849TIP3    H229963   2.578   0.094  14.517 -0.7162  0.8483  1.2908
 2850TIP3   OH229964   3.462   3.524   4.040  0.1327 -0.3115  0.0697
 2850TIP3    H129965   3.409   3.566   4.108  0.9912  1.5625 -0.3509
 2850TIP3    H229966   3.412   3.535   3.959 -0.9676 -2.6883  0.3398
 2851TIP3   OH229967   2.303   5.586  13.792  0.3254  0.3710 -0.1396
 2851TIP3    H129968   2.315   5.501  13.751 -0.2223  0.3571 -0.2756
 2851TIP3    H229969   2.392   5.621  13.801  0.6966 -0.8943  1.4091
 2852TIP3   OH229970   1.830   6.554   4.982  0.1712  0.5693  0.3938
 2852TIP3    H129971   1.914   6.509   4.993 -1.2678 -3.2132 -2.0720
 2852TIP3    H229972   1.854   6.642   4.952  3.2171 -0.1595  0.2834
 2853TIP3   OH229973   0.424   2.309   3.274  0.2710  0.1941 -0.0683
 2853TIP3    H129974   0.356   2.242   3.271 -0.6215  1.1041 -0.6226
 2853TIP3    H229975   0.436   2.336   3.183  2.1484 -0.6784 -0.1365
 2854TIP3   OH229976   1.234   4.006   5.598  0.1754  0.5200  0.5059
 2854TIP3    H129977   1.156   4.062   5.597 -0.5180 -0.4240 -0.1732
 2854TIP3    H229978   1.271   4.015   5.510  0.1417  0.0458  0.4382
 2855TIP3   OH229979   2.713   0.076   1.432 -0.0962  0.0982  0.4082
 2855TIP3    H129980   2.626   0.068   1.469  0.6106  0.9627  2.3740
 2855TIP3    H229981   2.749   0.155   1.471  1.1737  0.3868 -1.2365
 2856TIP3   OH229982   4.597   2.992   0.210 -0.6403 -0.0432 -0.1089
 2856TIP3    H129983   4.605   2.911   0.159  0.1091  0.5673 -1.0013
 2856TIP3    H229984   4.636   3.059   0.154  0.0643  0.6874  1.2292
 2857TIP3   OH229985   3.172   6.683  14.945  0.5426  0.2815  0.2702
 2857TIP3    H129986   3.259   6.682  14.985 -0.9829 -1.6649  4.1605
 2857TIP3    H229987   3.129   6.759  14.983 -0.9532 -1.6177  2.7581
 2858TIP3   OH229988   3.178   1.141   2.751  0.1878  0.8370  0.1747
 2858TIP3    H129989   3.089   1.105   2.749  1.0024 -1.6239  2.4406
 2858TIP3    H229990   3.174   1.212   2.814  0.1790 -0.6803  1.9804
 2859TIP3   OH229991   2.122   2.955   1.054  0.8537  0.0638 -0.3643
 2859TIP3    H129992   2.175   2.880   1.027  0.7295 -0.2640  0.2716
 2859TIP3    H229993   2.149   2.973   1.144 -0.9518 -0.8948  0.4311
 2860TIP3   OH229994   6.276   0.492  16.860  0.1215 -0.0137 -0.3089
 2860TIP3    H129995   6.316   0.410  16.889  1.8823  0.5244 -1.1056
 2860TIP3    H229996   6.237   0.471  16.775  1.4573  0.1959 -0.9903
 2861TIP3   OH229997   5.410   3.768  14.424 -0.3314  0.0032 -0.2785
 2861TIP3    H129998   5.428   3.766  14.331 -1.2926 -0.2003 -0.4788
 2861TIP3    H229999   5.338   3.706  14.435  0.1393 -0.3905  0.6822
 2862TIP3   OH230000   2.146   5.205   0.083  0.2018 -0.0748 -0.3648
 2862TIP3    H130001   2.129   5.264   0.157  0.3732 -0.6594  0.1495
 2862TIP3    H230002   2.242   5.203   0.075  0.1726  0.4388 -0.9872
 2863TIP3   OH230003   1.282   6.131  15.956 -0.1281 -0.3569 -0.7859
 2863TIP3    H130004   1.335   6.059  15.923 -1.5395 -0.9739 -1.8247
 2863TIP3    H230005   1.315   6.208  15.908  0.6226 -0.4969 -0.5112
 2864TIP3   OH230006   2.877   5.389  13.572 -0.3026  0.1085 -0.2715
 2864TIP3    H130007   2.911   5.321  13.514 -1.9052 -0.7936 -0.2109
 2864TIP3    H230008   2.809   5.433  13.521 -0.4842  0.5121  0.2991
 2865TIP3   OH230009   5.779   5.407   0.191  0.0371  0.9515 -0.2191
 2865TIP3    H130010   5.830   5.432   0.268  1.4011  0.2675 -0.8635
 2865TIP3    H230011   5.705   5.468   0.190  0.2535  1.2806  1.3476
 2866TIP3   OH230012   3.407   5.400  11.301 -0.6055  0.2911 -0.1399
 2866TIP3    H130013   3.362   5.424  11.221  0.0216  0.5214 -0.4271
 2866TIP3    H230014   3.351   5.433  11.371 -1.5788 -0.6303 -0.4464
 2867TIP3   OH230015   6.745   6.205  11.701 -0.3889  0.0771 -0.1650
 2867TIP3    H130016   6.704   6.134  11.652  1.2544  0.7145 -2.6205
 2867TIP3    H230017   6.702   6.285  11.668 -0.6761  0.4063  0.9588
 2868TIP3   OH230018   4.810   3.205   6.481 -0.6966 -0.1593 -0.2395
 2868TIP3    H130019   4.827   3.111   6.489 -0.5623 -0.1196 -0.0647
 2868TIP3    H230020   4.715   3.212   6.485 -0.7282 -0.3237 -0.6281
 2869TIP3   OH230021   6.181   3.924   3.822  0.2646 -0.1096 -0.0973
 2869TIP3    H130022   6.257   3.889   3.868 -2.2050  0.0166  4.6993
 2869TIP3    H230023   6.204   4.016   3.805  2.2980 -0.8641 -1.8208
 2870TIP3   OH230024   1.227   0.403   0.121 -0.1811  0.0654 -0.1231
 2870TIP3    H130025   1.211   0.376   0.212  0.9480 -1.4398 -0.3118
 2870TIP3    H230026   1.142   0.395   0.078 -0.0601 -2.9803 -0.0409
 2871TIP3   OH230027   3.992   0.035   3.758 -0.0925  0.5491  0.5302
 2871TIP3    H130028   3.959   0.119   3.726  1.4008 -0.0032 -2.8876
 2871TIP3    H230029   3.920  -0.000   3.811 -1.7024  2.8589  0.0289
 2872TIP3   OH230030   4.872   0.050   5.604 -0.1309  0.6316 -0.1106
 2872TIP3    H130031   4.944   0.025   5.547 -0.2230  0.1123 -0.0012
 2872TIP3    H230032   4.914   0.074   5.687 -0.0889  0.2721 -0.0278
 2873TIP3   OH230033   5.951   6.159  12.099  0.5208 -0.1893  0.1032
 2873TIP3    H130034   6.030   6.214  12.106 -1.6799  4.0336 -3.1229
 2873TIP3    H230035   5.897   6.184  12.173  0.3503  0.5793 -0.2678
 2874TIP3   OH230036   1.338   4.057   2.058 -0.7129  0.0515  0.1007
 2874TIP3    H130037   1.287   4.038   2.137  1.8732 -1.9327  1.4514
 2874TIP3    H230038   1.358   3.971   2.021 -0.3543  0.8752 -1.7494
 2875TIP3   OH230039   2.638   2.348  10.981  0.0829  0.6292  0.0595
 2875TIP3    H130040   2.641   2.281  10.913 -0.4075 -0.1938  0.8135
 2875TIP3    H230041   2.613   2.428  10.936 -0.2339  0.0985 -0.7258
 2876TIP3   OH230042   0.090   2.724   0.154 -0.0736  0.2117 -0.2110
 2876TIP3    H130043   0.028   2.739   0.225 -0.1410 -2.3590  0.3901
 2876TIP3    H230044   0.169   2.690   0.198  0.3152 -0.2745 -1.2473
 2877TIP3   OH230045   3.480   2.431  14.885  0.8401  0.0219 -0.2370
 2877TIP3    H130046   3.563   2.478  14.873 -0.4071  1.8415 -2.5079
 2877TIP3    H230047   3.436   2.478  14.955  0.9563  0.2139 -0.2914
 2878TIP3   OH230048   5.345   2.185  16.117 -0.3968  0.0438 -0.1329
 2878TIP3    H130049   5.430   2.146  16.135 -0.3506 -0.2703 -1.0021
 2878TIP3    H230050   5.288   2.110  16.097 -0.3561  0.3986 -1.6337
 2879TIP3   OH230051   4.655   6.586  12.613  0.2393  0.0574  0.0499
 2879TIP3    H130052   4.627   6.505  12.569 -1.6975 -0.3030  1.7544
 2879TIP3    H230053   4.640   6.655  12.549 -0.0224 -0.7315 -0.7541
 2880TIP3   OH230054   1.922   3.686  15.837 -0.0695 -0.2622  0.1773
 2880TIP3    H130055   1.841   3.668  15.789 -0.5967 -0.9592  1.2685
 2880TIP3    H230056   1.892   3.718  15.922  0.8206  0.2698  0.2940
 2881TIP3   OH230057   5.877   1.126  11.412  0.0169 -0.4112  0.3076
 2881TIP3    H130058   5.813   1.071  11.368  0.7323 -0.7716 -0.3082
 2881TIP3    H230059   5.921   1.068  11.473  1.6690 -0.9084 -1.2572
 2882TIP3   OH230060   5.559   6.352   4.139 -0.3099 -0.2119 -0.3225
 2882TIP3    H130061   5.534   6.299   4.215  1.5575  1.1755  1.3737
 2882TIP3    H230062   5.477   6.389   4.107 -1.1206 -0.5885  1.2227
 2883TIP3   OH230063   2.699   2.203  12.497 -0.2123 -0.2427 -0.2494
 2883TIP3    H130064   2.762   2.141  12.535 -0.8731 -0.5771  0.3131
 2883TIP3    H230065   2.751   2.255  12.436  1.0959  0.8534  1.6892
 2884TIP3   OH230066   0.997   2.793  16.038  0.8987 -0.1422 -0.1229
 2884TIP3    H130067   0.945   2.732  16.090 -0.5745  0.4371 -0.8428
 2884TIP3    H230068   1.051   2.737  15.982  0.8265 -0.7662  0.4165
 2885TIP3   OH230069   6.417   3.777  13.635  0.0027 -0.4420 -0.0289
 2885TIP3    H130070   6.426   3.754  13.543 -1.3779  1.0503 -0.5838
 2885TIP3    H230071   6.445   3.869  13.639  1.8847 -0.9984  1.4240
 2886TIP3   OH230072   6.225   5.000   0.708 -0.1117 -0.3632  0.6274
 2886TIP3    H130073   6.195   5.091   0.719 -0.6319 -0.1150 -2.0964
 2886TIP3    H230074   6.144   4.948   0.713  0.1471 -0.6629  1.8742
 2887TIP3   OH230075   2.266   0.549   2.383 -0.1369  0.4436 -0.0085
 2887TIP3    H130076   2.357   0.548   2.353  0.0103 -0.1640  0.4463
 2887TIP3    H230077   2.219   0.498   2.316  0.0531 -0.2163  0.3571
 2888TIP3   OH230078   4.398   6.254   5.459  0.5563  0.2043 -0.3014
 2888TIP3    H130079   4.457   6.287   5.391 -2.4087 -0.3085 -3.4384
 2888TIP3    H230080   4.311   6.285   5.432 -0.9277 -0.8420  2.8229
 2889TIP3   OH230081   6.247   2.592   1.675  0.0159  0.6675  0.1216
 2889TIP3    H130082   6.218   2.588   1.584  0.6069  1.2743 -0.1067
 2889TIP3    H230083   6.243   2.502   1.705 -0.9126  0.5625 -0.2669
 2890TIP3   OH230084   5.992   0.221  14.685 -0.5933  0.1371 -0.2360
 2890TIP3    H130085   6.080   0.198  14.715 -0.6518 -0.3538 -0.4437
 2890TIP3    H230086   6.003   0.308  14.645 -0.3820  0.4877  0.5643
 2891TIP3   OH230087   1.963   1.874   2.744  0.3704  0.1909  0.2727
 2891TIP3    H130088   1.956   1.969   2.750 -3.0979  0.1517 -1.0538
 2891TIP3    H230089   1.916   1.841   2.821 -0.9902 -0.3644 -0.7483
 2892TIP3   OH230090   6.401   0.027  11.321  0.0680  0.1085 -0.0110
 2892TIP3    H130091   6.312   0.054  11.342 -0.0333  0.8731 -1.3551
 2892TIP3    H230092   6.418   0.064  11.235  1.5118 -0.4539  0.0068
 2893TIP3   OH230093   5.654   3.413  12.693 -0.3847  0.2033 -0.6610
 2893TIP3    H130094   5.727   3.355  12.670 -1.0526 -0.8477 -0.1936
 2893TIP3    H230095   5.691   3.501  12.684  0.6104 -0.2679 -1.5275
 2894TIP3   OH230096   6.590   0.722   2.763  0.3732  0.0522 -0.2870
 2894TIP3    H130097   6.674   0.693   2.797  0.6398  2.4281  1.3156
 2894TIP3    H230098   6.602   0.816   2.747 -1.7384  0.2811 -0.8136
 2895TIP3   OH230099   5.310   5.437   1.138  0.1562  0.5590 -0.4324
 2895TIP3    H130100   5.354   5.402   1.060 -1.2920  1.8884 -1.9371
 2895TIP3    H230101   5.289   5.361   1.191  0.4945 -0.4694 -1.7343
 2896TIP3   OH230102   0.651   0.267   1.583 -0.0536 -0.4073 -0.6268
 2896TIP3    H130103   0.728   0.273   1.525 -0.9112 -2.4488 -2.1299
 2896TIP3    H230104   0.663   0.184   1.629  0.4774  1.0545  2.0773
 2897TIP3   OH230105   4.364   4.562   2.299  0.2881 -0.0444  0.7792
 2897TIP3    H130106   4.398   4.524   2.218 -0.7676  2.5257 -1.0520
 2897TIP3    H230107   4.269   4.556   2.290  0.1555  0.3168  1.8076
 2898TIP3   OH230108   5.087   5.281   2.666 -0.1198  0.0768 -0.3645
 2898TIP3    H130109   5.090   5.366   2.622 -0.3272  0.0692 -0.3936
 2898TIP3    H230110   5.137   5.222   2.609 -1.4392 -0.2319 -1.2382
 2899TIP3   OH230111   1.253   4.750   4.190 -0.2617 -0.2403  0.1962
 2899TIP3    H130112   1.302   4.829   4.215  0.2128  0.4155 -2.4638
 2899TIP3    H230113   1.161   4.773   4.202 -0.0760  0.0520  1.1380
 2900TIP3   OH230114   3.287   5.197  14.885  0.7719  0.2648 -0.1976
 2900TIP3    H130115   3.377   5.210  14.857  0.9503 -1.9964 -0.8976
 2900TIP3    H230116   3.291   5.126  14.949 -0.7692 -3.0945 -3.4101
 2901TIP3   OH230117   3.535   5.944  15.233  0.1075 -0.3038 -0.3642
 2901TIP3    H130118   3.615   5.917  15.187 -0.0822 -2.2973  0.3920
 2901TIP3    H230119   3.567   5.990  15.311  0.4641  0.4995 -0.9684
 2902TIP3   OH230120   6.645   5.787  15.764 -0.6355 -0.4583 -0.2526
 2902TIP3    H130121   6.696   5.710  15.737  2.3079  1.2982 -0.1606
 2902TIP3    H230122   6.680   5.858  15.711 -1.8936  1.1925  1.0307
 2903TIP3   OH230123   0.466   4.989   5.602  0.7180 -0.1433  0.0154
 2903TIP3    H130124   0.551   4.980   5.559  0.7314  0.3367 -0.0639
 2903TIP3    H230125   0.458   5.082   5.620  0.4734 -0.2680  0.5748
 2904TIP3   OH230126   5.593   5.378   3.497  0.2177  0.1434 -0.3212
 2904TIP3    H130127   5.670   5.362   3.551 -0.1867 -1.8384 -0.2683
 2904TIP3    H230128   5.597   5.312   3.428 -1.8781 -0.6274  0.2050
 2905TIP3   OH230129   5.109   6.121  16.058  0.8044  0.0990 -0.3743
 2905TIP3    H130130   5.197   6.148  16.031  0.4190  1.1012 -0.6833
 2905TIP3    H230131   5.055   6.199  16.045  0.3760  0.3353  2.3532
 2906TIP3   OH230132   2.284   1.431   4.950  0.3116  0.2741 -0.4597
 2906TIP3    H130133   2.201   1.454   4.990  0.2637  0.7795 -0.8493
 2906TIP3    H230134   2.275   1.454   4.858  0.5223 -0.6114 -0.7207
 2907TIP3   OH230135   2.442   4.669   5.081  0.1159  0.0045  0.8403
 2907TIP3    H130136   2.349   4.668   5.103  0.0852  0.5430  0.7402
 2907TIP3    H230137   2.483   4.616   5.150 -0.0459  1.2636  1.9436
 2908TIP3   OH230138   6.771   2.264   3.181  0.0651 -0.1276 -0.9612
 2908TIP3    H130139   6.761   2.184   3.130 -0.0776 -1.3187  0.8610
 2908TIP3    H230140   6.682   2.287   3.208  0.0817  0.7811 -1.6022
 2909TIP3   OH230141   1.411   3.422   5.278 -0.5015  0.2493  0.2445
 2909TIP3    H130142   1.368   3.424   5.193  0.2626 -2.3597 -0.3066
 2909TIP3    H230143   1.473   3.495   5.276 -1.4389  1.0390 -0.8747
 2910TIP3   OH230144   4.197   3.057   5.222 -0.6910 -0.0074  0.8948
 2910TIP3    H130145   4.226   3.019   5.139  0.7513 -0.7691  1.7168
 2910TIP3    H230146   4.249   3.013   5.289  0.4164  2.7360  2.0085
 2911TIP3   OH230147   1.336   3.662   1.269  0.3157 -0.6744  0.4944
 2911TIP3    H130148   1.243   3.680   1.253  0.5029 -0.9995 -1.2111
 2911TIP3    H230149   1.380   3.745   1.252  0.4590 -0.8669 -0.1120
 2912TIP3   OH230150   4.261   6.821  10.194 -0.7627  0.2017  0.0715
 2912TIP3    H130151   4.272   6.733  10.231 -1.0311 -0.1032 -0.5509
 2912TIP3    H230152   4.348   6.861  10.201 -0.4383 -0.4009 -0.3519
 2913TIP3   OH230153   3.976   0.158  10.841 -0.2115  0.3986  0.5642
 2913TIP3    H130154   3.890   0.123  10.865 -0.8203  0.0008 -1.9207
 2913TIP3    H230155   4.027   0.081  10.819 -0.0173  0.7744 -0.3255
 2914TIP3   OH230156   0.262   6.357   4.961 -0.2499 -0.0791 -0.5676
 2914TIP3    H130157   0.273   6.279   5.016  0.7973  0.1556 -0.4226
 2914TIP3    H230158   0.167   6.369   4.955 -0.3957  0.0428  1.4003
 2915TIP3   OH230159   6.216   2.966  13.943  0.2087 -0.0088 -0.2029
 2915TIP3    H130160   6.177   2.969  13.856 -0.5760 -0.4315  0.1216
 2915TIP3    H230161   6.302   2.925  13.930 -0.3058 -0.9779 -0.6480
 2916TIP3   OH230162   4.704   2.294   2.743 -0.0070  0.4789  0.1448
 2916TIP3    H130163   4.625   2.293   2.799 -0.4922  0.4044 -0.5287
 2916TIP3    H230164   4.703   2.208   2.701  0.1815  0.6564 -0.2181
 2917TIP3   OH230165   2.948   0.201  15.547 -0.3729  0.0641  0.4643
 2917TIP3    H130166   2.990   0.180  15.464  0.3057  2.1200  0.2258
 2917TIP3    H230167   2.985   0.139  15.609 -1.8239 -2.3495 -0.9393
 2918TIP3   OH230168   3.461   2.228   0.025  0.0178 -0.2611  0.5624
 2918TIP3    H130169   3.505   2.286  -0.036  0.2093 -1.6443 -0.6586
 2918TIP3    H230170   3.467   2.273   0.110 -0.8248  2.0030 -0.5060
 2919TIP3   OH230171   5.423   0.098  14.770  0.1520 -0.2868 -0.3313
 2919TIP3    H130172   5.501   0.058  14.730  1.0003  2.7406 -2.0170
 2919TIP3    H230173   5.458   0.155  14.839 -0.6700  0.2319 -0.3301
 2920TIP3   OH230174   5.833   6.814   1.192  0.2657  0.7196 -0.1782
 2920TIP3    H130175   5.834   6.855   1.278  0.1306  0.2314  0.0597
 2920TIP3    H230176   5.924   6.786   1.178  0.3942  1.2391 -0.4142
 2921TIP3   OH230177   3.618   2.501  15.484 -0.8876 -0.2456 -0.1803
 2921TIP3    H130178   3.698   2.450  15.476 -1.1152 -1.0940  2.3048
 2921TIP3    H230179   3.647   2.587  15.514 -0.8593 -0.2866 -0.0927
 2922TIP3   OH230180   0.612   3.395  17.048  0.1701 -0.0290  0.1791
 2922TIP3    H130181   0.662   3.319  17.018 -0.0770 -0.0036 -0.3096
 2922TIP3    H230182   0.604   3.383  17.143  0.2422 -0.5489  0.1220
 2923TIP3   OH230183   1.755   5.643  16.987  0.0463 -0.3452 -0.3720
 2923TIP3    H130184   1.816   5.715  16.997  1.2204 -1.4082  0.5686
 2923TIP3    H230185   1.670   5.679  17.015  0.2635  1.0826 -1.4667
 2924TIP3   OH230186   2.929   3.968   0.586  0.0784 -0.6016  0.0332
 2924TIP3    H130187   3.017   3.950   0.553 -0.4637 -1.1414 -1.1787
 2924TIP3    H230188   2.888   3.882   0.590 -0.3122 -0.3846  0.8627
 2925TIP3   OH230189   2.902   1.707  15.995 -0.1201  0.0046 -0.0599
 2925TIP3    H130190   2.943   1.720  16.081 -0.7515  1.7323  0.0201
 2925TIP3    H230191   2.851   1.627  16.004  1.7206 -1.1848  0.4026
 2926TIP3   OH230192   5.082   0.744   1.627  0.1707 -0.1645  0.1312
 2926TIP3    H130193   5.081   0.648   1.625 -0.0521 -0.2273 -3.8841
 2926TIP3    H230194   5.159   0.769   1.577  0.0781  1.8179  0.8770
 2927TIP3   OH230195   1.493   3.576   0.312 -0.6837  0.1490 -0.0403
 2927TIP3    H130196   1.530   3.632   0.244 -1.4815 -0.1487 -0.7398
 2927TIP3    H230197   1.517   3.618   0.394 -0.8812  1.2759 -0.5462
 2928TIP3   OH230198   4.167   3.884  13.426  0.0658  0.1490  0.5521
 2928TIP3    H130199   4.193   3.828  13.498  1.5067  0.1799  0.0739
 2928TIP3    H230200   4.138   3.965  13.468 -1.5574 -0.7197  1.2111
 2929TIP3   OH230201   2.925   4.061  10.475 -0.1626 -0.1557  0.3550
 2929TIP3    H130202   2.936   3.972  10.507  2.3734 -0.6017 -1.4035
 2929TIP3    H230203   3.004   4.107  10.503 -0.5984  1.0316 -0.2550
 2930TIP3   OH230204   3.847   5.393  16.886 -0.5095  0.0137 -0.0439
 2930TIP3    H130205   3.794   5.367  16.810 -0.1351 -0.4019 -0.1678
 2930TIP3    H230206   3.784   5.424  16.950 -0.9642 -1.0722  0.0538
 2931TIP3   OH230207   4.753   4.440  16.507  0.3753 -0.4604  0.4340
 2931TIP3    H130208   4.713   4.522  16.475 -0.9400 -1.7783 -1.5612
 2931TIP3    H230209   4.712   4.372  16.454  2.7096 -2.2752  0.8119
 2932TIP3   OH230210   4.465   3.643   0.066  0.2129  0.4007  0.2284
 2932TIP3    H130211   4.370   3.648   0.052 -0.0170  0.1067  1.5122
 2932TIP3    H230212   4.482   3.549   0.077  0.3525  0.5789  1.7299
 2933TIP3   OH230213   6.571   1.451   2.381 -0.9148  0.1613 -0.2442
 2933TIP3    H130214   6.599   1.461   2.472  1.1995 -0.7373 -0.7373
 2933TIP3    H230215   6.525   1.533   2.361  1.0514  1.5952  0.7950
 2934TIP3   OH230216   5.494   6.406   3.565 -0.2213  0.6321 -0.3469
 2934TIP3    H130217   5.499   6.475   3.631 -2.7046 -0.6243  1.3064
 2934TIP3    H230218   5.486   6.325   3.616 -1.4414 -0.4775 -2.1686
 2935TIP3   OH230219   4.950   0.707   5.512  0.3733 -0.0527 -0.7817
 2935TIP3    H130220   4.950   0.684   5.605 -1.6574 -0.9761 -0.9669
 2935TIP3    H230221   4.894   0.783   5.506 -1.0082 -1.0829 -1.4475
 2936TIP3   OH230222   0.132   4.605   3.375  0.2267 -0.1750  0.6306
 2936TIP3    H130223   0.135   4.509   3.382  0.2039 -0.1037  1.8126
 2936TIP3    H230224   0.039   4.627   3.377  0.2303  0.0892  4.6139
 2937TIP3   OH230225   1.032   3.708  11.232 -0.2539  0.1803  0.4018
 2937TIP3    H130226   0.971   3.771  11.194 -2.1095 -2.3554 -1.1479
 2937TIP3    H230227   1.086   3.680  11.159  0.2482 -0.3349  0.9627
 2938TIP3   OH230228   0.357   4.793   1.606  0.7444 -0.1779 -0.7877
 2938TIP3    H130229   0.369   4.756   1.693 -0.3104 -0.3472 -0.6995
 2938TIP3    H230230   0.366   4.718   1.547 -0.2645 -0.3936 -0.6881
 2939TIP3   OH230231   4.772   2.049   2.623 -0.6652  0.2337  0.3861
 2939TIP3    H130232   4.821   2.070   2.543 -1.4191  1.3244  0.1884
 2939TIP3    H230233   4.754   1.955   2.615 -1.1967  0.4306 -1.0042
 2940TIP3   OH230234   2.593   6.104   3.784 -0.5173 -0.4255  0.4661
 2940TIP3    H130235   2.566   6.081   3.695 -1.0232 -0.2104  0.5603
 2940TIP3    H230236   2.577   6.025   3.835 -0.4135 -0.4843  0.4101
 2941TIP3   OH230237   0.462   5.522   5.753  0.3311 -0.4714 -0.4215
 2941TIP3    H130238   0.417   5.570   5.823 -0.3525 -1.1874 -0.3560
 2941TIP3    H230239   0.479   5.588   5.686  3.1170  0.7819  1.3271
 2942TIP3   OH230240   1.897   2.346   2.930  0.5579  0.3972  0.2897
 2942TIP3    H130241   1.917   2.424   2.879  0.7268 -0.2436 -0.6538
 2942TIP3    H230242   1.834   2.376   2.996  1.0389  1.4355  0.2969
 2943TIP3   OH230243   2.568   2.872   0.258 -0.3791  0.0898  0.6898
 2943TIP3    H130244   2.524   2.954   0.280 -1.2389  0.4737 -2.0799
 2943TIP3    H230245   2.638   2.864   0.323  0.0956  3.2981  0.7298
 2944TIP3   OH230246   3.513   4.456  14.984 -0.1511 -0.4384 -0.2319
 2944TIP3    H130247   3.579   4.443  14.917  1.7418  1.3794  1.1473
 2944TIP3    H230248   3.466   4.535  14.958  2.4091  1.9487  1.7397
 2945TIP3   OH230249   1.180   0.213  12.545 -0.1608 -0.3413 -0.1244
 2945TIP3    H130250   1.243   0.155  12.502 -0.1676 -1.2693  1.0555
 2945TIP3    H230251   1.103   0.213  12.488 -0.0265 -1.2317 -0.3101
 2946TIP3   OH230252   0.212   2.377  16.444  0.1736 -0.2170  0.0337
 2946TIP3    H130253   0.258   2.295  16.427  1.2876  0.3161  0.3383
 2946TIP3    H230254   0.209   2.420  16.359  2.7640  0.9622  0.4349
 2947TIP3   OH230255   3.442   6.647  12.217  0.0605 -0.0924  0.3104
 2947TIP3    H130256   3.360   6.688  12.243  0.6131  0.4156  1.2776
 2947TIP3    H230257   3.509   6.712  12.235  0.7458 -0.7128  0.0690
 2948TIP3   OH230258   4.379   1.711   2.379 -0.1743  0.0468  0.3091
 2948TIP3    H130259   4.364   1.620   2.404 -0.4415 -0.3684 -1.2887
 2948TIP3    H230260   4.473   1.716   2.361 -0.1244  0.1440  0.5926
 2949TIP3   OH230261   5.933   6.598   5.916 -0.2097  0.0292 -0.3727
 2949TIP3    H130262   5.893   6.523   5.960  1.6584 -1.3347 -0.8677
 2949TIP3    H230263   6.025   6.575   5.908 -0.2288  0.6216 -4.0220
 2950TIP3   OH230264   0.035   3.228  11.092  0.0875 -0.2987  0.1229
 2950TIP3    H130265   0.032   3.310  11.043 -0.1140 -0.6989 -0.5489
 2950TIP3    H230266   0.105   3.178  11.050 -0.4202 -0.8447 -0.0937
 2951TIP3   OH230267   6.451   4.623  14.394  0.0410  0.1292  0.1918
 2951TIP3    H130268   6.381   4.558  14.391  1.6695 -1.6981 -1.3928
 2951TIP3    H230269   6.452   4.662  14.307  1.7351 -0.7816 -0.2435
 2952TIP3   OH230270   5.978   2.325  14.648 -0.1340  0.2061  0.4068
 2952TIP3    H130271   5.926   2.327  14.728  0.2605 -1.5972  0.7532
 2952TIP3    H230272   5.920   2.286  14.583 -0.0727  0.6260  0.0947
 2953TIP3   OH230273   4.726   5.702  16.246  0.4258  0.1487  0.3300
 2953TIP3    H130274   4.713   5.705  16.152  1.0997  0.4481  0.2437
 2953TIP3    H230275   4.726   5.793  16.274  3.5294  0.3240  0.1355
 2954TIP3   OH230276   2.763   0.327  15.262 -0.1599  0.2185  0.3157
 2954TIP3    H130277   2.807   0.392  15.207 -0.3221 -0.2390 -0.3586
 2954TIP3    H230278   2.828   0.304  15.328 -0.2658  1.4436  0.8854
 2955TIP3   OH230279   1.984   5.966  16.848  0.4075  0.2423 -0.1004
 2955TIP3    H130280   2.050   6.025  16.883 -0.3423  0.2041  1.4810
 2955TIP3    H230281   1.944   6.014  16.776  0.9051  1.0052  0.1283
 2956TIP3   OH230282   4.375   3.184  15.348 -0.1687  0.2030  0.3307
 2956TIP3    H130283   4.322   3.135  15.411  0.4075  1.3188  1.7271
 2956TIP3    H230284   4.432   3.118  15.308 -0.2179 -0.4578  1.3295
 2957TIP3   OH230285   6.028   5.207   0.862 -0.4801  0.5908  0.6084
 2957TIP3    H130286   6.101   5.265   0.887 -0.9128  1.0577  0.7952
 2957TIP3    H230287   6.019   5.147   0.935  2.3613 -2.1395 -1.0589
 2958TIP3   OH230288   0.650   6.540  13.098  0.3272 -0.2643  0.2585
 2958TIP3    H130289   0.604   6.495  13.028  2.5907  0.7469 -2.0675
 2958TIP3    H230290   0.675   6.470  13.160 -0.5561 -1.3963 -0.6269
 2959TIP3   OH230291   4.869   4.453   3.439 -0.2133 -0.1947 -0.0229
 2959TIP3    H130292   4.948   4.409   3.406 -0.1997  0.8338 -1.5081
 2959TIP3    H230293   4.895   4.488   3.524  0.0957 -2.0818  0.7053
 2960TIP3   OH230294   4.329   0.284   4.294  0.5944 -0.0431 -0.0571
 2960TIP3    H130295   4.343   0.229   4.218 -0.6761  1.2034 -1.2666
 2960TIP3    H230296   4.246   0.330   4.275  0.0036 -0.0259  2.2750
 2961TIP3   OH230297   5.027   3.409   6.466  0.3320  0.4083  0.4949
 2961TIP3    H130298   4.937   3.376   6.472 -0.0599  1.7041  3.1062
 2961TIP3    H230299   5.082   3.332   6.477 -0.4058 -0.4038 -1.1619
 2962TIP3   OH230300   2.214   1.102   1.032  0.4510  1.0894 -0.1007
 2962TIP3    H130301   2.245   1.123   0.944  0.4298  2.5861  0.2154
 2962TIP3    H230302   2.132   1.054   1.018  0.5148  1.2109 -0.9029
 2963TIP3   OH230303   1.609   3.899   4.939 -0.4393 -0.3117 -0.3010
 2963TIP3    H130304   1.673   3.841   4.899 -0.4522 -1.5260  1.3318
 2963TIP3    H230305   1.554   3.928   4.866  0.8239 -0.7064 -1.4497
 2964TIP3   OH230306   0.380   4.790  14.425  0.3915 -0.2146 -0.2153
 2964TIP3    H130307   0.366   4.877  14.387 -1.1639 -0.2633  0.1581
 2964TIP3    H230308   0.394   4.806  14.518  0.9952 -0.3113 -0.2869
 2965TIP3   OH230309   3.528   2.644  16.659 -0.1123  0.5751 -0.1713
 2965TIP3    H130310   3.561   2.727  16.694  2.4098 -0.5782  0.3749
 2965TIP3    H230311   3.537   2.653  16.564  0.1743  0.9304 -0.1140
 2966TIP3   OH230312   5.080   4.455  16.459 -0.0895 -0.0680 -0.2875
 2966TIP3    H130313   5.014   4.448  16.528  0.9350  0.2439  0.7565
 2966TIP3    H230314   5.030   4.476  16.380 -1.3596 -1.1344  0.1906
 2967TIP3   OH230315   0.071   1.354  14.418 -0.1577 -0.0543 -0.3439
 2967TIP3    H130316   0.098   1.292  14.350  2.4015 -0.7890  1.2056
 2967TIP3    H230317   0.129   1.429  14.405  0.1145 -0.0559  0.7610
 2968TIP3   OH230318   6.131   3.699  16.746  0.0414 -0.6011 -0.3707
 2968TIP3    H130319   6.210   3.743  16.715  0.4714 -1.4513 -0.4895
 2968TIP3    H230320   6.059   3.754  16.713  0.5724  0.2806 -0.0983
 2969TIP3   OH230321   0.697   2.034   4.531  0.4890  0.1328  0.3517
 2969TIP3    H130322   0.630   2.038   4.599  2.0615  0.2282  1.9881
 2969TIP3    H230323   0.660   2.082   4.457 -1.9565 -1.4122  0.4771
 2970TIP3   OH230324   1.305   2.868  16.109  0.0700 -0.1321  0.0312
 2970TIP3    H130325   1.230   2.823  16.070  1.6458 -1.8026 -1.2733
 2970TIP3    H230326   1.322   2.942  16.051 -1.1214  0.8277  0.8749
 2971TIP3   OH230327   5.647   6.246   6.169 -0.0551 -0.4170 -0.4971
 2971TIP3    H130328   5.552   6.239   6.163 -0.2202 -0.1998  1.1604
 2971TIP3    H230329   5.676   6.157   6.191 -0.1205 -0.0874  1.0465
 2972TIP3   OH230330   0.801   0.438  16.338 -0.4461 -0.0087 -0.6720
 2972TIP3    H130331   0.719   0.459  16.383  0.3692  0.6640  0.5722
 2972TIP3    H230332   0.838   0.524  16.317 -1.1591 -0.2787 -3.4207
 2973TIP3   OH230333   0.437   4.664  12.421  0.6724  0.0722 -0.4284
 2973TIP3    H130334   0.480   4.741  12.458 -0.3776  0.7559 -0.5788
 2973TIP3    H230335   0.431   4.683  12.327 -1.2974  0.6930 -0.2129
 2974TIP3   OH230336   6.685   4.445  16.990  0.1899  0.0486  0.5054
 2974TIP3    H130337   6.752   4.486  16.936 -0.3533 -0.2288 -0.4250
 2974TIP3    H230338   6.716   4.355  17.003 -0.6202 -0.5164 -1.1295
 2975TIP3   OH230339   1.558   0.851   1.980  0.0481  0.4598  0.1397
 2975TIP3    H130340   1.524   0.799   2.053 -1.0537 -0.1297 -0.7668
 2975TIP3    H230341   1.618   0.793   1.935 -1.1721 -0.0602 -0.8647
 2976TIP3   OH230342   3.864   5.255  14.121 -0.2214 -0.2190 -0.1262
 2976TIP3    H130343   3.876   5.178  14.176  0.6981 -1.0089 -1.3635
 2976TIP3    H230344   3.933   5.247  14.054 -1.1878  0.7774 -1.2832
 2977TIP3   OH230345   4.655   6.208  10.151 -0.2442  0.5010  0.2536
 2977TIP3    H130346   4.674   6.274  10.217 -2.5642  0.7226  0.7841
 2977TIP3    H230347   4.560   6.198  10.153 -0.1220 -1.6470 -0.9883
 2978TIP3   OH230348   5.762   6.801   5.603  0.3286 -0.5054 -0.3330
 2978TIP3    H130349   5.855   6.787   5.620  0.1717  1.0799  2.3241
 2978TIP3    H230350   5.748   6.894   5.621 -1.6132 -0.5006 -1.5922
 2979TIP3   OH230351   5.482   1.746   5.600  0.4302  0.7538 -0.2804
 2979TIP3    H130352   5.444   1.809   5.539  0.0259  1.0258  0.2411
 2979TIP3    H230353   5.539   1.692   5.546 -2.5550 -1.3159 -1.6485
 2980TIP3   OH230354   5.631   2.415   0.411 -0.2380  0.1926 -0.5930
 2980TIP3    H130355   5.539   2.437   0.425 -0.3075 -0.5537  0.2146
 2980TIP3    H230356   5.678   2.463   0.479  0.0134  0.7882 -1.1717
 2981TIP3   OH230357   0.723   3.511   3.316 -0.0343  0.0529  0.0310
 2981TIP3    H130358   0.705   3.604   3.302  1.9571  0.9233  2.5194
 2981TIP3    H230359   0.775   3.508   3.396  0.2106 -3.2197 -0.1030
 2982TIP3   OH230360   2.710   1.642   6.594  0.0804 -0.3492 -0.3137
 2982TIP3    H130361   2.692   1.557   6.554 -0.8408 -0.0202 -0.6081
 2982TIP3    H230362   2.631   1.694   6.578  0.8680  0.7692 -0.6786
 2983TIP3   OH230363   5.787   4.895   3.187 -0.7778 -0.1273  0.2107
 2983TIP3    H130364   5.725   4.875   3.116 -0.2589  0.1521 -0.3339
 2983TIP3    H230365   5.840   4.966   3.152 -1.8755  1.4963  1.6865
 2984TIP3   OH230366   5.014   3.312   4.316  0.2671 -0.0749 -0.7564
 2984TIP3    H130367   5.075   3.275   4.252  0.6185  0.5119 -0.7708
 2984TIP3    H230368   4.945   3.351   4.263  0.2735 -0.0757 -0.7652
 2985TIP3   OH230369   0.138   1.343   4.620 -0.2532 -0.1000 -0.0357
 2985TIP3    H130370   0.062   1.356   4.676 -0.1592  0.0296  0.0644
 2985TIP3    H230371   0.207   1.396   4.661  0.5319 -1.9268  1.1181
 2986TIP3   OH230372   4.052   4.618   1.943 -0.3066  0.1433 -0.0696
 2986TIP3    H130373   4.049   4.713   1.931 -0.8338  0.1429  0.0123
 2986TIP3    H230374   3.989   4.601   2.013 -0.1376 -0.2568 -0.0119
 2987TIP3   OH230375   5.085   4.053  13.406 -0.9454  0.0571  0.1879
 2987TIP3    H130376   5.152   4.083  13.344  0.5870 -0.4229  1.5271
 2987TIP3    H230377   5.105   3.961  13.420 -1.8620 -0.0827  0.6767
 2988TIP3   OH230378   0.807   5.647   3.505  0.5425 -0.1505 -0.2727
 2988TIP3    H130379   0.803   5.558   3.540 -0.9603 -0.3587 -0.8874
 2988TIP3    H230380   0.896   5.677   3.524  1.7198 -2.4743 -1.8167
 2989TIP3   OH230381   5.719   5.748  14.640 -0.6116  0.2495 -0.1024
 2989TIP3    H130382   5.756   5.661  14.626 -0.3682  0.1851  0.8375
 2989TIP3    H230383   5.708   5.785  14.552 -0.5058 -0.6394 -0.4971
 2990TIP3   OH230384   1.821   4.961   5.875  0.3274 -0.2766 -0.2885
 2990TIP3    H130385   1.842   5.005   5.957  2.8835 -0.3310 -0.8286
 2990TIP3    H230386   1.727   4.943   5.880  0.0991  1.1947  1.8771
 2991TIP3   OH230387   5.647   4.136   1.878  0.2609  0.1408 -0.7122
 2991TIP3    H130388   5.618   4.226   1.861 -0.0122  0.1319 -0.3037
 2991TIP3    H230389   5.740   4.137   1.856  0.1215  0.3592 -1.3248
 2992TIP3   OH230390   2.212   5.680   0.372 -0.0242 -0.0942 -0.5239
 2992TIP3    H130391   2.282   5.647   0.315 -0.1277  1.2588 -1.4826
 2992TIP3    H230392   2.258   5.713   0.450  1.0188  4.1957 -2.6300
 2993TIP3   OH230393   2.600   5.304  12.321  0.0026  0.2270  0.1708
 2993TIP3    H130394   2.621   5.250  12.396  0.0373 -0.7447 -0.5181
 2993TIP3    H230395   2.529   5.361  12.351  2.9218  3.0592  2.3128
 2994TIP3   OH230396   0.572   4.529  15.066 -0.2087  0.1153 -0.7083
 2994TIP3    H130397   0.490   4.561  15.029  0.4503  1.4599 -1.0656
 2994TIP3    H230398   0.625   4.504  14.989 -0.8548 -2.3696 -0.4468
 2995TIP3   OH230399   0.563   1.341   3.321  0.7810  0.3621  0.6195
 2995TIP3    H130400   0.586   1.426   3.285 -0.7938  1.2825  1.7022
 2995TIP3    H230401   0.562   1.282   3.246  0.9409  1.4983 -0.2889
 2996TIP3   OH230402   0.597   6.483   2.827 -0.0684  0.1784  0.4058
 2996TIP3    H130403   0.574   6.438   2.908 -1.1612  0.0077  0.0248
 2996TIP3    H230404   0.526   6.461   2.766  0.7503  0.2690 -0.6126
 2997TIP3   OH230405   4.709   5.508  11.237 -0.3858  0.9695  0.3697
 2997TIP3    H130406   4.799   5.535  11.219 -0.3874  0.8162  0.1347
 2997TIP3    H230407   4.656   5.556  11.174 -0.3941  0.4684 -0.0074
 2998TIP3   OH230408   4.172   1.202  11.930  0.4277 -0.2256 -0.3777
 2998TIP3    H130409   4.180   1.286  11.976  0.9000 -0.3161 -0.2878
 2998TIP3    H230410   4.099   1.158  11.974  0.0943  0.1868 -0.5068
 2999TIP3   OH230411   5.896   4.241  15.144  0.2476 -0.0900  0.2862
 2999TIP3    H130412   5.826   4.196  15.096 -1.0184 -0.1537  2.1188
 2999TIP3    H230413   5.970   4.239  15.084 -1.5567  0.8899 -2.1966
 3000TIP3   OH230414   0.055   6.369   2.597  0.2362 -0.4969  0.3663
 3000TIP3    H130415   0.010   6.427   2.536 -0.0931 -0.7469  0.3638
 3000TIP3    H230416   0.022   6.394   2.683  0.8251 -0.0340  0.4597
 3001TIP3   OH230417   6.174   5.112   1.274 -0.2916  0.2486 -0.7012
 3001TIP3    H130418   6.174   5.042   1.339 -1.9029 -0.6679 -1.6299
 3001TIP3    H230419   6.262   5.109   1.235  1.0231  1.3695  1.9030
 3002TIP3   OH230420   1.490   2.966  16.432 -0.3875  0.0251  0.4058
 3002TIP3    H130421   1.449   3.008  16.508  0.6796 -0.3226  1.2105
 3002TIP3    H230422   1.480   2.872  16.449  2.1750 -0.1361  1.5367
 3003TIP3   OH230423   1.480   3.516   2.470 -0.2766 -0.6839  0.2487
 3003TIP3    H130424   1.502   3.569   2.546 -1.6963  0.3238 -0.0274
 3003TIP3    H230425   1.385   3.510   2.470 -0.3551 -0.1023 -1.8148
 3004TIP3   OH230426   5.097   6.235  15.753 -0.7891 -0.4260 -0.1317
 3004TIP3    H130427   5.158   6.166  15.781 -0.6787 -1.0266 -1.7886
 3004TIP3    H230428   5.139   6.316  15.781 -0.6470 -0.9693  1.3388
 3005TIP3   OH230429   3.110   6.474  16.870 -0.2875  0.0845  0.1500
 3005TIP3    H130430   3.138   6.561  16.841  1.5659 -0.8762 -1.0797
 3005TIP3    H230431   3.044   6.448  16.806 -1.6111  0.9494  1.1008
 3006TIP3   OH230432   3.953   0.668   4.201 -0.2424 -0.4975  0.4350
 3006TIP3    H130433   4.048   0.656   4.201 -0.2630 -0.6631  0.5756
 3006TIP3    H230434   3.941   0.763   4.196 -0.0793 -0.5164 -0.4650
 3007TIP3   OH230435   3.180   2.739  15.251  0.3875 -0.1047  0.3216
 3007TIP3    H130436   3.102   2.698  15.288  1.4139 -2.9755 -0.4115
 3007TIP3    H230437   3.148   2.782  15.171 -0.5601 -0.6693  0.3780
 3008TIP3   OH230438   1.223   0.517   1.352 -0.0759  0.0361 -0.2597
 3008TIP3    H130439   1.176   0.477   1.425 -1.4641 -0.3749 -1.3196
 3008TIP3    H230440   1.244   0.605   1.381 -1.6856  0.2949  0.2140
 3009TIP3   OH230441   4.631   1.241   0.554 -0.6678  0.8029 -0.0409
 3009TIP3    H130442   4.681   1.219   0.633  1.9027  1.5629 -1.3346
 3009TIP3    H230443   4.615   1.156   0.512  1.8289  0.6293 -0.8183
 3010TIP3   OH230444   0.333   0.499   2.647  0.5758 -0.1257 -1.2083
 3010TIP3    H130445   0.286   0.580   2.626 -0.1196  0.0656  0.8535
 3010TIP3    H230446   0.409   0.528   2.698 -0.0223 -0.7544  0.1092
 3011TIP3   OH230447   0.844   6.235  13.848  0.1704  0.2729  0.1079
 3011TIP3    H130448   0.925   6.247  13.897  0.7403 -0.3368 -0.6561
 3011TIP3    H230449   0.867   6.259  13.758  0.7584 -3.8987 -1.0531
 3012TIP3   OH230450   1.973   4.849  15.751 -0.0477  0.8904 -0.3118
 3012TIP3    H130451   2.005   4.867  15.839 -2.5410  0.9569  0.6551
 3012TIP3    H230452   1.908   4.779  15.763  0.0184  0.4608 -2.1872
 3013TIP3   OH230453   0.484   4.886   4.866  0.1117 -0.8140  0.3080
 3013TIP3    H130454   0.511   4.859   4.778 -1.8354 -1.8593 -0.0440
 3013TIP3    H230455   0.457   4.977   4.856  0.8723 -0.6070  0.0727
 3014TIP3   OH230456   4.232   5.378   2.284  0.4067  0.1049  0.2569
 3014TIP3    H130457   4.316   5.371   2.330  0.8811 -0.7640 -0.6833
 3014TIP3    H230458   4.252   5.432   2.207  0.3696 -0.9276 -0.5031
 3015TIP3   OH230459   0.645   6.756   4.246 -0.1308 -0.6935 -0.1421
 3015TIP3    H130460   0.586   6.748   4.171  0.5448 -2.6729 -0.5210
 3015TIP3    H230461   0.732   6.768   4.207 -0.0466  0.5569  0.3850
 3016TIP3   OH230462   4.255   3.117   4.624 -0.2909  0.3125  0.4638
 3016TIP3    H130463   4.327   3.055   4.630 -0.5128  0.1614  2.1809
 3016TIP3    H230464   4.293   3.200   4.656 -0.6982  0.3892  0.7523
 3017TIP3   OH230465   5.457   4.991  16.435  0.1912 -0.1048  0.1547
 3017TIP3    H130466   5.547   5.024  16.444  0.2325 -0.1228 -0.1765
 3017TIP3    H230467   5.417   5.049  16.370  0.2503 -0.6712 -0.3955
 3018TIP3   OH230468   0.524   3.206  16.178 -0.2065  0.8567 -0.2371
 3018TIP3    H130469   0.466   3.213  16.253  1.1582  2.2187  0.7694
 3018TIP3    H230470   0.611   3.191  16.216  0.6681  2.5111 -1.4399
 3019TIP3   OH230471   5.365   4.876   0.006  0.3354  0.4128 -0.5448
 3019TIP3    H130472   5.413   4.925   0.072  0.1133 -0.3268  0.1759
 3019TIP3    H230473   5.431   4.821  -0.037  0.1935 -0.4649  0.3192
 3020TIP3   OH230474   4.814   4.973   4.548 -0.0393 -0.1404 -0.4527
 3020TIP3    H130475   4.796   5.037   4.479 -0.8457 -0.2092 -0.3210
 3020TIP3    H230476   4.899   4.998   4.582  0.2396  0.0731 -1.2773
 3021TIP3   OH230477   5.967   2.777  12.317  0.9556  0.0590  0.5412
 3021TIP3    H130478   5.912   2.853  12.301 -1.1552 -1.3268  0.8475
 3021TIP3    H230479   5.980   2.776  12.412  1.0979  0.1038  0.5227
 3022TIP3   OH230480   0.014   3.222   5.713 -0.6087  0.0808 -0.3458
 3022TIP3    H130481  -0.024   3.295   5.762 -0.8291  0.4088 -1.0079
 3022TIP3    H230482  -0.048   3.205   5.643  0.2936  0.4075 -1.2510
 3023TIP3   OH230483   0.965   1.114   2.314 -0.0269  0.2993 -0.4181
 3023TIP3    H130484   1.027   1.180   2.284 -0.7036  0.6912 -1.0004
 3023TIP3    H230485   0.879   1.154   2.299 -0.4485 -0.7217 -0.7881
 3024TIP3   OH230486   3.897   6.177   0.953 -0.1139  0.7746  0.4605
 3024TIP3    H130487   3.896   6.132   1.038  1.7044 -0.9778 -0.3694
 3024TIP3    H230488   3.843   6.121   0.897  0.0501  1.0408  0.0424
 3025TIP3   OH230489   0.669   5.868  12.474  0.5777  0.3722 -0.4648
 3025TIP3    H130490   0.743   5.898  12.526  1.6044 -0.3029 -1.4926
 3025TIP3    H230491   0.608   5.942  12.474  1.4074  1.0694  0.0980
 3026TIP3   OH230492   6.018   5.208  14.762 -0.3074 -0.1825 -0.0767
 3026TIP3    H130493   6.006   5.154  14.683  0.7112  0.3891 -0.6564
 3026TIP3    H230494   6.045   5.294  14.728 -2.9267  1.0670  0.7672
 3027TIP3   OH230495   4.499   3.335  16.940  0.6233  0.5104  0.5139
 3027TIP3    H130496   4.549   3.276  16.884  1.7697  0.4699  1.5584
 3027TIP3    H230497   4.408   3.321  16.913  0.9846 -0.8208 -0.1011
 3028TIP3   OH230498   2.469   1.860  16.488 -0.0833 -0.4107  0.0574
 3028TIP3    H130499   2.419   1.934  16.453  0.0842 -1.0254 -1.5943
 3028TIP3    H230500   2.550   1.900  16.520 -0.2077  0.1897 -0.3455
 3029TIP3   OH230501   6.479   0.436   2.130  0.4904 -0.8420 -0.1044
 3029TIP3    H130502   6.510   0.380   2.202  0.3198 -0.2108  0.4736
 3029TIP3    H230503   6.531   0.516   2.138  0.1135 -0.5682 -0.3663
 3030TIP3   OH230504   0.482   3.110  11.137  0.3135  0.5581  0.1759
 3030TIP3    H130505   0.452   3.105  11.047  1.8377 -0.1484 -0.3203
 3030TIP3    H230506   0.501   3.020  11.162  2.4358  0.9808  0.2693
 3031TIP3   OH230507   5.995   1.694   5.410  0.1673 -0.4040  0.2552
 3031TIP3    H130508   6.030   1.778   5.378 -0.5165 -0.0442  0.4314
 3031TIP3    H230509   5.930   1.719   5.476  0.8258 -1.1118  1.1886
 3032TIP3   OH230510   3.948   4.404   2.615 -0.0197  0.1356 -0.0629
 3032TIP3    H130511   3.875   4.452   2.654 -1.0137 -0.5816 -0.9666
 3032TIP3    H230512   3.959   4.444   2.528 -0.2621 -0.6527 -0.4701
 3033TIP3   OH230513   6.389   1.007   3.319 -0.4160 -0.1893 -0.8379
 3033TIP3    H130514   6.392   1.099   3.296 -0.4442 -0.3047 -1.2986
 3033TIP3    H230515   6.466   0.993   3.375 -0.8953  0.3080 -0.0295
 3034TIP3   OH230516   1.849   3.855  15.620 -0.3750 -0.3649  0.4994
 3034TIP3    H130517   1.856   3.949  15.634 -2.0350 -0.0476 -0.5107
 3034TIP3    H230518   1.919   3.817  15.673  0.2467  1.4181  1.0155
 3035TIP3   OH230519   2.939   1.173   0.030 -0.0687 -0.0990 -0.2902
 3035TIP3    H130520   2.925   1.162  -0.064  0.8421  0.6777 -0.5322
 3035TIP3    H230521   3.032   1.195   0.037 -0.0005 -0.6795  0.8412
 3036TIP3   OH230522   1.169   2.944  16.734 -0.4806 -0.1803  0.0020
 3036TIP3    H130523   1.124   2.870  16.694  0.4845 -1.0916  0.5812
 3036TIP3    H230524   1.229   2.975  16.666 -0.1688 -0.5572  0.1072
 3037TIP3   OH230525   3.239   3.287   3.922  0.2698  0.6304 -0.1691
 3037TIP3    H130526   3.269   3.292   3.832  2.7776  1.1021  0.6176
 3037TIP3    H230527   3.146   3.309   3.918 -0.2410 -1.5305 -2.8683
 3038TIP3   OH230528   0.631   6.165  13.150 -0.0808  0.2946  0.6810
 3038TIP3    H130529   0.546   6.123  13.151  0.9676 -2.1964 -1.9245
 3038TIP3    H230530   0.625   6.231  13.080  0.3530 -0.5154 -0.1380
 3039TIP3   OH230531   0.941   4.358  11.053 -0.0704 -0.3004 -0.0294
 3039TIP3    H130532   0.896   4.392  11.131 -1.0675 -0.8087 -0.3754
 3039TIP3    H230533   0.877   4.365  10.983 -0.2592 -2.5976 -0.1866
 3040TIP3   OH230534   5.385   1.792  13.624  0.3325  0.3573  0.6842
 3040TIP3    H130535   5.455   1.836  13.576  0.6528  1.5133  2.1230
 3040TIP3    H230536   5.340   1.863  13.670 -2.4489 -0.1848 -0.9326
 3041TIP3   OH230537   3.160   2.935   0.918  0.4711 -0.1944  0.1946
 3041TIP3    H130538   3.161   2.839   0.916 -0.7765 -0.2200 -0.1693
 3041TIP3    H230539   3.158   2.957   1.012  1.0680 -0.5115  0.2838
 3042TIP3   OH230540   2.666   4.629  13.684 -0.0276  0.0739 -0.0174
 3042TIP3    H130541   2.639   4.539  13.700 -0.1645 -0.0037 -0.6643
 3042TIP3    H230542   2.654   4.641  13.590  3.6384 -0.4657 -0.6980
 3043TIP3   OH230543   1.212   0.799   3.267 -0.3641  0.1477  0.8323
 3043TIP3    H130544   1.297   0.806   3.309  1.2636  0.7160 -2.2483
 3043TIP3    H230545   1.192   0.888   3.237 -0.0535 -0.5977 -1.8700
 3044TIP3   OH230546   5.734   6.198  15.613 -0.1573 -0.0502 -0.0939
 3044TIP3    H130547   5.679   6.240  15.547  1.3308  1.1373 -0.6400
 3044TIP3    H230548   5.754   6.112  15.577 -0.8274 -0.1020 -0.3523
 3045TIP3   OH230549   0.056   2.212   5.797 -0.0916 -0.6332 -0.0759
 3045TIP3    H130550   0.043   2.306   5.790  2.3210 -0.2928 -1.0529
 3045TIP3    H230551   0.103   2.200   5.880  0.4744 -0.8498 -0.4221
 3046TIP3   OH230552   5.579   3.572  11.387  0.2008 -0.0537 -0.1889
 3046TIP3    H130553   5.495   3.601  11.422  0.5881  1.0515 -0.1324
 3046TIP3    H230554   5.636   3.567  11.464  0.5689  0.6194 -0.4105
 3047TIP3   OH230555   2.115   6.288   3.936 -0.0711 -0.0711 -0.0889
 3047TIP3    H130556   2.086   6.302   3.846 -0.0077  1.1693  0.0686
 3047TIP3    H230557   2.211   6.288   3.931 -0.0614 -1.8311 -0.2710
 3048TIP3   OH230558   0.300   1.774   3.860 -0.0714  0.6104  0.0393
 3048TIP3    H130559   0.322   1.683   3.839 -0.2916  0.9923 -2.0554
 3048TIP3    H230560   0.205   1.774   3.873  0.1447  0.2552  1.8484
 3049TIP3   OH230561   3.722   6.451  14.984  0.5036 -0.1082  0.6757
 3049TIP3    H130562   3.677   6.367  14.978 -1.7301  1.0696 -0.3289
 3049TIP3    H230563   3.695   6.487  15.068  0.7669 -0.0053  0.7184
 3050TIP3   OH230564   0.031   3.095  12.741  0.1300  0.4196  0.4427
 3050TIP3    H130565   0.023   3.059  12.653  0.2165  1.4805 -0.0168
 3050TIP3    H230566  -0.054   3.080  12.781  0.5190 -1.3525  0.7117
 3051TIP3   OH230567   4.273   4.881  16.796 -0.4844 -0.6167 -0.1970
 3051TIP3    H130568   4.282   4.954  16.735 -2.8619 -0.6259 -0.6635
 3051TIP3    H230569   4.273   4.921  16.883  1.3737 -0.4498 -0.2229
 3052TIP3   OH230570   0.556   6.319  14.807  0.5013 -0.3064 -0.0911
 3052TIP3    H130571   0.520   6.390  14.860  0.3096 -0.3316 -0.1858
 3052TIP3    H230572   0.641   6.300  14.846  0.8362  0.4039 -0.4395
 3053TIP3   OH230573   5.760   5.541  13.716 -0.7201  0.0893  0.1046
 3053TIP3    H130574   5.826   5.580  13.658 -0.6090 -0.8809 -0.4447
 3053TIP3    H230575   5.683   5.529  13.660 -1.0735  0.4059  0.5199
 3054TIP3   OH230576   3.985   4.814   3.081  0.2307  0.0640  0.4691
 3054TIP3    H130577   3.894   4.795   3.103  0.2031  0.3831  0.6350
 3054TIP3    H230578   4.027   4.728   3.079  0.0429 -0.0447  0.9219
 3055TIP3   OH230579   2.528   5.908  16.690  0.1279 -0.4974  0.5929
 3055TIP3    H130580   2.437   5.908  16.721  0.3135 -0.9956  1.1662
 3055TIP3    H230581   2.525   5.860  16.608 -0.2404  0.1119  0.2416
 3056TIP3   OH230582   6.419   3.594  16.582 -0.4265 -0.3813 -0.5196
 3056TIP3    H130583   6.356   3.607  16.652  0.0931 -0.0882 -0.0979
 3056TIP3    H230584   6.413   3.501  16.561 -2.5265  0.0300 -1.9789
 3057TIP3   OH230585   0.909   5.640  16.147 -0.2444  0.3864  0.1254
 3057TIP3    H130586   0.996   5.663  16.113 -0.4646  1.3948  0.2183
 3057TIP3    H230587   0.859   5.721  16.142 -0.9046  0.0404  0.9502
 3058TIP3   OH230588   5.859   0.238   0.778  0.3306 -0.2663  0.5308
 3058TIP3    H130589   5.837   0.226   0.686 -0.9666 -2.6910  1.1055
 3058TIP3    H230590   5.953   0.220   0.782  0.6864  1.1186 -0.4527
 3059TIP3   OH230591   4.024   1.088   6.487 -0.2159 -0.2230  0.0994
 3059TIP3    H130592   4.021   1.176   6.523  0.5305  0.5837 -1.6863
 3059TIP3    H230593   4.116   1.063   6.492 -0.4469 -0.9909  0.7465
 3060TIP3   OH230594   4.180   2.715  16.465  0.0677 -0.2121  0.3499
 3060TIP3    H130595   4.162   2.773  16.391 -0.3140 -0.7630  0.0064
 3060TIP3    H230596   4.269   2.684  16.450  0.8052  1.3738  1.2811
 3061TIP3   OH230597   0.129   2.773   3.462  0.0494  0.0591 -0.4741
 3061TIP3    H130598   0.203   2.835   3.462  0.5886 -0.5701 -1.0951
 3061TIP3    H230599   0.085   2.789   3.545  3.1291 -2.2003  1.8333
 3062TIP3   OH230600   3.007   2.134   0.750  0.0780 -0.2569  0.8783
 3062TIP3    H130601   3.065   2.063   0.722 -0.9392 -0.8521  0.1837
 3062TIP3    H230602   2.992   2.186   0.671  0.2239  0.3047  1.2114
 3063TIP3   OH230603   1.734   2.066   1.740  0.0569  0.1659  0.6483
 3063TIP3    H130604   1.813   2.104   1.779  0.4282  0.2242 -0.1344
 3063TIP3    H230605   1.762   1.981   1.706 -0.5396 -0.3952  1.5199
 3064TIP3   OH230606   0.635   0.483   3.035  0.2662  0.5242 -0.0865
 3064TIP3    H130607   0.632   0.392   3.063 -1.2679  0.4845 -0.2939
 3064TIP3    H230608   0.716   0.517   3.072  0.7800 -0.8735  0.1317
 3065TIP3   OH230609   0.046   1.881  12.550 -0.0493 -0.5516  0.2177
 3065TIP3    H130610  -0.035   1.898  12.598 -0.3469 -0.5990 -0.2638
 3065TIP3    H230611   0.020   1.882  12.458  0.5885 -0.0905  0.0392
 3066TIP3   OH230612   1.975   0.163   5.976 -0.2760 -0.7034  0.1125
 3066TIP3    H130613   1.937   0.139   6.060 -1.4422  2.5513  0.6492
 3066TIP3    H230614   2.026   0.242   5.994  0.1857 -0.4242 -2.0699
 3067TIP3   OH230615   0.909   3.488  15.492 -0.7890 -0.3587  0.0931
 3067TIP3    H130616   0.921   3.576  15.456 -1.2399 -1.0541 -1.8117
 3067TIP3    H230617   0.816   3.471  15.485 -0.8772 -0.5973  1.4920
 3068TIP3   OH230618   2.942   4.331  16.771 -0.4586 -0.5500  0.2979
 3068TIP3    H130619   3.016   4.375  16.811 -0.0358 -1.4957  0.5891
 3068TIP3    H230620   2.885   4.309  16.845 -0.3578 -1.0402  0.2370
 3069TIP3   OH230621   6.028   3.746  10.628  0.1337 -0.4799 -0.4621
 3069TIP3    H130622   5.959   3.785  10.575  0.2712  1.1865  0.5261
 3069TIP3    H230623   6.064   3.676  10.573 -0.6203  0.2992 -1.9961
 3070TIP3   OH230624   2.451   2.259  12.902 -0.1977 -0.7049  0.1355
 3070TIP3    H130625   2.389   2.272  12.830  1.9849  3.0723 -1.3658
 3070TIP3    H230626   2.396   2.240  12.978 -3.0827  0.6255 -1.4429
 3071TIP3   OH230627   2.501   4.099  13.973 -0.1107  0.0625 -0.2526
 3071TIP3    H130628   2.527   4.165  14.038 -0.4078 -0.9590  0.9548
 3071TIP3    H230629   2.493   4.148  13.891  1.4121  1.1955  0.2158
 3072TIP3   OH230630   3.026   5.164   5.068 -0.4126 -0.0707  0.2066
 3072TIP3    H130631   2.983   5.212   4.998  1.4724 -0.9069 -1.6078
 3072TIP3    H230632   2.977   5.082   5.074 -0.8215  0.1659  0.1674
 3073TIP3   OH230633   2.334   2.819   1.265  0.1747  0.0795  0.1817
 3073TIP3    H130634   2.255   2.848   1.309 -0.2690  1.4536 -1.4181
 3073TIP3    H230635   2.322   2.725   1.253 -1.9384  0.4785 -1.3510
 3074TIP3   OH230636   2.178   3.631   0.256  0.4359  0.0616  0.0510
 3074TIP3    H130637   2.234   3.603   0.184  1.0885  1.0399  0.1708
 3074TIP3    H230638   2.187   3.562   0.321 -0.0061 -0.7346 -0.7124
 3075TIP3   OH230639   4.850   3.268   3.900  0.6459  0.3755  0.2123
 3075TIP3    H130640   4.872   3.299   3.987  1.4682 -2.1073  0.9757
 3075TIP3    H230641   4.755   3.255   3.902  0.3199  2.4703 -0.0613
 3076TIP3   OH230642   0.481   0.938   4.041 -0.7980 -0.1328 -0.0841
 3076TIP3    H130643   0.496   0.962   3.950 -2.0333 -0.0098 -0.2786
 3076TIP3    H230644   0.395   0.974   4.061 -0.5029 -0.0785  1.1649
 3077TIP3   OH230645   4.296   2.874   2.830 -0.3068 -0.5515 -0.1692
 3077TIP3    H130646   4.202   2.883   2.814 -0.4587 -0.2868  0.8262
 3077TIP3    H230647   4.336   2.942   2.777 -1.0131  2.2703  2.6204
 3078TIP3   OH230648   2.832   5.792  11.662  0.1898 -0.1803  0.2501
 3078TIP3    H130649   2.887   5.856  11.617  1.5402 -0.7569  1.0144
 3078TIP3    H230650   2.829   5.823  11.753 -1.0386  0.0129  0.1602
 3079TIP3   OH230651   3.951   0.336  12.995  0.2014 -0.1407  0.7372
 3079TIP3    H130652   3.943   0.249  13.035  2.4271 -1.7862 -2.0253
 3079TIP3    H230653   4.035   0.368  13.026  1.4709 -0.9987 -1.5305
 3080TIP3   OH230654   0.711   5.222  13.060 -0.2354  0.0580  0.2204
 3080TIP3    H130655   0.665   5.144  13.092 -0.8486 -0.2750 -1.3569
 3080TIP3    H230656   0.794   5.188  13.027  0.1901  0.3247  1.0040
 3081TIP3   OH230657   5.750   1.539   1.923 -0.2131  0.1106 -0.2268
 3081TIP3    H130658   5.804   1.465   1.949 -3.3536 -2.1043  0.6270
 3081TIP3    H230659   5.700   1.507   1.848 -1.4633  1.4172 -0.0124
 3082TIP3   OH230660   3.089   1.030   4.022 -0.3227 -0.0326  0.1177
 3082TIP3    H130661   3.012   1.066   4.066  0.7081 -0.1549  2.1509
 3082TIP3    H230662   3.054   0.967   3.959 -1.8987  0.1442  0.7730
 3083TIP3   OH230663   2.649   6.061  12.262  0.6270  0.1132 -0.5065
 3083TIP3    H130664   2.607   6.023  12.185  0.6140 -0.9061 -0.0144
 3083TIP3    H230665   2.615   6.150  12.266 -1.6939 -0.6956 -0.0302
 3084TIP3   OH230666   3.960   5.433   5.172 -0.0832 -0.5842 -0.1319
 3084TIP3    H130667   3.909   5.403   5.247 -0.7221 -1.7352 -0.9950
 3084TIP3    H230668   4.036   5.375   5.170  0.7488  0.4390  0.5103
 3085TIP3   OH230669   1.613   0.964  15.373 -0.3123 -0.5015 -0.5080
 3085TIP3    H130670   1.631   1.035  15.434 -0.3542 -1.0228  0.1183
 3085TIP3    H230671   1.581   1.008  15.294 -0.9040  0.1430  0.0764
 3086TIP3   OH230672   2.652   5.071   3.511  0.0532 -0.1126  0.1915
 3086TIP3    H130673   2.684   4.986   3.539  1.4484  0.8380  1.6976
 3086TIP3    H230674   2.661   5.127   3.588  0.1267  1.6299 -1.0059
 3087TIP3   OH230675   4.574   3.190   3.890 -0.8194 -0.3493 -0.0480
 3087TIP3    H130676   4.483   3.215   3.900 -0.6783 -0.0367  0.4593
 3087TIP3    H230677   4.584   3.172   3.796 -2.0413 -2.8882  0.2245
 3088TIP3   OH230678   1.871   1.300   1.265  0.2071 -0.4892 -0.2273
 3088TIP3    H130679   1.813   1.312   1.189  0.4137 -0.7780 -0.4333
 3088TIP3    H230680   1.825   1.344   1.337 -0.3309 -0.8188 -0.3580
 3089TIP3   OH230681   3.283   6.011   0.335  0.1211 -0.1724 -0.3798
 3089TIP3    H130682   3.234   5.930   0.319  0.7836 -0.6496 -0.0211
 3089TIP3    H230683   3.360   6.004   0.278  0.9317 -0.4837  0.7121
 3090TIP3   OH230684   2.067   0.679   2.185  0.9354 -0.3763 -0.0052
 3090TIP3    H130685   1.995   0.668   2.247  0.5130  0.1041 -0.3974
 3090TIP3    H230686   2.127   0.607   2.204  0.4333 -0.6817  0.4429
 3091TIP3   OH230687   2.039   6.681   0.754 -0.1326  0.6838 -0.0612
 3091TIP3    H130688   2.119   6.630   0.767 -0.3256 -0.1257 -1.7881
 3091TIP3    H230689   1.969   6.625   0.786 -0.1018  1.1007  0.7755
 3092TIP3   OH230690   3.660   4.906   1.472 -0.2415 -0.4285  0.0185
 3092TIP3    H130691   3.668   4.960   1.550  0.0847 -0.1778 -0.1832
 3092TIP3    H230692   3.628   4.821   1.504  0.4783 -0.5265  0.5021
 3093TIP3   OH230693   2.038   4.690  13.703  0.4541 -0.9216  0.1226
 3093TIP3    H130694   2.031   4.608  13.753  0.2242 -1.7101 -1.1548
 3093TIP3    H230695   2.107   4.674  13.639 -0.5832 -0.6829 -1.1189
 3094TIP3   OH230696   1.138   5.211  14.758 -0.8685  0.0992 -0.2264
 3094TIP3    H130697   1.171   5.298  14.779 -1.4485  0.2818 -0.0479
 3094TIP3    H230698   1.159   5.198  14.666  1.0686 -0.4212  0.2408
 3095TIP3   OH230699   6.701   3.117   3.022  0.8879  0.8076  0.3327
 3095TIP3    H130700   6.768   3.051   3.040 -1.2920 -1.7469 -0.3910
 3095TIP3    H230701   6.625   3.088   3.072 -0.0605  3.0240  0.2673
 3096TIP3   OH230702   5.024   3.846  13.168 -0.4852  0.9102 -0.1499
 3096TIP3    H130703   5.002   3.763  13.125 -0.3114  0.4868  0.5546
 3096TIP3    H230704   4.952   3.860  13.230  0.4853  0.2273  1.1864
 3097TIP3   OH230705   5.184   2.426  15.227  0.0167  0.0729  0.4088
 3097TIP3    H130706   5.258   2.474  15.189 -0.6973 -0.4328 -1.7792
 3097TIP3    H230707   5.187   2.341  15.185 -1.3683 -0.2264  0.8730
 3098TIP3   OH230708   1.641   2.927   2.240  0.0732 -0.5926  0.2058
 3098TIP3    H130709   1.603   2.952   2.155  1.4014 -1.3291 -0.6416
 3098TIP3    H230710   1.643   2.831   2.237 -0.2532 -0.6461  1.2734
 3099TIP3   OH230711   4.291   4.183   6.522 -0.2526 -0.8975 -0.0633
 3099TIP3    H130712   4.226   4.131   6.474  0.7214 -0.7381 -1.6432
 3099TIP3    H230713   4.372   4.132   6.514 -0.0642 -0.9075  1.5540
 3100TIP3   OH230714   6.616   0.923  14.306  0.0795  0.3104 -0.3749
 3100TIP3    H130715   6.665   0.904  14.226  2.6011  0.9400  0.9274
 3100TIP3    H230716   6.645   1.010  14.332 -0.0246 -0.2139  1.6719
 3101TIP3   OH230717   3.089   3.322   5.152 -0.0376 -0.1049 -0.2205
 3101TIP3    H130718   3.164   3.364   5.111 -0.4584  0.5322 -0.3564
 3101TIP3    H230719   3.083   3.236   5.109  0.1295  0.1612 -0.7812
 3102TIP3   OH230720   5.716   6.384   5.595 -0.2732  0.3462 -0.0647
 3102TIP3    H130721   5.635   6.433   5.604 -0.7873  0.7398 -4.5747
 3102TIP3    H230722   5.776   6.444   5.550  0.8315 -1.4399 -1.1052
 3103TIP3   OH230723   4.809   1.731   1.199  0.0202 -0.0754 -0.0474
 3103TIP3    H130724   4.822   1.686   1.116  0.4359  0.4009 -0.2455
 3103TIP3    H230725   4.888   1.711   1.249  0.0239  0.1042  0.0184
 3104TIP3   OH230726   2.726   4.180   0.273  0.1169  0.0017  0.7284
 3104TIP3    H130727   2.811   4.139   0.256 -0.2459 -1.1185  1.4599
 3104TIP3    H230728   2.702   4.219   0.190  1.4757  0.5972  0.5814
 3105TIP3   OH230729   6.104   1.083   2.352  0.6512 -0.0070 -0.1679
 3105TIP3    H130730   6.106   1.112   2.443 -0.3837 -0.0440 -0.1202
 3105TIP3    H230731   6.096   0.988   2.358  2.4301 -0.1987 -0.3192
 3106TIP3   OH230732   6.479   4.450   2.310  0.1852  0.1161 -0.1874
 3106TIP3    H130733   6.412   4.431   2.376 -0.2574 -0.5243 -0.8036
 3106TIP3    H230734   6.549   4.388   2.328 -0.0974 -0.3129 -0.5389
 3107TIP3   OH230735   0.140   0.856  11.697 -0.1915  0.2161  0.1070
 3107TIP3    H130736   0.057   0.901  11.681 -0.7168 -0.9078 -0.4532
 3107TIP3    H230737   0.119   0.790  11.763 -0.0040 -0.7928 -0.8280
 3108TIP3   OH230738   1.346   2.797  10.527  0.4152  0.2280 -0.2300
 3108TIP3    H130739   1.341   2.866  10.461  1.4058 -1.9070 -2.7168
 3108TIP3    H230740   1.254   2.780  10.552 -0.3264 -0.8364 -3.3022
 3109TIP3   OH230741   0.977   1.395  11.988 -0.4004  0.4502  0.0168
 3109TIP3    H130742   0.899   1.450  11.978 -1.1853 -0.4982  0.7021
 3109TIP3    H230743   1.047   1.446  11.948 -1.4908  1.0331 -1.2618
 3110TIP3   OH230744   0.623   0.354  12.881 -0.5161 -0.4872 -0.2670
 3110TIP3    H130745   0.668   0.290  12.826  1.8250 -0.4093  1.4205
 3110TIP3    H230746   0.677   0.433  12.874 -3.1002  1.2753 -1.9567
 3111TIP3   OH230747   3.383   1.570  14.946 -0.3209  0.6015 -0.4283
 3111TIP3    H130748   3.355   1.498  15.002 -1.3133 -0.4221 -2.1647
 3111TIP3    H230749   3.453   1.612  14.995  0.1462 -1.4100  0.7466
 3112TIP3   OH230750   1.846   4.719   1.197  0.4189 -0.1090  0.0647
 3112TIP3    H130751   1.915   4.661   1.227  1.2976  1.0656  0.3980
 3112TIP3    H230752   1.877   4.755   1.114  0.8860  1.4943  0.8929
 3113TIP3   OH230753   5.809   3.683   4.752  0.0291  0.2463 -0.2688
 3113TIP3    H130754   5.812   3.710   4.661 -0.2177 -1.7677 -0.9172
 3113TIP3    H230755   5.716   3.681   4.774  0.0995  1.0322  0.1514
 3114TIP3   OH230756   1.999   5.333  11.604 -0.0047  0.1392  0.1656
 3114TIP3    H130757   2.082   5.374  11.627  0.1236  1.0045 -1.6657
 3114TIP3    H230758   2.013   5.240  11.618  0.3627  0.4887  2.4716
 3115TIP3   OH230759   1.731   0.541   4.074 -0.3852 -0.1398 -0.1180
 3115TIP3    H130760   1.811   0.580   4.109 -1.7843  2.7680  0.1229
 3115TIP3    H230761   1.678   0.522   4.151 -1.5361  1.8575 -0.3370
 3116TIP3   OH230762   3.781   3.207   6.167  0.0966 -0.3433  0.4889
 3116TIP3    H130763   3.685   3.204   6.159  0.0485  0.2280  0.7594
 3116TIP3    H230764   3.799   3.169   6.252  0.3225 -2.8570 -0.5907
 3117TIP3   OH230765   3.187   0.308   1.811 -0.3405  0.0270 -0.6044
 3117TIP3    H130766   3.267   0.282   1.766 -0.1412  0.1762 -0.3327
 3117TIP3    H230767   3.149   0.375   1.754  1.0511  1.8584  0.5285
 3118TIP3   OH230768   1.115   6.808   4.630 -0.7396  0.8011  0.7919
 3118TIP3    H130769   1.102   6.846   4.716 -2.7440  1.3304  0.2995
 3118TIP3    H230770   1.164   6.874   4.581 -1.9065  1.6433  0.7394
 3119TIP3   OH230771   5.240   2.346  11.530 -0.5666  0.0712  0.2784
 3119TIP3    H130772   5.302   2.300  11.473 -0.8380 -0.9908  0.8243
 3119TIP3    H230773   5.198   2.277  11.581 -0.2780  1.0082  1.8386
 3120TIP3   OH230774   5.673   5.859   1.541 -0.1751 -0.4751  0.3796
 3120TIP3    H130775   5.600   5.831   1.484  0.6813  0.4364 -1.2401
 3120TIP3    H230776   5.636   5.858   1.629 -2.2388  0.1698 -0.4149
 3121TIP3   OH230777   0.890   3.137   0.429  0.1908 -0.4679 -0.4325
 3121TIP3    H130778   0.965   3.088   0.462 -0.0550 -0.5074  0.0755
 3121TIP3    H230779   0.862   3.191   0.502 -0.1324 -0.2802 -0.6927
 3122TIP3   OH230780   0.842   3.660  15.987  0.7382  1.1890 -0.2429
 3122TIP3    H130781   0.792   3.638  15.909  2.7927 -0.3588 -1.2392
 3122TIP3    H230782   0.789   3.725  16.033 -1.8204  0.1339 -1.4939
 3123TIP3   OH230783   2.579   3.317   5.162 -0.3954  0.6836  0.2070
 3123TIP3    H130784   2.652   3.376   5.178  0.5470 -0.4911  0.3527
 3123TIP3    H230785   2.601   3.271   5.082 -0.9172  0.2363  0.3089
 3124TIP3   OH230786   1.155   5.265   0.497 -0.0704 -0.7244 -0.2529
 3124TIP3    H130787   1.123   5.243   0.410 -0.7460  1.8020 -0.7259
 3124TIP3    H230788   1.090   5.228   0.557  0.3561 -2.4030 -0.7708
 3125TIP3   OH230789   4.710   6.641   5.389 -0.1835 -0.3517 -0.0283
 3125TIP3    H130790   4.737   6.733   5.379 -2.3287  0.2289 -1.0682
 3125TIP3    H230791   4.780   6.591   5.347  0.4286  0.8858 -0.5511
 3126TIP3   OH230792   2.767   1.308   0.484  0.4535 -0.1105 -0.2983
 3126TIP3    H130793   2.799   1.258   0.559 -0.2879 -2.5734 -1.5158
 3126TIP3    H230794   2.752   1.242   0.416 -2.8398  1.4294 -1.2748
 3127TIP3   OH230795   4.789   6.255   2.574 -0.3182 -0.7823  0.7735
 3127TIP3    H130796   4.855   6.324   2.578 -1.3822  0.7352 -3.1781
 3127TIP3    H230797   4.716   6.289   2.625  0.3881 -0.5524  1.6512
 3128TIP3   OH230798   0.624   3.769  12.494  0.5387  0.8514 -0.5223
 3128TIP3    H130799   0.617   3.678  12.522 -0.6641  1.4288  1.3137
 3128TIP3    H230800   0.688   3.768  12.423  0.6587 -1.3861 -0.4595
 3129TIP3   OH230801   0.981   4.300   1.723 -0.4072 -0.2274 -0.3613
 3129TIP3    H130802   1.061   4.302   1.776  0.1103  4.1369 -0.9031
 3129TIP3    H230803   0.911   4.285   1.785  0.5393  0.4293  0.9217
 3130TIP3   OH230804   6.491   0.389  12.753  0.2441  0.1038  0.5499
 3130TIP3    H130805   6.503   0.410  12.660  1.0923 -1.2630  0.3300
 3130TIP3    H230806   6.549   0.315  12.769  1.8048  1.6764  2.7208
 3131TIP3   OH230807   1.170   4.222   0.416 -0.7829 -0.0139  0.1022
 3131TIP3    H130808   1.250   4.215   0.468 -1.1572 -0.6068  0.6171
 3131TIP3    H230809   1.193   4.181   0.333 -0.9082 -1.3529  0.6940
 3132TIP3   OH230810   2.584   5.227   0.830 -0.0203  0.1323  0.0892
 3132TIP3    H130811   2.525   5.256   0.900 -0.5817 -0.5652 -0.0728
 3132TIP3    H230812   2.530   5.231   0.751  0.7174  1.2561 -0.3687
 3133TIP3   OH230813   1.637   2.412   0.921 -0.2627 -0.5943 -0.1899
 3133TIP3    H130814   1.717   2.420   0.870  0.8943  1.3539  1.7704
 3133TIP3    H230815   1.576   2.472   0.878  0.3932  0.3124  0.1111
 3134TIP3   OH230816   0.439   0.352   5.063  0.0935 -0.1179  0.4330
 3134TIP3    H130817   0.511   0.415   5.058 -1.5586  1.8713  0.5026
 3134TIP3    H230818   0.419   0.331   4.972 -0.4468  0.7880  0.3370
 3135TIP3   OH230819   4.875   5.747   4.467  0.8642  0.0867  0.0687
 3135TIP3    H130820   4.938   5.787   4.406 -0.5014  0.1633 -1.3565
 3135TIP3    H230821   4.839   5.672   4.419 -1.7567  1.3431 -0.1189
 3136TIP3   OH230822   0.447   1.158  16.215 -0.4809  0.0344 -0.3044
 3136TIP3    H130823   0.430   1.163  16.120 -0.8911 -0.7035 -0.2740
 3136TIP3    H230824   0.367   1.119  16.251 -0.5004  0.6961  0.4049
 3137TIP3   OH230825   4.580   6.600  11.714 -0.1818  0.0624  0.1690
 3137TIP3    H130826   4.501   6.608  11.767 -0.2956 -0.1829  0.0347
 3137TIP3    H230827   4.651   6.600  11.778 -0.3276 -0.3964  0.3383
 3138TIP3   OH230828   5.796   0.443   3.918 -0.3486  0.7135 -0.2904
 3138TIP3    H130829   5.870   0.404   3.964  0.4964  0.7023 -1.6076
 3138TIP3    H230830   5.834   0.517   3.870 -1.2457  0.9120 -0.7262
 3139TIP3   OH230831   0.016   4.669  12.244  0.6054 -0.0646  0.3649
 3139TIP3    H130832   0.045   4.578  12.248  0.6714 -0.0220  0.8797
 3139TIP3    H230833  -0.034   4.683  12.324 -0.1635  0.1018 -0.1329
 3140TIP3   OH230834   0.333   6.814   5.474 -0.1654  0.0745 -0.8622
 3140TIP3    H130835   0.306   6.843   5.387  3.2448 -1.6266 -2.7103
 3140TIP3    H230836   0.416   6.859   5.489  0.3366 -1.2433  0.5513
 3141TIP3   OH230837   6.425   3.068   5.233  0.0314  0.5446 -0.2373
 3141TIP3    H130838   6.484   3.139   5.210 -1.1329  1.4512 -0.4939
 3141TIP3    H230839   6.337   3.107   5.230 -0.4502 -0.1615  2.3506
 3142TIP3   OH230840   4.707   0.420   0.342  0.3209  0.0564  0.5822
 3142TIP3    H130841   4.726   0.329   0.364  0.7878  0.1398  0.5267
 3142TIP3    H230842   4.765   0.441   0.269  0.4360  0.4915  0.7915
 3143TIP3   OH230843   0.899   5.986  14.508  0.3033  0.2542  0.3078
 3143TIP3    H130844   0.871   5.913  14.454  0.3165  0.0133  0.6231
 3143TIP3    H230845   0.871   5.963  14.597  2.6137 -0.6067  0.8753
 3144TIP3   OH230846   6.155   5.281  13.835 -0.4987 -0.1438 -0.1181
 3144TIP3    H130847   6.141   5.328  13.917 -1.0500  1.3620 -1.0197
 3144TIP3    H230848   6.250   5.285  13.821 -0.5618  1.0206 -0.3272
 3145TIP3   OH230849   0.504   4.596   2.255 -0.5262 -0.2029  0.1978
 3145TIP3    H130850   0.470   4.510   2.232 -2.3260  0.4869  0.1006
 3145TIP3    H230851   0.432   4.656   2.235  0.0080  1.1128  1.9753
 3146TIP3   OH230852   6.062   6.713   1.096  0.5406  0.0392 -0.7082
 3146TIP3    H130853   6.034   6.629   1.059  0.0021  0.5905 -1.5879
 3146TIP3    H230854   6.151   6.725   1.063  0.4369  0.0433 -0.9912
 3147TIP3   OH230855   3.090   1.298   3.651 -0.1389 -0.4498  0.3576
 3147TIP3    H130856   3.080   1.374   3.708  0.7935  0.4062 -0.5742
 3147TIP3    H230857   3.165   1.319   3.596 -1.1221 -1.1378 -1.3301
 3148TIP3   OH230858   5.772   5.953   5.156 -0.2597 -0.1037  0.2251
 3148TIP3    H130859   5.676   5.955   5.155 -0.2890 -0.5112 -1.2483
 3148TIP3    H230860   5.794   5.864   5.128  0.5608 -0.1889  1.0974
 3149TIP3   OH230861   3.395   5.907   6.370 -0.6446  0.2787 -0.9178
 3149TIP3    H130862   3.374   5.893   6.462  1.6456  1.3089 -0.1839
 3149TIP3    H230863   3.338   5.979   6.343 -2.0436 -0.6683 -0.6511
 3150TIP3   OH230864   6.305   5.711  11.847  0.0117 -0.6295  0.2098
 3150TIP3    H130865   6.343   5.691  11.933  1.7881  1.5585  0.0402
 3150TIP3    H230866   6.236   5.775  11.866 -0.5689 -1.2211  0.1161
 3151TIP3   OH230867   0.838   4.308  15.649 -0.1823 -0.0996  0.5760
 3151TIP3    H130868   0.764   4.323  15.590  0.4910  0.4204 -0.1531
 3151TIP3    H230869   0.832   4.379  15.713  1.9443  2.4912 -1.8079
 3152TIP3   OH230870   3.182   5.499   0.062 -0.1560  0.5815  0.0749
 3152TIP3    H130871   3.184   5.415   0.016  0.2832 -0.6011  2.1181
 3152TIP3    H230872   3.117   5.487   0.132  0.4832  1.6412  0.8855
 3153TIP3   OH230873   0.717   2.534  15.635  0.2374  0.0525  0.5271
 3153TIP3    H130874   0.755   2.619  15.613  0.0506  0.6965  2.5248
 3153TIP3    H230875   0.625   2.542  15.612  0.2715  0.3086  0.4778
 3154TIP3   OH230876   5.008   3.139   3.101 -0.3681  0.2601  0.1535
 3154TIP3    H130877   4.940   3.146   3.167  0.5655  0.9868  1.0571
 3154TIP3    H230878   4.971   3.080   3.035 -1.5611  0.0394  0.9936
 3155TIP3   OH230879   2.386   2.892   5.875  0.5125  0.0711  0.4570
 3155TIP3    H130880   2.390   2.987   5.878 -0.4963  0.2044 -1.2186
 3155TIP3    H230881   2.308   2.870   5.927 -0.7098  0.3831 -1.1424
 3156TIP3   OH230882   2.513   2.416  13.255 -0.2005 -0.2180 -0.3712
 3156TIP3    H130883   2.556   2.494  13.218  0.1446 -0.3843 -0.3257
 3156TIP3    H230884   2.582   2.372  13.304 -0.2689 -0.7989 -0.7811
 3157TIP3   OH230885   3.818   3.910   4.762  0.0343  0.2968 -0.3184
 3157TIP3    H130886   3.778   3.835   4.806  1.2577 -0.5459 -0.5901
 3157TIP3    H230887   3.847   3.876   4.678  3.1292  0.2370  0.6194
 3158TIP3   OH230888   3.725   1.866  13.889  0.4048 -0.2808  0.4426
 3158TIP3    H130889   3.761   1.872  13.977  0.2007 -0.1815  0.5200
 3158TIP3    H230890   3.687   1.778  13.885  0.0724 -0.1463  0.5866
 3159TIP3   OH230891   6.298   3.743  11.542  0.7907  0.1585 -0.1571
 3159TIP3    H130892   6.318   3.673  11.479 -0.2244  0.7549 -1.1633
 3159TIP3    H230893   6.243   3.804  11.494  0.1707  0.7470  1.2581
 3160TIP3   OH230894   4.487   0.093   3.821  0.5033  0.3397  0.0482
 3160TIP3    H130895   4.501   0.164   3.758  2.9626 -0.4870 -0.4482
 3160TIP3    H230896   4.457   0.019   3.768 -2.1739  0.9315  0.5806
 3161TIP3   OH230897   5.543   2.303  14.660 -0.0484 -0.4456  0.2820
 3161TIP3    H130898   5.462   2.344  14.630  0.3155 -1.0172 -1.6153
 3161TIP3    H230899   5.528   2.209  14.650 -0.2610 -0.7761  2.9769
 3162TIP3   OH230900   2.311   3.458   5.507  0.3073 -0.0545  0.5911
 3162TIP3    H130901   2.312   3.523   5.437  3.3701 -0.5508  0.0393
 3162TIP3    H230902   2.243   3.396   5.481  1.6170 -0.4706 -2.2373
 3163TIP3   OH230903   3.346   0.287  15.606 -0.1209  0.2333 -0.3467
 3163TIP3    H130904   3.322   0.201  15.639  1.3394 -0.4794 -1.0262
 3163TIP3    H230905   3.304   0.293  15.520  1.0029 -0.4741 -0.9742
 3164TIP3   OH230906   2.861   4.299   2.068  0.2859  0.0988 -0.1092
 3164TIP3    H130907   2.883   4.237   1.999 -1.3646 -0.0020 -0.5906
 3164TIP3    H230908   2.772   4.274   2.095 -0.4166  2.2020 -0.3058
 3165TIP3   OH230909   5.142   3.830  14.226  0.8630 -0.4218 -0.0148
 3165TIP3    H130910   5.179   3.742  14.235  0.3137 -0.6209  0.3449
 3165TIP3    H230911   5.097   3.845  14.309 -1.7823 -1.0886 -1.2379
 3166TIP3   OH230912   0.818   3.925  10.539 -0.4300 -0.6699 -0.3378
 3166TIP3    H130913   0.894   3.981  10.559  1.5324 -3.5040  0.7429
 3166TIP3    H230914   0.816   3.921  10.444 -0.0697  0.4858 -0.4137
 3167TIP3   OH230915   0.036   6.722  11.904 -0.0309 -0.1332 -0.5976
 3167TIP3    H130916   0.118   6.747  11.863  0.6786 -1.7282 -0.2259
 3167TIP3    H230917   0.060   6.654  11.967 -1.6226 -0.6029 -0.4376
 3168TIP3   OH230918   2.818   0.811  14.259 -0.1389 -0.0085 -0.2805
 3168TIP3    H130919   2.730   0.823  14.222  0.1235  2.5058 -0.2853
 3168TIP3    H230920   2.826   0.717  14.273 -1.7968 -0.6170 -2.8081
 3169TIP3   OH230921   5.986   3.766  14.345 -0.0203  0.2716  0.0834
 3169TIP3    H130922   6.016   3.755  14.435  0.3153  2.1631  0.2471
 3169TIP3    H230923   6.058   3.813  14.302 -0.7770  0.6691 -0.7776
 3170TIP3   OH230924   0.386   5.995  15.326  0.2728  0.2231  0.2746
 3170TIP3    H130925   0.450   5.941  15.372 -0.8734 -1.9274 -0.5105
 3170TIP3    H230926   0.438   6.046  15.264  1.3525 -0.3824  0.6468
 3171TIP3   OH230927   5.602   1.725  11.358  0.0212  0.0016  0.0352
 3171TIP3    H130928   5.509   1.733  11.336 -0.3649 -0.3542  1.4734
 3171TIP3    H230929   5.617   1.630  11.366 -0.2851  0.1197  2.9004
 3172TIP3   OH230930   1.711   4.934  11.285 -0.1960  0.6719  0.4987
 3172TIP3    H130931   1.796   4.975  11.303 -0.8208  1.6613  1.3067
 3172TIP3    H230932   1.716   4.849  11.328  0.9112  0.1016 -0.7087
 3173TIP3   OH230933   0.877   5.603   5.215  0.5593 -0.4797 -0.8027
 3173TIP3    H130934   0.838   5.604   5.127  0.8001 -1.5461 -0.9428
 3173TIP3    H230935   0.902   5.693   5.232 -2.9298  0.5227 -0.2448
 3174TIP3   OH230936   3.655   3.157   2.781  0.2458 -0.1851  0.4043
 3174TIP3    H130937   3.722   3.225   2.776 -0.7492  0.7687 -0.7395
 3174TIP3    H230938   3.703   3.074   2.772  1.3688  0.4126  0.7450
 3175TIP3   OH230939   3.131   4.651   4.630  0.5947 -0.1593 -0.4576
 3175TIP3    H130940   3.105   4.743   4.623  1.8298  0.1999 -0.5819
 3175TIP3    H230941   3.190   4.648   4.705  0.8357 -0.7842 -0.6612
 3176TIP3   OH230942   0.745   6.687   5.088  0.4390  0.0514 -0.2271
 3176TIP3    H130943   0.782   6.666   5.002  0.5582  1.5117 -0.5708
 3176TIP3    H230944   0.703   6.772   5.075  0.9610  0.5731  1.3115
 3177TIP3   OH230945   2.345   0.647  11.125 -0.0785 -0.0749  0.3485
 3177TIP3    H130946   2.377   0.566  11.166  1.3105  0.9452  1.3656
 3177TIP3    H230947   2.310   0.618  11.041  0.1090 -1.7759  0.8031
 3178TIP3   OH230948   6.008   0.667  13.825  0.3181 -0.1711 -0.2280
 3178TIP3    H130949   5.993   0.667  13.731  2.1384 -2.4043 -0.6028
 3178TIP3    H230950   6.103   0.670  13.835  0.1678  0.0276  1.5498
 3179TIP3   OH230951   5.968   0.982   6.496 -0.2044 -0.1855 -0.4498
 3179TIP3    H130952   5.968   1.066   6.449 -1.5620 -0.8501 -1.7183
 3179TIP3    H230953   5.876   0.955   6.497  0.0625 -1.1718  0.8914
 3180TIP3   OH230954   1.040   5.477  12.224 -0.0666  0.1752  0.8201
 3180TIP3    H130955   1.123   5.510  12.260  0.6500 -1.2368  0.5155
 3180TIP3    H230956   1.058   5.464  12.131 -1.0358  1.0613  0.4936
 3181TIP3   OH230957   0.123   2.812   4.289  0.0629  0.1628 -0.6726
 3181TIP3    H130958   0.067   2.815   4.211 -1.1180  1.0470  0.1616
 3181TIP3    H230959   0.121   2.721   4.317 -1.8310  0.3419 -0.0948
 3182TIP3   OH230960   1.288   2.319   2.718  0.8095  0.2115 -0.2748
 3182TIP3    H130961   1.331   2.305   2.634  0.6431  0.2690 -0.3706
 3182TIP3    H230962   1.283   2.414   2.728  1.1933  0.2069 -0.0098
 3183TIP3   OH230963   6.054   5.564   5.109  0.1778 -0.6135 -0.7213
 3183TIP3    H130964   6.079   5.516   5.188 -0.1996 -1.4520 -1.1009
 3183TIP3    H230965   5.960   5.575   5.116  0.1347 -0.7426 -1.0765
 3184TIP3   OH230966   3.909   3.640   5.495  0.3098  0.2787  0.1315
 3184TIP3    H130967   3.838   3.656   5.433  2.1243  0.1608 -2.1339
 3184TIP3    H230968   3.873   3.575   5.556 -2.2537  1.9612  0.5703
 3185TIP3   OH230969   0.051   6.497  15.997 -0.8490 -0.3279 -0.3694
 3185TIP3    H130970   0.040   6.420  16.053 -1.8096 -0.1427 -0.2809
 3185TIP3    H230971   0.089   6.563  16.054 -0.4814 -0.5834 -0.3169
 3186TIP3   OH230972   4.353   2.436  15.064  0.1220  0.5155  0.1524
 3186TIP3    H130973   4.294   2.430  14.989 -0.9865  3.5472  0.6197
 3186TIP3    H230974   4.313   2.379  15.130 -0.7504  0.3863 -0.4552
 3187TIP3   OH230975   0.822   2.946  16.499 -0.2808 -0.1083 -0.3021
 3187TIP3    H130976   0.912   2.917  16.485 -0.3304 -0.5058  0.1482
 3187TIP3    H230977   0.820   3.036  16.466  0.7834  0.5758  1.3570
 3188TIP3   OH230978   4.918   4.492   4.249 -0.6512  0.4761  0.2648
 3188TIP3    H130979   4.936   4.400   4.229  1.5418  0.7536  0.7377
 3188TIP3    H230980   4.823   4.496   4.256 -0.8704 -1.5401 -0.7595
 3189TIP3   OH230981   2.309   6.103  12.727 -0.4557  0.1414 -0.0726
 3189TIP3    H130982   2.279   6.179  12.777 -1.8223  0.2531 -0.9903
 3189TIP3    H230983   2.391   6.132  12.687 -0.6388  0.9305  0.0937
 3190TIP3   OH230984   0.986   2.109   2.217 -0.6336 -0.0270  0.1223
 3190TIP3    H130985   1.033   2.065   2.146  1.5552 -0.9153  2.0023
 3190TIP3    H230986   1.032   2.192   2.229 -0.0023 -0.5421  1.4464
 3191TIP3   OH230987   4.439   6.358  12.863  0.0132 -0.3900  0.5402
 3191TIP3    H130988   4.379   6.327  12.796 -0.1684 -0.4888  0.7463
 3191TIP3    H230989   4.381   6.387  12.934  0.1691  0.4902  0.3222
 3192TIP3   OH230990   1.271   5.441  17.015 -0.2359  0.2872  0.0764
 3192TIP3    H130991   1.360   5.444  16.978 -0.1294  0.6681  0.3587
 3192TIP3    H230992   1.228   5.371  16.966 -0.1255  0.8344 -0.8369
 3193TIP3   OH230993   1.875   3.592   0.336  0.4063 -0.2034  0.0402
 3193TIP3    H130994   1.825   3.669   0.360  1.1942  0.9498 -1.7556
 3193TIP3    H230995   1.904   3.555   0.419 -0.5565  1.0332  0.9697
 3194TIP3   OH230996   0.109   6.699   2.742 -0.1294 -0.0106 -0.4856
 3194TIP3    H130997   0.080   6.711   2.651 -1.8176 -0.3972 -0.0380
 3194TIP3    H230998   0.047   6.635   2.778  1.8331 -1.5285  0.3496
 3195TIP3   OH230999   5.821   2.536  15.412 -0.5792 -0.3772 -0.3585
 3195TIP3    H131000   5.769   2.598  15.360 -2.3825  0.3699  2.0901
 3195TIP3    H231001   5.777   2.452  15.399 -0.9355 -0.2229 -0.1793
 3196TIP3   OH231002   1.269   5.208   4.921 -0.4844  0.2812 -0.1982
 3196TIP3    H131003   1.198   5.267   4.948  0.0329  0.4820  0.7745
 3196TIP3    H231004   1.322   5.260   4.861 -0.4255  0.5776  0.1048
 3197TIP3   OH231005   5.268   4.709   4.594  0.2241 -0.0958  0.0673
 3197TIP3    H131006   5.197   4.721   4.531 -0.2280  1.3503  0.8002
 3197TIP3    H231007   5.226   4.723   4.679  1.3983  0.8318  0.5112
 3198TIP3   OH231008   4.349   6.418  13.902  0.0442  0.9660 -0.4802
 3198TIP3    H131009   4.366   6.481  13.972 -0.3907  1.0722 -0.4718
 3198TIP3    H231010   4.419   6.434  13.838  1.0829  0.1585  0.4070
 3199TIP3   OH231011   5.532   4.392   2.629 -0.2797  0.7596 -0.6997
 3199TIP3    H131012   5.591   4.451   2.583  0.1448  0.3080 -0.7470
 3199TIP3    H231013   5.484   4.447   2.691  1.1915  0.9088  0.3370
 3200TIP3   OH231014   4.777   0.794   2.804 -0.4369 -0.0129 -0.3419
 3200TIP3    H131015   4.748   0.748   2.882 -1.6536 -0.3710 -0.9890
 3200TIP3    H231016   4.741   0.743   2.731 -0.4754  1.0715 -1.1026
 3201TIP3   OH231017   6.531   4.919  11.541 -0.0200  0.3239  0.0377
 3201TIP3    H131018   6.470   4.867  11.489 -1.4757  1.4229  0.5577
 3201TIP3    H231019   6.609   4.927  11.487 -0.0765 -1.6084 -0.4183
 3202TIP3   OH231020   3.120   5.661  10.475  0.6506 -0.2495 -0.7245
 3202TIP3    H131021   3.028   5.670  10.501  0.9229 -0.9601  0.5700
 3202TIP3    H231022   3.156   5.597  10.537  2.1083  0.2956 -0.9789
 3203TIP3   OH231023   0.409   5.360  16.897  0.2017 -0.5338  0.4956
 3203TIP3    H131024   0.418   5.446  16.938  2.9173 -1.5380  2.3479
 3203TIP3    H231025   0.341   5.316  16.948 -0.9707  0.3547 -0.2585
 3204TIP3   OH231026   2.479   0.236  13.234  0.5094  0.2356  0.1582
 3204TIP3    H131027   2.422   0.312  13.229 -1.3518 -1.0800  0.1765
 3204TIP3    H231028   2.503   0.230  13.326  1.1750  1.1101  0.0588
 3205TIP3   OH231029   4.654   1.140   4.912  0.4812  0.4937 -0.2292
 3205TIP3    H131030   4.681   1.072   4.974  0.1922 -0.8458 -1.5184
 3205TIP3    H231031   4.576   1.178   4.951 -0.4056 -1.1640 -0.2838
 3206TIP3   OH231032   1.819   1.051   5.454 -0.3460  0.1039 -0.0901
 3206TIP3    H131033   1.755   1.113   5.488 -0.0967 -0.0688  0.7304
 3206TIP3    H231034   1.903   1.096   5.461 -0.2513 -0.0595 -0.1640
 3207TIP3   OH231035   0.929   5.947  13.971 -0.0616 -0.4388  0.0102
 3207TIP3    H131036   0.916   6.041  13.983  0.7367 -0.1963 -0.8943
 3207TIP3    H231037   0.843   5.909  13.988 -0.5834  0.5289 -0.3806
 3208TIP3   OH231038   2.680   3.232   2.131 -0.0710 -0.1167 -0.0685
 3208TIP3    H131039   2.628   3.152   2.119 -0.9044  0.3298  0.4152
 3208TIP3    H231040   2.653   3.289   2.059  0.0900 -0.0503 -0.0765
 3209TIP3   OH231041   1.731   5.723   6.368  0.4407  0.3556 -0.1766
 3209TIP3    H131042   1.798   5.774   6.413 -0.5482 -0.4922  2.4891
 3209TIP3    H231043   1.685   5.786   6.313 -0.3728  2.3154  2.5226
 3210TIP3   OH231044   3.995   4.395   0.672  0.2313  0.1098  0.1308
 3210TIP3    H131045   3.910   4.351   0.677  0.5941 -1.0428 -2.2400
 3210TIP3    H231046   4.058   4.327   0.696  0.6030  0.2390 -0.4447
 3211TIP3   OH231047   4.675   1.972   1.182  0.0122  0.2455 -0.0798
 3211TIP3    H131048   4.601   1.957   1.241 -0.5594  0.1659 -0.8061
 3211TIP3    H231049   4.715   1.886   1.172  1.0591  0.5223  1.4038
 3212TIP3   OH231050   2.340   5.082  15.726 -0.2592  0.4233 -0.1392
 3212TIP3    H131051   2.292   5.118  15.800 -0.8150 -0.0011 -0.2850
 3212TIP3    H231052   2.289   5.005  15.699  0.0095  0.4942 -0.8743
 3213TIP3   OH231053   4.040   2.381  12.652  0.4356 -0.0923  0.1903
 3213TIP3    H131054   3.955   2.377  12.607 -0.4099 -0.6522  1.7506
 3213TIP3    H231055   4.103   2.401  12.583 -0.7376 -1.3082 -1.2949
 3214TIP3   OH231056   6.584   1.516  13.860 -0.3664  0.3104  0.0375
 3214TIP3    H131057   6.518   1.576  13.894  1.2430  2.0445  0.2933
 3214TIP3    H231058   6.645   1.504  13.932 -0.6080 -1.6712 -0.0240
 3215TIP3   OH231059   6.446   4.872   0.042  0.3520  0.2193  0.3583
 3215TIP3    H131060   6.533   4.847   0.072  1.5957  0.5000 -2.6482
 3215TIP3    H231061   6.451   4.866  -0.054 -3.1638 -0.4208  0.0940
 3216TIP3   OH231062   4.658   1.701  13.240 -0.2829  0.3081  0.1037
 3216TIP3    H131063   4.730   1.756  13.273 -1.5675  3.0482 -1.3245
 3216TIP3    H231064   4.700   1.617  13.219  1.9849  0.9728  1.5642
 3217TIP3   OH231065   5.200   1.996  13.454 -0.1231 -0.2547  0.0124
 3217TIP3    H131066   5.281   2.043  13.435  0.2913 -1.2200 -0.7242
 3217TIP3    H231067   5.144   2.015  13.378  0.2647 -1.3899 -0.5756
 3218TIP3   OH231068   2.514   4.830  15.764  0.0693  0.1970  0.2791
 3218TIP3    H131069   2.480   4.887  15.832  1.8036  1.0340  0.4945
 3218TIP3    H231070   2.543   4.889  15.695 -0.8877 -0.6005 -0.8610
 3219TIP3   OH231071   0.833   6.691   5.337 -0.9019 -0.3171  0.5735
 3219TIP3    H131072   0.792   6.694   5.251 -0.5293 -0.4612  0.3892
 3219TIP3    H231073   0.922   6.722   5.323 -0.8773 -0.2179  0.9302
 3220TIP3   OH231074   2.338   0.482  13.243 -0.3657 -0.2962  0.3857
 3220TIP3    H131075   2.395   0.546  13.287 -0.9061  0.0184  0.6376
 3220TIP3    H231076   2.278   0.535  13.192 -0.6254 -0.6173  0.3589
 3221TIP3   OH231077   5.609   1.967  13.524 -0.2078  0.2461 -0.5046
 3221TIP3    H131078   5.631   1.889  13.575 -0.5900  0.6801  0.3393
 3221TIP3    H231079   5.693   1.999  13.493  0.1766  0.6613  0.8862
 3222TIP3   OH231080   4.948   2.211   6.023 -0.1441 -0.0498  0.4700
 3222TIP3    H131081   4.989   2.216   5.936  0.8956  2.0396  1.0102
 3222TIP3    H231082   4.855   2.221   6.007  0.0637  0.5919 -0.3939
 3223TIP3   OH231083   4.229   1.472   1.327 -0.7063  0.3197 -0.0982
 3223TIP3    H131084   4.193   1.559   1.311 -3.8820 -1.1983 -2.2285
 3223TIP3    H231085   4.303   1.465   1.268 -0.6479  1.4138 -0.1754
 3224TIP3   OH231086   1.799   5.378  11.405 -0.2908  0.1291 -0.1651
 3224TIP3    H131087   1.862   5.352  11.472 -0.6745 -0.9700 -0.2063
 3224TIP3    H231088   1.844   5.445  11.353  1.4647 -1.7397 -1.1896
 3225TIP3   OH231089   0.664   2.979  15.407  0.0657  0.1296  0.2655
 3225TIP3    H131090   0.578   2.942  15.391  0.2936 -0.2117 -0.2102
 3225TIP3    H231091   0.716   2.953  15.331  0.5994  0.2919  0.5663
 3226TIP3   OH231092   5.344   2.805  16.875  0.0865  0.0283  0.7519
 3226TIP3    H131093   5.334   2.749  16.952  0.4773  0.1472  0.8926
 3226TIP3    H231094   5.409   2.759  16.821  0.3062  0.2791  0.8041
 3227TIP3   OH231095   3.114   3.413   2.829  0.2304 -0.0327 -0.2351
 3227TIP3    H131096   3.198   3.458   2.821  0.1924  0.1287  0.2184
 3227TIP3    H231097   3.128   3.349   2.899 -0.0794  0.1308 -0.0230
 3228TIP3   OH231098   5.460   5.818  11.421  0.2041 -0.3016  0.4227
 3228TIP3    H131099   5.423   5.823  11.510 -1.8167 -1.5709 -0.2669
 3228TIP3    H231100   5.412   5.884  11.372  0.7105 -0.1891  0.0737
 3229TIP3   OH231101   5.644   5.960   4.779 -0.5713 -0.2148 -0.3464
 3229TIP3    H131102   5.662   6.053   4.785 -1.3271 -0.1639  2.3714
 3229TIP3    H231103   5.724   5.923   4.741  0.2880  1.3772 -0.1843
 3230TIP3   OH231104   3.769   1.612  13.072  0.3951  0.5986 -0.4984
 3230TIP3    H131105   3.856   1.619  13.031  0.4828  0.7883 -0.2843
 3230TIP3    H231106   3.737   1.702  13.073  0.2258  0.5374 -0.5123
 3231TIP3   OH231107   2.842   3.595  13.172 -0.1128  0.4727 -0.2340
 3231TIP3    H131108   2.861   3.516  13.222 -2.0812 -0.1866 -0.4312
 3231TIP3    H231109   2.918   3.606  13.114  0.4628 -0.9318  0.2144
 3232TIP3   OH231110   6.435   4.948   2.350 -0.6494 -0.0732  0.0188
 3232TIP3    H131111   6.520   4.931   2.392  0.5867  4.0419 -0.3938
 3232TIP3    H231112   6.371   4.925   2.416  0.5670 -3.8733  0.1616
 3233TIP3   OH231113   3.385   6.044  14.045 -0.1836 -0.0340 -0.1849
 3233TIP3    H131114   3.397   6.113  14.111 -1.1879 -0.2854  0.2853
 3233TIP3    H231115   3.348   6.090  13.969  0.1909  0.1200 -0.2768
 3234TIP3   OH231116   2.689   3.372  12.461  0.6264  0.2443  0.2299
 3234TIP3    H131117   2.686   3.356  12.555 -1.3698  2.6909  0.7064
 3234TIP3    H231118   2.720   3.462  12.453 -1.2819  0.8468 -1.2504
 3235TIP3   OH231119   1.674   2.787  16.762 -0.7546 -0.5445 -1.3032
 3235TIP3    H131120   1.596   2.796  16.816 -0.4694  1.4379 -1.1469
 3235TIP3    H231121   1.652   2.719  16.698 -1.8650 -1.4127 -0.0305
 3236TIP3   OH231122   0.607   3.349  11.070 -0.8417 -0.9107  0.5643
 3236TIP3    H131123   0.587   3.258  11.090 -2.6170 -0.1923  2.4414
 3236TIP3    H231124   0.566   3.364  10.984 -1.6648 -1.5531  0.8290
 3237TIP3   OH231125   4.508   5.982  15.561  0.4742 -0.5823  0.3446
 3237TIP3    H131126   4.574   5.989  15.492  0.6299 -0.8543  0.4669
 3237TIP3    H231127   4.536   6.044  15.628 -1.6147  2.5172 -1.3922
 3238TIP3   OH231128   3.387   3.419   0.834  0.5085  0.3014  0.3170
 3238TIP3    H131129   3.346   3.333   0.822  2.2124 -0.3597 -1.3977
 3238TIP3    H231130   3.360   3.469   0.757  0.2413  1.0272  0.8679
 3239TIP3   OH231131   0.935   5.850   4.676 -0.6514  0.3594 -0.7614
 3239TIP3    H131132   1.016   5.876   4.631 -0.0051 -0.9733 -0.4211
 3239TIP3    H231133   0.955   5.861   4.769 -0.4966 -0.8977 -0.6270
 3240TIP3   OH231134   1.176   1.515   4.411 -0.2246 -0.0190 -0.1396
 3240TIP3    H131135   1.112   1.585   4.403 -0.5574 -0.1559  1.1058
 3240TIP3    H231136   1.261   1.559   4.403 -0.4507  0.2951 -0.8556
 3241TIP3   OH231137   6.300   2.396   4.406  0.6254  0.2496 -0.0039
 3241TIP3    H131138   6.265   2.483   4.388 -1.5741 -0.7459 -0.8297
 3241TIP3    H231139   6.388   2.398   4.370  0.8327  2.2691  0.4560
 3242TIP3   OH231140   2.166   4.194  13.171 -0.3874 -0.7894 -0.1341
 3242TIP3    H131141   2.180   4.179  13.077  0.5929 -0.8819  0.0204
 3242TIP3    H231142   2.229   4.137  13.214 -0.0733  0.0589  0.5577
 3243TIP3   OH231143   0.680   0.167   2.897 -0.0823 -0.2921  0.0827
 3243TIP3    H131144   0.687   0.079   2.860  0.3761  0.5487 -1.9685
 3243TIP3    H231145   0.589   0.193   2.879 -0.5120 -0.6835  1.5683
 3244TIP3   OH231146   4.675   4.502   5.520 -0.3095 -0.3925 -0.0822
 3244TIP3    H131147   4.617   4.431   5.546 -0.5150 -0.5049 -0.8321
 3244TIP3    H231148   4.704   4.479   5.431  1.6899 -0.8585  0.6266
 3245TIP3   OH231149   3.295   0.568   0.970  0.7511 -0.0995 -0.3518
 3245TIP3    H131150   3.304   0.663   0.956 -0.2316  0.2286  0.9817
 3245TIP3    H231151   3.375   0.544   1.017  1.4874 -0.1590 -1.5840
 3246TIP3   OH231152   4.523   0.004  13.041 -0.0171  0.0254 -0.4069
 3246TIP3    H131153   4.522  -0.009  13.136 -0.5047 -0.2562 -0.4481
 3246TIP3    H231154   4.489  -0.078  13.006  1.4895 -0.4295 -0.8865
 3247TIP3   OH231155   2.762   5.561   2.623  0.0158 -0.0229 -0.1024
 3247TIP3    H131156   2.723   5.529   2.541 -1.2195 -0.6402  0.7006
 3247TIP3    H231157   2.733   5.499   2.689 -0.0218  1.1529  1.0176
 3248TIP3   OH231158   3.542   2.694   0.572 -0.0420 -0.2451 -0.8622
 3248TIP3    H131159   3.552   2.699   0.667 -0.2798 -1.6247 -0.7484
 3248TIP3    H231160   3.595   2.767   0.539 -1.0008  1.0664  0.3699
 3249TIP3   OH231161   2.869   3.551   0.008  0.3379 -0.1880  0.6856
 3249TIP3    H131162   2.868   3.602  -0.072  0.6021 -1.7841 -0.3901
 3249TIP3    H231163   2.944   3.585   0.057  0.6674  0.2647 -0.1196
 3250TIP3   OH231164   3.422   1.097   0.665  0.3653  0.1266  0.0099
 3250TIP3    H131165   3.364   1.140   0.729  0.6860  0.5458  0.0204
 3250TIP3    H231166   3.427   1.159   0.592 -1.3663 -1.0526 -1.2133
 3251TIP3   OH231167   3.916   0.206   3.337 -0.4051  0.4189  0.1169
 3251TIP3    H131168   3.867   0.181   3.415  0.4977 -0.8546  0.3074
 3251TIP3    H231169   3.861   0.175   3.264 -1.0992  1.3351  0.2312
 3252TIP3   OH231170   1.621   1.664  12.178  0.5147  0.1519 -0.6660
 3252TIP3    H131171   1.689   1.602  12.204  0.1346 -0.1842 -0.4725
 3252TIP3    H231172   1.554   1.656  12.246 -1.4179 -2.1341 -2.6790
 3253TIP3   OH231173   2.064   0.575  16.779 -0.2107  0.2169  0.3399
 3253TIP3    H131174   2.097   0.485  16.782  0.3256  0.3263 -1.1578
 3253TIP3    H231175   2.000   0.575  16.708 -1.1275  0.7570  1.1394
 3254TIP3   OH231176   6.462   4.389   4.118 -0.0167 -0.0589  0.3854
 3254TIP3    H131177   6.525   4.400   4.046 -0.1567  2.0614  0.5178
 3254TIP3    H231178   6.461   4.474   4.162 -2.7637 -0.1070  0.5784
 3255TIP3   OH231179   5.512   3.297  12.029  0.1133 -0.0478 -0.3624
 3255TIP3    H131180   5.463   3.255  11.958  0.0802  0.7667 -0.8341
 3255TIP3    H231181   5.546   3.378  11.991  3.7718 -1.5809 -0.7497
 3256TIP3   OH231182   0.420   4.809   4.158  0.2061 -0.6381  0.1739
 3256TIP3    H131183   0.468   4.870   4.215 -1.2885  1.3244 -0.5894
 3256TIP3    H231184   0.482   4.788   4.088  0.8146 -0.1706  0.5585
 3257TIP3   OH231185   6.211   5.674  16.890 -0.5602 -0.1504 -0.5344
 3257TIP3    H131186   6.201   5.688  16.984 -0.3399 -1.9955 -0.2092
 3257TIP3    H231187   6.258   5.752  16.859 -0.5158  0.4131  0.8900
 3258TIP3   OH231188   3.696   5.861   6.055  0.4341  0.2594  0.0576
 3258TIP3    H131189   3.706   5.871   5.961  1.8660  0.9063  0.2460
 3258TIP3    H231190   3.769   5.805   6.082  1.5704  2.1035  1.0698
 3259TIP3   OH231191   1.521   1.543  13.025 -0.2097 -0.5600  0.5455
 3259TIP3    H131192   1.529   1.602  12.950 -0.9394 -1.2363 -0.0976
 3259TIP3    H231193   1.429   1.517  13.025 -0.0157 -1.2896  1.1169
 3260TIP3   OH231194   3.522   4.450  14.675 -0.1388 -0.1165  0.5766
 3260TIP3    H131195   3.537   4.359  14.649  0.4044 -0.1657  1.0370
 3260TIP3    H231196   3.548   4.502  14.599  0.6222 -0.3005  0.6971
 3261TIP3   OH231197   2.736   0.406   1.321  0.1841 -0.0618 -0.1590
 3261TIP3    H131198   2.775   0.435   1.404  0.7092 -0.6671 -0.1850
 3261TIP3    H231199   2.646   0.439   1.324 -0.0265 -0.6737  0.9679
 3262TIP3   OH231200   0.656   4.529  17.021 -0.1707  0.0602 -0.0107
 3262TIP3    H131201   0.572   4.552  16.979 -0.4673 -0.1824  0.4491
 3262TIP3    H231202   0.720   4.539  16.951 -0.3153  1.9959  0.0636
 3263TIP3   OH231203   0.744   0.143  11.733 -0.7478 -0.5627  0.6746
 3263TIP3    H131204   0.738   0.222  11.680  0.6275 -1.0949 -0.3659
 3263TIP3    H231205   0.804   0.166  11.804  0.6420 -0.9626 -0.3133
 3264TIP3   OH231206   2.351   4.738  12.368  0.0361 -0.4213 -0.5237
 3264TIP3    H131207   2.323   4.698  12.286 -1.3316 -1.4524  0.4036
 3264TIP3    H231208   2.421   4.681  12.400  0.9296  0.2702 -1.1984
 3265TIP3   OH231209   0.024   5.644  17.066 -0.4868  0.0988  0.1279
 3265TIP3    H131210   0.021   5.680  17.155  0.7457 -0.9024  0.6087
 3265TIP3    H231211  -0.055   5.590  17.060 -1.5363  1.6010 -0.0636
 3266TIP3   OH231212   0.981   2.681  13.346 -0.6648 -0.8206  0.6003
 3266TIP3    H131213   0.983   2.587  13.331 -0.1414 -0.7386  0.0973
 3266TIP3    H231214   1.049   2.716  13.287 -2.2273  0.0806 -0.7373
 3267TIP3   OH231215   5.482   5.555  11.370 -0.1893  0.4048  0.2261
 3267TIP3    H131216   5.498   5.645  11.398 -2.2315  0.1292  2.5331
 3267TIP3    H231217   5.455   5.509  11.449  0.6289 -2.2516 -0.9130
 3268TIP3   OH231218   1.991   0.662  15.280  0.3556  0.1113 -0.1474
 3268TIP3    H131219   2.010   0.690  15.370  0.3097 -1.1673  0.2773
 3268TIP3    H231220   1.898   0.681  15.269  0.0926 -0.7438  0.4790
 3269TIP3   OH231221   5.282   3.502  16.900  0.7843  0.3892  0.2641
 3269TIP3    H131222   5.263   3.415  16.934  0.7205  0.3995  0.2555
 3269TIP3    H231223   5.328   3.546  16.972  1.3019  0.1682  0.0758
 3270TIP3   OH231224   4.517   5.748   3.438 -0.0842 -0.2279  0.0565
 3270TIP3    H131225   4.441   5.778   3.488  0.0250  0.6882 -0.2912
 3270TIP3    H231226   4.539   5.823   3.382  2.2025  0.2087  1.4374
 3271TIP3   OH231227   3.300   4.556  11.498 -0.7369  0.1713 -0.3148
 3271TIP3    H131228   3.395   4.568  11.497 -0.5061 -1.1174  1.2523
 3271TIP3    H231229   3.272   4.570  11.408  0.4946  3.6036 -0.2681
 3272TIP3   OH231230   6.248   6.474  10.216 -0.4261 -0.6123 -0.0100
 3272TIP3    H131231   6.338   6.441  10.214 -0.6265 -1.3245  1.6902
 3272TIP3    H231232   6.197   6.407  10.170 -0.0397  0.1197 -1.6008
 3273TIP3   OH231233   4.241   6.453  15.293  0.0174  0.2367  0.3998
 3273TIP3    H131234   4.151   6.484  15.281  0.7610  3.1661  1.4005
 3273TIP3    H231235   4.269   6.426  15.206 -0.7150  2.8203 -0.7484
 3274TIP3   OH231236   3.001   5.088  14.658  0.0632  0.6913  0.0860
 3274TIP3    H131237   3.044   5.004  14.673 -2.9977 -0.9231  0.6555
 3274TIP3    H231238   2.988   5.093  14.564 -1.2252 -0.3518  0.1793
 3275TIP3   OH231239   0.695   6.389  12.324 -0.3021 -0.3792  0.2711
 3275TIP3    H131240   0.733   6.472  12.353 -0.7911  1.2345 -3.1150
 3275TIP3    H231241   0.769   6.328  12.321  0.0285 -0.2295  3.0191
 3276TIP3   OH231242   5.784   2.150  14.425 -0.1322 -0.1573 -0.7063
 3276TIP3    H131243   5.800   2.062  14.392  0.0414 -0.7383  0.8429
 3276TIP3    H231244   5.719   2.138  14.495  0.9652  0.7210  0.5271
 3277TIP3   OH231245   5.592   5.124   1.006  0.0216  0.4599 -0.0299
 3277TIP3    H131246   5.671   5.174   0.990  0.1029  0.1864 -0.5016
 3277TIP3    H231247   5.547   5.121   0.922  0.9747 -1.8864 -0.5438
 3278TIP3   OH231248   2.755   1.873  14.268 -0.3530  0.3368  0.2658
 3278TIP3    H131249   2.668   1.835  14.280 -0.0198 -0.3788  0.5048
 3278TIP3    H231250   2.788   1.886  14.357  0.5986 -1.3618  0.2010
 3279TIP3   OH231251   0.124   3.911   3.544  0.0168  0.5095 -0.3616
 3279TIP3    H131252   0.141   3.933   3.452  1.5872  1.4759  0.1141
 3279TIP3    H231253   0.165   3.825   3.556  0.8342  0.8964 -0.3031
 3280TIP3   OH231254   5.273   4.327   5.968  0.1406 -0.2123 -0.6923
 3280TIP3    H131255   5.262   4.354   6.059  0.2355 -0.3363 -0.6446
 3280TIP3    H231256   5.336   4.255   5.971  0.1312 -0.2286 -0.8542
 3281TIP3   OH231257   1.306   0.838   5.375  0.4566  0.5231  0.0721
 3281TIP3    H131258   1.380   0.865   5.321  0.5750 -0.0044 -0.0296
 3281TIP3    H231259   1.335   0.856   5.465  0.8403  0.0126  0.0550
 3282TIP3   OH231260   6.046   3.325   4.223  0.4480  0.3325  0.3399
 3282TIP3    H131261   6.032   3.256   4.159  0.9003  1.5565 -1.1261
 3282TIP3    H231262   5.977   3.389   4.206  0.1767  0.3762  1.5161
 3283TIP3   OH231263   0.393   0.102  13.651 -0.4970 -0.1100 -0.1895
 3283TIP3    H131264   0.324   0.153  13.693 -1.2104 -1.9858  1.0398
 3283TIP3    H231265   0.453   0.168  13.616 -2.1515  1.5662 -0.0505
 3284TIP3   OH231266   2.774   5.067   1.125 -0.3307  0.1783 -0.3903
 3284TIP3    H131267   2.700   5.127   1.119 -1.0378 -0.5372  0.7191
 3284TIP3    H231268   2.851   5.123   1.121 -0.9588  1.0486 -0.4561
 3285TIP3   OH231269   6.637   3.079   4.269  0.8744 -0.1199 -1.0375
 3285TIP3    H131270   6.708   3.052   4.326  0.1995  0.5039  0.1195
 3285TIP3    H231271   6.561   3.085   4.326 -0.1458 -0.8544 -2.2623
 3286TIP3   OH231272   2.946   3.603  12.711 -0.1269 -0.1320 -0.0715
 3286TIP3    H131273   2.887   3.638  12.645  0.9017  0.2093 -0.8298
 3286TIP3    H231274   2.909   3.518  12.733 -1.1583  0.2778 -0.1846
 3287TIP3   OH231275   0.938   1.278   0.843 -0.6522 -0.1902  0.2896
 3287TIP3    H131276   0.953   1.360   0.796  0.5242 -1.0464 -0.9045
 3287TIP3    H231277   0.983   1.290   0.927 -2.9130  1.4175  1.3783
 3288TIP3   OH231278   1.811   3.308   1.239  0.2912 -0.2207 -0.0315
 3288TIP3    H131279   1.899   3.270   1.245  0.2061 -0.6432 -1.2739
 3288TIP3    H231280   1.753   3.239   1.270  0.1081 -1.3286 -2.5771
 3289TIP3   OH231281   0.726   3.766  17.057 -0.8857 -0.2981 -0.3513
 3289TIP3    H131282   0.761   3.692  17.007 -0.8446 -0.1790 -0.4971
 3289TIP3    H231283   0.697   3.829  16.991  0.0391  0.2682 -0.2308
 3290TIP3   OH231284   1.464   0.593  15.267  0.1573 -0.4201 -0.2265
 3290TIP3    H131285   1.461   0.526  15.199  1.2296 -0.4021 -0.2961
 3290TIP3    H231286   1.381   0.641  15.257 -0.5918 -1.6605 -0.2205
 3291TIP3   OH231287   2.316   1.384   2.895 -0.3362  0.1012 -0.4040
 3291TIP3    H131288   2.281   1.295   2.890  0.8715 -0.4564  0.6139
 3291TIP3    H231289   2.278   1.419   2.976  0.9202 -0.2946  0.3797
 3292TIP3   OH231290   6.314   2.878  16.267 -0.4356  0.2042  0.2282
 3292TIP3    H131291   6.267   2.822  16.329  1.4056  0.8365  2.3248
 3292TIP3    H231292   6.303   2.967  16.301  1.8792  0.4110  0.6315
 3293TIP3   OH231293   2.159   2.249  15.385 -0.6370  0.6327 -0.1434
 3293TIP3    H131294   2.223   2.298  15.334 -1.9071  1.6110 -0.8598
 3293TIP3    H231295   2.171   2.158  15.357  2.0773  0.3429  1.5653
 3294TIP3   OH231296   1.160   4.348  13.754  0.3610  0.3847  0.3124
 3294TIP3    H131297   1.161   4.296  13.834  0.4965  1.7330  1.2248
 3294TIP3    H231298   1.086   4.407  13.765  0.6780  0.9163 -0.3407
 3295TIP3   OH231299   1.248   6.596   0.384 -0.3535  0.2591 -0.4818
 3295TIP3    H131300   1.239   6.689   0.406 -0.0134 -0.0904  1.3492
 3295TIP3    H231301   1.342   6.584   0.370 -0.5737  0.4900 -2.3974
 3296TIP3   OH231302   3.282   0.267  15.336  0.0769 -0.2379 -0.2064
 3296TIP3    H131303   3.250   0.319  15.262 -0.7089 -0.8722 -0.3300
 3296TIP3    H231304   3.363   0.228  15.304  1.2363  1.6710  0.2302
 3297TIP3   OH231305   3.991   6.730  12.324  0.7930 -0.2791  0.1979
 3297TIP3    H131306   3.969   6.820  12.300 -1.4924 -0.6953  0.5611
 3297TIP3    H231307   4.045   6.699  12.251 -1.2298  0.3163 -1.6475
 3298TIP3   OH231308   3.901   1.466  11.473 -0.2270 -0.6670  0.4296
 3298TIP3    H131309   3.933   1.380  11.499  1.6844 -0.7283 -1.8004
 3298TIP3    H231310   3.973   1.526  11.495 -0.4734 -0.0581 -0.3908
 3299TIP3   OH231311   2.510   0.546   0.893  0.4198  0.1995 -0.4627
 3299TIP3    H131312   2.567   0.486   0.942  0.5430  0.4767 -0.2594
 3299TIP3    H231313   2.501   0.505   0.807 -0.8673 -0.9748  0.1864
 3300TIP3   OH231314   5.101   6.662   5.891 -0.0231 -0.2549 -0.7942
 3300TIP3    H131315   5.100   6.752   5.858 -0.2177 -0.6613 -1.9330
 3300TIP3    H231316   5.063   6.669   5.979  2.9140  1.2506  0.4932
 3301TIP3   OH231317   6.795   5.336  14.862 -0.3167  0.1636 -0.0236
 3301TIP3    H131318   6.841   5.398  14.918 -1.4248  1.4878 -0.5196
 3301TIP3    H231319   6.794   5.254  14.912  0.7980  0.6603  0.8312
 3302TIP3   OH231320   1.099   0.078   3.939 -0.2139  0.3825  0.1177
 3302TIP3    H131321   1.115   0.172   3.929  0.4355  0.4325  1.4022
 3302TIP3    H231322   1.184   0.037   3.922  0.9810  0.4697  4.5959
 3303TIP3   OH231323   1.014   3.529  13.201 -0.0542 -0.1139  0.1434
 3303TIP3    H131324   0.983   3.536  13.291  1.3554  0.7980  0.5898
 3303TIP3    H231325   0.944   3.484  13.155 -1.4809  0.7696  1.3590
 3304TIP3   OH231326   3.611   6.201  15.010 -0.9168 -0.2501  0.2933
 3304TIP3    H131327   3.578   6.112  14.999 -0.8215 -0.3584  0.8453
 3304TIP3    H231328   3.666   6.196  15.089 -1.4759  0.4527  0.7313
 3305TIP3   OH231329   6.773   3.879  14.690 -0.0374  0.4220  0.6168
 3305TIP3    H131330   6.693   3.929  14.676 -0.7351 -0.0103  2.7936
 3305TIP3    H231331   6.841   3.945  14.703  0.3402  0.8301 -2.4954
 3306TIP3   OH231332   3.821   5.323  12.763  0.3272  0.1103 -1.2372
 3306TIP3    H131333   3.810   5.273  12.844  1.8629  0.6811 -0.6346
 3306TIP3    H231334   3.878   5.268  12.709  1.7857  1.0280 -0.6855
 3307TIP3   OH231335   4.016   5.032   5.480  0.0359 -0.5505  0.0213
 3307TIP3    H131336   4.027   5.127   5.488 -1.0646 -0.4789  0.8694
 3307TIP3    H231337   3.939   5.021   5.424 -0.7613 -0.8983  1.1464
 3308TIP3   OH231338   2.588   3.235   4.899 -0.1171  0.4212 -0.3459
 3308TIP3    H131339   2.516   3.178   4.928 -0.9074  1.3476 -0.4245
 3308TIP3    H231340   2.550   3.287   4.829 -0.0454  2.4612  1.0449
 3309TIP3   OH231341   6.490   5.744  11.354 -0.1806  0.0300  0.1203
 3309TIP3    H131342   6.446   5.669  11.315 -0.5646  0.1149  0.3799
 3309TIP3    H231343   6.456   5.747  11.444 -1.9256  1.8465 -0.5139
 3310TIP3   OH231344   6.442   0.716   5.314 -0.3384 -0.0076 -0.4168
 3310TIP3    H131345   6.503   0.779   5.353  0.5468 -0.7864 -0.4797
 3310TIP3    H231346   6.410   0.665   5.388 -2.0867  1.3446 -0.2003
 3311TIP3   OH231347   5.535   5.816  12.175 -0.3031  0.1488 -0.4785
 3311TIP3    H131348   5.595   5.792  12.104 -1.3852 -1.1845 -0.9897
 3311TIP3    H231349   5.450   5.824  12.133 -1.0221 -0.9231  0.6845
 3312TIP3   OH231350   1.033   5.838  10.858  0.5209  0.0254  0.3865
 3312TIP3    H131351   1.064   5.751  10.882 -1.7172 -0.6434  1.1882
 3312TIP3    H231352   0.992   5.827  10.773  0.5218  0.3590  0.3412
 3313TIP3   OH231353   2.825   4.889  14.315  0.1552 -0.6943 -0.7885
 3313TIP3    H131354   2.759   4.920  14.253  0.9961 -3.5378 -3.3705
 3313TIP3    H231355   2.782   4.817  14.361 -0.1644  0.8310  1.4742
 3314TIP3   OH231356   5.204   5.929  14.255 -0.1921 -0.2228 -0.4150
 3314TIP3    H131357   5.153   5.930  14.174  1.0656 -2.7745 -1.3758
 3314TIP3    H231358   5.221   5.836  14.271  0.2278  0.2626  2.4118
 3315TIP3   OH231359   2.544   2.398  12.219  0.4153  0.5605 -0.3139
 3315TIP3    H131360   2.584   2.483  12.198 -0.9067  0.5112 -3.5801
 3315TIP3    H231361   2.457   2.420  12.251 -0.3530  0.4991 -2.2316
 3316TIP3   OH231362   5.645   5.578   4.285 -0.1340  0.5797 -0.3100
 3316TIP3    H131363   5.644   5.592   4.191  0.0043 -0.3582 -0.4615
 3316TIP3    H231364   5.733   5.605   4.313  0.0868  0.1430 -0.5725
 3317TIP3   OH231365   6.437   2.950  12.426 -0.0345  0.0526  0.1530
 3317TIP3    H131366   6.508   2.886  12.430  0.5301  0.6878  0.6363
 3317TIP3    H231367   6.357   2.898  12.427  0.4102 -0.6337  0.9314
 3318TIP3   OH231368   0.020   2.015  12.873 -0.3342  0.6262 -0.4872
 3318TIP3    H131369   0.082   2.059  12.816  1.5058 -1.2698 -0.0838
 3318TIP3    H231370   0.025   2.062  12.956  1.1522  0.0814 -0.2431
 3319TIP3   OH231371   5.705   6.364  13.851 -0.0314 -0.0115  0.5269
 3319TIP3    H131372   5.762   6.430  13.891 -0.0222 -0.2192  0.8672
 3319TIP3    H231373   5.722   6.285  13.902 -1.2269  0.1229  1.1736
 3320TIP3   OH231374   6.315   5.891  16.736 -0.1326  0.0408  0.1490
 3320TIP3    H131375   6.387   5.910  16.675 -0.1742 -1.7573 -0.5077
 3320TIP3    H231376   6.245   5.951  16.710  0.1691 -0.0906 -1.0165
 3321TIP3   OH231377   0.246   4.821  16.010 -0.1821  0.0285 -0.0436
 3321TIP3    H131378   0.327   4.843  16.055  0.5220  0.3359 -1.4092
 3321TIP3    H231379   0.201   4.761  16.069  0.3361  1.0004  1.3973
 3322TIP3   OH231380   3.934   5.566   4.728 -0.2388 -0.1049 -0.3356
 3322TIP3    H131381   3.973   5.488   4.767  3.3389  1.6079 -0.0609
 3322TIP3    H231382   3.929   5.546   4.635  0.1934 -0.8346 -0.2122
 3323TIP3   OH231383   3.553   0.370  13.320 -0.1660 -0.0670 -0.0533
 3323TIP3    H131384   3.504   0.343  13.243 -0.6250 -0.5677  0.4067
 3323TIP3    H231385   3.564   0.290  13.371  1.0151  0.0520 -0.0716
 3324TIP3   OH231386   5.000   3.012   2.640 -0.0659 -0.0326  0.1847
 3324TIP3    H131387   5.054   3.089   2.656 -0.0573 -0.2104  1.0936
 3324TIP3    H231388   5.058   2.951   2.594  0.1749  0.1895  0.1932
 3325TIP3   OH231389   2.817   0.448  13.037 -0.4457  0.2437 -0.0181
 3325TIP3    H131390   2.905   0.432  13.070 -0.2265 -0.1877 -0.7948
 3325TIP3    H231391   2.824   0.530  12.988 -0.1621 -0.4582 -1.1844
 3326TIP3   OH231392   1.312   4.250   4.979  0.6112 -0.1632 -0.1333
 3326TIP3    H131393   1.308   4.240   5.074  0.2343 -2.9535 -0.3394
 3326TIP3    H231394   1.221   4.246   4.950  0.7483 -5.2845 -0.8541
 3327TIP3   OH231395   1.106   1.547  14.764 -0.3502 -0.3420 -0.0560
 3327TIP3    H131396   1.152   1.487  14.706  0.7201 -1.0678  1.4829
 3327TIP3    H231397   1.086   1.496  14.842 -0.2732  1.0217  0.9026
 3328TIP3   OH231398   4.134   0.618  13.316 -0.5475  0.4988 -0.5674
 3328TIP3    H131399   4.220   0.618  13.358 -0.4374  1.8753 -0.7171
 3328TIP3    H231400   4.148   0.574  13.232  0.0096  0.6363 -0.5526
 3329TIP3   OH231401   5.684   1.063   3.550 -0.7484  0.3328  0.5679
 3329TIP3    H131402   5.592   1.075   3.529 -1.4376 -0.8531  2.6833
 3329TIP3    H231403   5.701   1.122   3.623 -0.3473 -0.8176  1.4333
 3330TIP3   OH231404   5.343   6.061  12.721 -0.0469 -0.0180 -0.0748
 3330TIP3    H131405   5.345   6.097  12.633  0.7508  1.3079  0.4612
 3330TIP3    H231406   5.276   6.111  12.766 -0.3233 -0.5643  0.1324
 3331TIP3   OH231407   3.799   3.099  13.669  0.1294 -0.6072 -0.3114
 3331TIP3    H131408   3.836   3.117  13.582 -1.0420 -0.9043 -0.8934
 3331TIP3    H231409   3.874   3.101  13.728  0.9875 -0.6822 -1.3729
 3332TIP3   OH231410   5.709   1.355  15.294  0.3263  0.1991 -0.3704
 3332TIP3    H131411   5.671   1.403  15.220 -0.7778 -0.7928 -0.4767
 3332TIP3    H231412   5.641   1.292  15.319  1.4735 -0.8491  0.1948
 3333TIP3   OH231413   2.029   2.977   0.062  0.5915 -1.0001 -0.1710
 3333TIP3    H131414   1.964   2.992  -0.006  0.3771 -1.0641  0.0187
 3333TIP3    H231415   1.979   2.974   0.143  1.0650  1.3391  0.2806
 3334TIP3   OH231416   6.368   0.339   3.274  0.5970 -0.4568  0.0284
 3334TIP3    H131417   6.364   0.435   3.279  0.2945 -0.5211  1.6299
 3334TIP3    H231418   6.285   0.310   3.312  1.1655 -1.3625  0.6059
 3335TIP3   OH231419   2.182   1.790   3.022  0.4811 -0.4299  0.4852
 3335TIP3    H131420   2.146   1.714   3.069  1.3080 -0.9022  0.3749
 3335TIP3    H231421   2.192   1.857   3.090  0.9541 -0.8570  0.8561
 3336TIP3   OH231422   5.035   2.065   1.134  0.6423  0.0466  0.5896
 3336TIP3    H131423   4.950   2.088   1.171 -0.2802 -2.5568  0.3189
 3336TIP3    H231424   5.088   2.040   1.209 -0.2687 -2.3407  0.5486
 3337TIP3   OH231425   2.242   5.419  12.683  0.1724 -0.4457  0.0632
 3337TIP3    H131426   2.256   5.356  12.612 -0.0770 -0.9047  0.4133
 3337TIP3    H231427   2.149   5.443  12.676  0.4558  0.5361 -0.5875
 3338TIP3   OH231428   1.991   6.781  14.850  0.6894  0.5815 -0.1086
 3338TIP3    H131429   2.032   6.790  14.936  0.7994  1.7681 -0.2662
 3338TIP3    H231430   2.034   6.847  14.795  1.7890 -1.2269 -1.5519
 3339TIP3   OH231431   4.878   6.097  13.005  0.3511 -0.4723 -0.0345
 3339TIP3    H131432   4.878   6.125  13.097 -0.4010 -2.2185  0.5429
 3339TIP3    H231433   4.818   6.157  12.962  0.5435  0.2411  0.6728
 3340TIP3   OH231434   4.719   1.398   5.729  0.0071  0.5801  0.4271
 3340TIP3    H131435   4.752   1.334   5.792 -1.6321 -0.4863  0.2528
 3340TIP3    H231436   4.624   1.390   5.734 -0.1769  1.0796 -1.5676
 3341TIP3   OH231437   3.974   1.500  16.826 -1.1273  0.4014 -0.0738
 3341TIP3    H131438   3.955   1.411  16.857 -1.0725  0.7317  0.9214
 3341TIP3    H231439   3.896   1.525  16.777 -0.7113 -0.5996 -1.3034
 3342TIP3   OH231440   6.293   2.168  16.450  0.4673  0.4355 -0.5198
 3342TIP3    H131441   6.219   2.108  16.458 -0.2600  1.3042 -0.5281
 3342TIP3    H231442   6.260   2.239  16.394  1.2385  0.9363 -0.3584
 3343TIP3   OH231443   2.474   5.885   3.060 -0.2802 -0.1052  0.0697
 3343TIP3    H131444   2.433   5.917   3.140 -0.1487 -0.4392  0.2689
 3343TIP3    H231445   2.567   5.905   3.070  0.1842 -2.5548  1.1956
 3344TIP3   OH231446   0.538   2.901  10.919 -0.4108 -0.1665 -0.2637
 3344TIP3    H131447   0.604   2.944  10.863 -0.2555 -0.2605 -0.1532
 3344TIP3    H231448   0.464   2.885  10.860 -0.5764  0.4948 -0.2431
 3345TIP3   OH231449   0.555   4.290  14.224 -0.0381 -0.1568 -0.2576
 3345TIP3    H131450   0.561   4.365  14.284 -1.7749 -0.9275  0.9696
 3345TIP3    H231451   0.610   4.223  14.265 -2.0462 -1.0501  1.1719
 3346TIP3   OH231452   0.934   1.441   0.042 -0.1821 -0.1899  0.3546
 3346TIP3    H131453   0.960   1.398  -0.040  1.4412  1.3350  0.0011
 3346TIP3    H231454   0.839   1.443   0.038 -0.2235 -1.7320 -0.6294
 3347TIP3   OH231455   6.243   5.164  16.215 -0.0199  0.1172 -0.6623
 3347TIP3    H131456   6.300   5.234  16.246 -1.3443  0.5217  1.0115
 3347TIP3    H231457   6.181   5.151  16.286 -0.5186 -1.9823 -1.4290
 3348TIP3   OH231458   3.295   2.989  10.919 -0.3080  0.1202 -0.3543
 3348TIP3    H131459   3.210   2.946  10.923  0.0069 -0.9336 -3.1457
 3348TIP3    H231460   3.356   2.921  10.892  2.1447  0.1095  4.1451
 3349TIP3   OH231461   6.748   1.039  10.937 -0.1681  0.0404  0.4996
 3349TIP3    H131462   6.746   0.953  10.894  0.9302  0.1377  0.2392
 3349TIP3    H231463   6.839   1.068  10.930 -0.6826  1.6070 -0.1549
 3350TIP3   OH231464   3.820   6.744  13.633 -0.2182  0.3639  0.3978
 3350TIP3    H131465   3.866   6.806  13.688  0.2980 -0.9246  1.4813
 3350TIP3    H231466   3.872   6.738  13.553  0.5343  0.2215  0.8961
 3351TIP3   OH231467   0.489   2.672  13.888  0.3349  0.7386 -0.4133
 3351TIP3    H131468   0.415   2.713  13.933 -1.0467  1.3942 -3.0958
 3351TIP3    H231469   0.565   2.697  13.940 -1.3124 -1.9515  3.9272
 3352TIP3   OH231470   0.913   2.230   3.014  0.0355 -0.0197  0.1653
 3352TIP3    H131471   0.841   2.291   2.997  0.8663  0.4751 -1.7686
 3352TIP3    H231472   0.870   2.145   3.025 -0.8011 -0.0524 -2.6237
 3353TIP3   OH231473   6.007   0.757  13.553  0.2376  0.1753  0.1126
 3353TIP3    H131474   6.073   0.757  13.484 -0.2686 -0.8357 -0.3975
 3353TIP3    H231475   5.927   0.724  13.511 -0.0905 -0.4298  1.1555
 3354TIP3   OH231476   6.774   1.394   3.536  0.0931  0.5499 -0.0935
 3354TIP3    H131477   6.690   1.349   3.543  0.0962  0.6851  0.9360
 3354TIP3    H231478   6.753   1.477   3.493 -0.7403  1.6355  2.2360
 3355TIP3   OH231479   2.386   3.015   2.351  0.5338 -0.2695 -0.1210
 3355TIP3    H131480   2.396   2.950   2.421 -0.7221  1.4678  1.7958
 3355TIP3    H231481   2.294   3.041   2.356 -0.0041 -1.1409 -3.4951
 3356TIP3   OH231482   0.602   3.136  13.047 -0.2308  0.3190 -0.0973
 3356TIP3    H131483   0.630   3.070  12.984  1.0874  1.5158 -0.8169
 3356TIP3    H231484   0.551   3.198  12.995 -0.8671  0.2461  0.4328
 3357TIP3   OH231485   1.495   5.260  10.832 -0.1886 -0.5312  0.3176
 3357TIP3    H131486   1.557   5.329  10.808  1.1406 -2.0686 -0.8734
 3357TIP3    H231487   1.409   5.302  10.823  0.5018  0.6047 -1.7440
 3358TIP3   OH231488   0.994   4.958   1.357  0.3968  0.5281  0.0776
 3358TIP3    H131489   1.003   5.050   1.384  0.3485  0.4357  0.4188
 3358TIP3    H231490   0.916   4.927   1.404  1.3050 -0.1228  1.1962
 3359TIP3   OH231491   4.270   4.275  14.066 -0.1964 -0.0208  0.3311
 3359TIP3    H131492   4.192   4.246  14.115 -0.2762 -0.9984 -0.3602
 3359TIP3    H231493   4.279   4.211  13.996 -0.4247  1.6775 -1.3108
 3360TIP3   OH231494   1.189   2.941  11.416 -0.7450 -0.2577  0.7062
 3360TIP3    H131495   1.216   2.922  11.326 -0.8826 -2.1855  1.0431
 3360TIP3    H231496   1.162   3.033  11.413 -0.0769 -0.0728 -1.0526
 3361TIP3   OH231497   6.528   6.744   4.033 -0.6038 -0.4975 -0.4314
 3361TIP3    H131498   6.487   6.828   4.053  0.3008 -0.6491  2.5941
 3361TIP3    H231499   6.460   6.679   4.051 -0.7866 -0.5080 -1.1324
 3362TIP3   OH231500   1.792   4.756   1.564 -0.1469  0.4028  0.5358
 3362TIP3    H131501   1.842   4.725   1.488  1.9131 -0.9061  2.3437
 3362TIP3    H231502   1.847   4.824   1.603 -0.6108  0.2047  1.5603
 3363TIP3   OH231503   6.572   2.321   0.543 -0.1269  0.5789  0.1136
 3363TIP3    H131504   6.574   2.321   0.639  0.5646  1.4026  0.1159
 3363TIP3    H231505   6.663   2.312   0.516 -0.3873 -0.3960 -0.4880
 3364TIP3   OH231506   0.013   3.657   1.861 -0.0481 -0.8124 -0.3743
 3364TIP3    H131507   0.047   3.722   1.923  0.1858 -0.2943 -1.0330
 3364TIP3    H231508   0.034   3.573   1.901  0.8024 -0.4902 -0.1149
 3365TIP3   OH231509   2.660   1.987   2.907 -0.2515 -0.3341  0.2059
 3365TIP3    H131510   2.608   2.054   2.863  0.9319  0.3188 -0.2614
 3365TIP3    H231511   2.745   2.029   2.923  0.5884 -1.7572 -0.2775
 3366TIP3   OH231512   1.610   5.641   0.335  0.6006  0.5646 -0.3665
 3366TIP3    H131513   1.661   5.723   0.334 -2.1640  2.4348 -1.8737
 3366TIP3    H231514   1.557   5.645   0.256 -0.9416 -1.8709  0.4428
 3367TIP3   OH231515   2.008   0.616  13.158 -0.2499 -0.0939 -0.5115
 3367TIP3    H131516   1.963   0.697  13.136  1.4473  1.2696  0.6738
 3367TIP3    H231517   2.086   0.616  13.102  0.7703  0.1605  0.8263
 3368TIP3   OH231518   4.036   2.790   2.869  0.2920 -0.4718 -0.6037
 3368TIP3    H131519   4.053   2.859   2.933 -0.7028 -0.4432 -0.3628
 3368TIP3    H231520   4.018   2.712   2.922  1.0970 -0.8590 -0.8719
 3369TIP3   OH231521   5.114   5.913   2.408 -0.4947 -0.1048  0.5263
 3369TIP3    H131522   5.072   5.998   2.394 -0.0497  0.0318 -0.0172
 3369TIP3    H231523   5.110   5.870   2.323 -0.0040 -0.3064  0.6026
 3370TIP3   OH231524   5.466   3.112  13.701 -0.1683 -0.2435  0.4769
 3370TIP3    H131525   5.450   3.113  13.606 -0.5591 -0.6295  0.5373
 3370TIP3    H231526   5.529   3.041  13.713 -1.5345 -1.4582  0.7184
 3371TIP3   OH231527   0.357   1.459   2.890 -0.0531  0.7058  0.5008
 3371TIP3    H131528   0.302   1.437   2.964 -0.5020 -0.3599 -0.1310
 3371TIP3    H231529   0.304   1.438   2.813 -0.4169  3.6800 -0.2082
 3372TIP3   OH231530   0.855   1.699   3.768 -0.3840 -0.0900  0.3582
 3372TIP3    H131531   0.906   1.779   3.783 -1.7387  1.2224 -1.4758
 3372TIP3    H231532   0.897   1.659   3.692 -0.3752 -0.5408  0.6003
 3373TIP3   OH231533   1.050   2.432  13.258 -0.2284 -0.0954 -0.3804
 3373TIP3    H131534   1.141   2.458  13.278 -0.5194  1.3517 -0.8037
 3373TIP3    H231535   1.059   2.349  13.210  0.9166  0.2750 -0.8610
 3374TIP3   OH231536   3.130   2.347   5.079  0.5672 -0.3129 -0.0905
 3374TIP3    H131537   3.090   2.270   5.039 -2.6471  0.2560  1.6457
 3374TIP3    H231538   3.199   2.373   5.019 -0.5893 -2.4572 -2.5248
 3375TIP3   OH231539   3.439   1.341  12.910 -0.2547  0.2188  0.0759
 3375TIP3    H131540   3.370   1.399  12.878  0.3635  0.8054 -0.2176
 3375TIP3    H231541   3.493   1.397  12.966 -0.4229 -0.4126  0.8929
 3376TIP3   OH231542   4.735   1.886  12.612 -0.5237 -0.5499  0.0335
 3376TIP3    H131543   4.829   1.905  12.619 -0.7774  1.8616 -1.5755
 3376TIP3    H231544   4.727   1.832  12.534 -0.3724 -2.1977  1.1165
 3377TIP3   OH231545   0.329   5.833  16.920 -0.4044  0.4280  0.4129
 3377TIP3    H131546   0.341   5.777  16.997  1.6653 -1.4102 -1.1249
 3377TIP3    H231547   0.383   5.910  16.939 -0.6811  0.4429  1.1893
 3378TIP3   OH231548   3.727   1.182   1.372 -0.1251 -0.3997  0.1287
 3378TIP3    H131549   3.782   1.163   1.296 -1.5452 -0.5294 -0.8829
 3378TIP3    H231550   3.687   1.099   1.395  0.4724 -0.4157  1.2015
 3379TIP3   OH231551   5.080   5.412   6.175 -0.5076  0.4059 -0.6794
 3379TIP3    H131552   5.022   5.453   6.240  0.0041  0.5392 -0.2928
 3379TIP3    H231553   5.136   5.484   6.145 -0.1632  0.1626 -0.6237
 3380TIP3   OH231554   2.301   3.087   0.040  0.4771 -0.1478 -0.2849
 3380TIP3    H131555   2.333   3.087   0.130  0.7852 -0.3356 -0.3921
 3380TIP3    H231556   2.207   3.073   0.048  0.7091 -1.7685 -0.0597
 3381TIP3   OH231557   2.308   4.492  16.625 -0.7806 -0.0089 -0.1903
 3381TIP3    H131558   2.370   4.565  16.626 -0.5970 -0.0665 -2.4906
 3381TIP3    H231559   2.324   4.447  16.707  0.8866  1.0836  0.1508
 3382TIP3   OH231560   6.103   1.009   3.192  0.2106 -0.1749 -0.7687
 3382TIP3    H131561   6.188   1.020   3.233 -0.5145  1.2157  0.4252
 3382TIP3    H231562   6.080   0.918   3.209  1.1908 -0.4013 -0.5979
 3383TIP3   OH231563   0.678   3.929   2.460  0.4599 -0.0176 -0.0267
 3383TIP3    H131564   0.747   3.905   2.399  0.7540 -1.0966  0.7094
 3383TIP3    H231565   0.608   3.865   2.443 -2.9783  4.1263 -4.7228
 3384TIP3   OH231566   5.194   1.332   6.488  0.1041  0.2425 -0.2609
 3384TIP3    H131567   5.168   1.254   6.539  0.0287  0.5018  0.1035
 3384TIP3    H231568   5.144   1.326   6.407 -1.2178  0.8061  0.4909
 3385TIP3   OH231569   1.711   6.449  16.400  0.8161 -0.0652 -0.0776
 3385TIP3    H131570   1.625   6.409  16.412  0.8680 -0.5975 -1.3071
 3385TIP3    H231571   1.762   6.383  16.352  1.9538  0.1866  0.7477
 3386TIP3   OH231572   6.481   3.329   2.935  0.2459 -0.1489  0.1376
 3386TIP3    H131573   6.437   3.374   3.007 -0.5748 -0.2609 -0.2889
 3386TIP3    H231574   6.521   3.252   2.975  0.2429  0.0749  0.5692
 3387TIP3   OH231575   5.132   0.595  15.357 -0.4102 -0.5045 -0.2009
 3387TIP3    H131576   5.183   0.514  15.357  2.7899  1.3434 -0.5948
 3387TIP3    H231577   5.072   0.586  15.283  1.8561 -1.3964 -2.0342
 3388TIP3   OH231578   3.297   1.146   4.304  0.3138  0.1846  0.6485
 3388TIP3    H131579   3.272   1.208   4.373 -0.7329 -0.0131  0.4650
 3388TIP3    H231580   3.298   1.199   4.224 -1.1446 -0.1131  0.3972
 3389TIP3   OH231581   2.546   4.034   5.654 -0.1701 -0.3964 -0.6157
 3389TIP3    H131582   2.536   4.093   5.579 -1.3027  0.0464 -0.1449
 3389TIP3    H231583   2.627   4.063   5.696  0.7121 -0.9396 -1.9046
 3390TIP3   OH231584   1.161   0.707   2.172 -0.5700  0.3859 -0.1377
 3390TIP3    H131585   1.206   0.685   2.091 -0.3720 -0.3748  0.1677
 3390TIP3    H231586   1.141   0.800   2.164 -0.7999  0.2586 -1.1746
 3391TIP3   OH231587   2.129   4.347  13.391  0.4213 -0.2079 -0.3867
 3391TIP3    H131588   2.124   4.439  13.364 -0.8330  0.2120  1.0667
 3391TIP3    H231589   2.164   4.301  13.315 -0.5698  1.2215 -1.7776
 3392TIP3   OH231590   5.686   2.716   0.300  0.4646 -0.4524 -0.0490
 3392TIP3    H131591   5.742   2.691   0.373  0.6529 -0.7935 -0.3102
 3392TIP3    H231592   5.700   2.648   0.234 -0.3859 -0.6334 -0.0480
 3393TIP3   OH231593   1.716   5.416  14.463 -0.1975 -0.2795  0.2587
 3393TIP3    H131594   1.764   5.445  14.541  0.3204 -1.4272  0.3978
 3393TIP3    H231595   1.703   5.322  14.477  0.8923 -0.7493 -1.5322
 3394TIP3   OH231596   3.785   0.835   1.385  0.5780 -0.6309 -0.4112
 3394TIP3    H131597   3.695   0.820   1.355  0.4945  0.2997 -0.6501
 3394TIP3    H231598   3.786   0.801   1.474 -0.1545 -0.1831 -0.2257
 3395TIP3   OH231599   4.447   5.516  14.703 -0.5059 -0.3196  0.8638
 3395TIP3    H131600   4.411   5.510  14.791  1.9995  0.0164  2.0100
 3395TIP3    H231601   4.534   5.476  14.710  0.5162  1.4107 -0.9746
 3396TIP3   OH231602   4.392   5.172   1.172 -0.4000 -0.8058 -0.7184
 3396TIP3    H131603   4.298   5.178   1.153 -1.0844 -2.0920  1.8411
 3396TIP3    H231604   4.406   5.082   1.199  0.7169  0.2638  2.7857
 3397TIP3   OH231605   1.599   0.353  14.431 -0.4931 -0.1879 -0.2017
 3397TIP3    H131606   1.688   0.319  14.434  0.6126  2.3341 -1.6755
 3397TIP3    H231607   1.563   0.319  14.349 -0.0786  0.5993 -0.7148
 3398TIP3   OH231608   5.273   3.827  16.030  0.4124 -0.6529 -0.3938
 3398TIP3    H131609   5.321   3.848  15.950  1.1128  0.6405  0.3320
 3398TIP3    H231610   5.341   3.816  16.097 -0.2241  3.1991  1.1385
 3399TIP3   OH231611   4.380   4.593   4.064 -0.4816 -0.3416  0.2017
 3399TIP3    H131612   4.295   4.623   4.094 -1.1398 -0.9597 -0.9569
 3399TIP3    H231613   4.366   4.502   4.039  0.6357 -0.5869  0.4240
 3400TIP3   OH231614   3.139   4.933  14.858 -0.4979  0.1059  0.1790
 3400TIP3    H131615   3.160   4.975  14.941  0.6242  0.1719 -0.1294
 3400TIP3    H231616   3.160   4.841  14.871 -1.0368 -0.0193  0.2004
 3401TIP3   OH231617   4.873   1.355   1.674 -0.5790  0.0843  0.3627
 3401TIP3    H131618   4.929   1.295   1.723  1.1336  1.2483 -0.0727
 3401TIP3    H231619   4.815   1.298   1.624 -0.0420 -1.1638  1.0962
 3402TIP3   OH231620   0.792   1.818  12.407 -0.2466  0.3749 -0.7345
 3402TIP3    H131621   0.705   1.779  12.403  0.8373 -2.2662 -0.5238
 3402TIP3    H231622   0.788   1.879  12.481 -1.6536 -0.4273 -0.1149
 3403TIP3   OH231623   0.046   4.621  11.349 -0.0572  0.1802  0.1010
 3403TIP3    H131624   0.006   4.607  11.263  2.2878 -1.7166 -0.7946
 3403TIP3    H231625   0.010   4.552  11.404 -0.8616  0.8316  0.4101
 3404TIP3   OH231626   2.503   5.090   2.629 -0.1732 -0.0073 -0.0472
 3404TIP3    H131627   2.522   4.998   2.645 -0.7732  0.0426  1.0274
 3404TIP3    H231628   2.409   5.092   2.611 -0.4135  0.5344  1.1758
 3405TIP3   OH231629   6.763   2.225   5.381  0.3913  0.1490 -0.1006
 3405TIP3    H131630   6.741   2.218   5.474 -1.3214 -0.3269 -0.4988
 3405TIP3    H231631   6.857   2.210   5.378  0.4250 -0.2231  1.5223
 3406TIP3   OH231632   5.020   6.561   5.398  0.7904 -0.2273 -0.6837
 3406TIP3    H131633   5.102   6.591   5.359 -0.5071  1.1598 -2.5535
 3406TIP3    H231634   4.991   6.490   5.342  1.3331 -1.6974  0.7976
 3407TIP3   OH231635   4.524   2.574  10.697  0.2983 -0.6224 -0.0408
 3407TIP3    H131636   4.595   2.538  10.644 -0.6573 -1.7748 -0.5920
 3407TIP3    H231637   4.445   2.553  10.648 -0.6935 -2.3567  2.1588
 3408TIP3   OH231638   3.028   2.779   3.589  0.1103 -0.6879  0.3085
 3408TIP3    H131639   3.103   2.837   3.604 -0.3157  0.2615 -1.0180
 3408TIP3    H231640   3.036   2.753   3.497 -1.8863  0.5151 -0.2584
 3409TIP3   OH231641   4.567   0.169   5.245  0.4722 -0.1117 -0.1068
 3409TIP3    H131642   4.656   0.166   5.211 -0.5182  0.2822 -3.0423
 3409TIP3    H231643   4.575   0.141   5.336  3.9216  2.5073  0.5985
 3410TIP3   OH231644   0.542   3.409  10.526  0.3927 -0.0507 -0.7110
 3410TIP3    H131645   0.533   3.501  10.503  2.6275 -0.2923 -2.8992
 3410TIP3    H231646   0.468   3.366  10.482 -0.6806  0.6328  0.3525
 3411TIP3   OH231647   6.573   2.643   2.327 -0.2534  0.1800  0.5418
 3411TIP3    H131648   6.620   2.567   2.363 -0.4413  0.6188  1.7403
 3411TIP3    H231649   6.483   2.632   2.358 -0.0037  1.5588  1.8465
 3412TIP3   OH231650   4.875   5.100   5.910 -0.1637  0.6192  0.0065
 3412TIP3    H131651   4.860   5.185   5.951  2.6609  0.9788  0.5177
 3412TIP3    H231652   4.854   5.037   5.980 -1.4996  0.8877 -0.1214
 3413TIP3   OH231653   2.124   1.364  14.385  0.1997  0.2491  0.3388
 3413TIP3    H131654   2.142   1.414  14.465  0.4774 -2.6033  2.1954
 3413TIP3    H231655   2.194   1.391  14.325  0.8339  1.4610  1.5532
 3414TIP3   OH231656   0.769   4.131  14.407 -0.0693  0.1242  0.2256
 3414TIP3    H131657   0.770   4.037  14.389 -1.5260 -0.0189  0.7974
 3414TIP3    H231658   0.860   4.159  14.392 -0.0909 -0.8994 -2.2965
 3415TIP3   OH231659   4.812   5.775   5.575  0.0463  0.6859  0.0667
 3415TIP3    H131660   4.807   5.795   5.669  2.0631  0.2012  0.3126
 3415TIP3    H231661   4.901   5.744   5.562 -0.7681 -1.1370 -1.6702
 3416TIP3   OH231662   4.485   1.150   3.382 -0.0673  0.2032 -0.5252
 3416TIP3    H131663   4.562   1.170   3.435 -0.2107  0.3760 -0.3816
 3416TIP3    H231664   4.419   1.213   3.411  0.1043  0.8356 -1.4647
 3417TIP3   OH231665   1.314   2.516  13.102  0.1720 -0.0878 -0.1364
 3417TIP3    H131666   1.340   2.460  13.176 -1.6748 -1.0377 -0.1666
 3417TIP3    H231667   1.308   2.456  13.028 -2.3918 -0.0204 -0.0478
 3418TIP3   OH231668   5.730   6.492   0.282 -0.6161 -0.4494 -0.0504
 3418TIP3    H131669   5.805   6.546   0.254 -0.0577 -1.2394 -0.0931
 3418TIP3    H231670   5.654   6.548   0.266 -0.2000 -0.3341 -1.8499
 3419TIP3   OH231671   2.197   2.617  11.807 -0.3187  0.0407 -0.0001
 3419TIP3    H131672   2.173   2.583  11.720 -0.3546  1.6421 -0.6452
 3419TIP3    H231673   2.198   2.712  11.796  1.3513  0.2173  1.3290
 3420TIP3   OH231674   2.788   3.646   5.688 -0.3895  0.5285 -0.5226
 3420TIP3    H131675   2.816   3.594   5.613  0.0090 -1.4036  0.8855
 3420TIP3    H231676   2.846   3.619   5.759 -2.1687  0.6294  1.0588
 3421TIP3   OH231677   2.095   3.460   1.972 -0.2214 -0.0974  0.2242
 3421TIP3    H131678   2.003   3.481   1.987  0.1587  0.9913  1.1369
 3421TIP3    H231679   2.128   3.534   1.921 -0.0136 -0.8405 -0.7436
 3422TIP3   OH231680   4.348   2.440   4.636  0.0465  0.1483  0.0169
 3422TIP3    H131681   4.309   2.418   4.552  1.6747  0.2471 -0.8102
 3422TIP3    H231682   4.356   2.355   4.681 -0.0485 -0.0240 -0.2885
 3423TIP3   OH231683   5.525   0.509  13.535  0.2566 -0.0003  0.3068
 3423TIP3    H131684   5.505   0.445  13.467 -3.1496  0.6414  0.5305
 3423TIP3    H231685   5.573   0.460  13.601 -1.3961 -2.1442  0.0185
 3424TIP3   OH231686   4.723   4.354   5.270  0.2244 -0.1397  0.1593
 3424TIP3    H131687   4.814   4.372   5.248  1.3630 -1.6227  3.1297
 3424TIP3    H231688   4.719   4.259   5.281 -0.5897  0.1611  3.8392
 3425TIP3   OH231689   0.798   3.858   4.946 -0.2510  0.3755  0.0441
 3425TIP3    H131690   0.855   3.793   4.986  0.0166 -2.0255 -3.7113
 3425TIP3    H231691   0.709   3.831   4.970 -0.0702 -0.5543 -0.3041
 3426TIP3   OH231692   5.728   5.086  11.048 -0.3183  0.2743 -0.0232
 3426TIP3    H131693   5.711   5.007  10.996 -0.5400  0.6970 -0.6057
 3426TIP3    H231694   5.755   5.152  10.984 -0.1396  0.6772  0.4571
 3427TIP3   OH231695   1.890   2.679   3.679 -0.4753  0.1584 -0.3623
 3427TIP3    H131696   1.951   2.658   3.609 -0.1245 -0.3610  0.0942
 3427TIP3    H231697   1.944   2.688   3.758 -0.5514  2.9370 -0.5080
 3428TIP3   OH231698   3.350   4.989  12.330 -0.0523 -0.3559 -0.4118
 3428TIP3    H131699   3.320   5.075  12.299 -2.3800 -0.9641 -0.0467
 3428TIP3    H231700   3.317   4.984  12.420 -0.3970 -1.8200 -0.6030
 3429TIP3   OH231701   0.513   1.363   4.870 -0.2603  0.4290  0.1215
 3429TIP3    H131702   0.481   1.274   4.884  1.2238 -0.2105 -0.3966
 3429TIP3    H231703   0.469   1.392   4.791  1.9112 -1.2449 -1.8283
 3430TIP3   OH231704   4.841   3.967  14.266  0.3662  0.3176 -0.1425
 3430TIP3    H131705   4.767   3.912  14.290  1.2202 -0.7581  0.1215
 3430TIP3    H231706   4.837   3.973  14.171  0.7025 -0.8925 -0.2549
 3431TIP3   OH231707   6.314   3.018   0.583  0.3435  1.2605 -0.2461
 3431TIP3    H131708   6.226   3.047   0.560 -0.4262  0.1881  1.1709
 3431TIP3    H231709   6.319   2.928   0.550  0.2607  0.7219  1.1249
 3432TIP3   OH231710   2.917   1.911   1.094  0.6258  0.6299  0.2098
 3432TIP3    H131711   2.874   1.994   1.076 -0.5666  0.2251  1.0404
 3432TIP3    H231712   2.942   1.878   1.008 -0.0330  1.2587 -0.2342
 3433TIP3   OH231713   5.452   5.832   1.038 -0.3052  0.6910  0.0332
 3433TIP3    H131714   5.493   5.879   0.965 -1.4368 -0.7496 -1.6350
 3433TIP3    H231715   5.457   5.740   1.013 -1.2585  0.2009  1.5166
 3434TIP3   OH231716   1.286   1.845   1.203  0.0974  0.3147  0.4220
 3434TIP3    H131717   1.373   1.871   1.235  0.2705 -1.6515  1.7382
 3434TIP3    H231718   1.233   1.839   1.283 -0.7024 -0.4277 -0.1564
 3435TIP3   OH231719   0.952   1.042   3.023 -0.4566 -0.2580 -0.4811
 3435TIP3    H131720   0.977   1.133   3.006 -2.6881  0.7233  0.9776
 3435TIP3    H231721   1.022   0.990   2.983  1.7311  2.0995 -0.0214
 3436TIP3   OH231722   1.468   5.804   4.890  0.0982  0.5674  0.2441
 3436TIP3    H131723   1.400   5.749   4.929  0.8422 -0.7796 -0.2816
 3436TIP3    H231724   1.419   5.873   4.845 -1.0307 -1.0604 -1.1870
 3437TIP3   OH231725   2.832   4.672  11.722 -0.5222  0.5566  0.4204
 3437TIP3    H131726   2.896   4.732  11.683 -2.0472  2.7510  1.1057
 3437TIP3    H231727   2.787   4.633  11.647  0.6382  0.0606 -0.0436
 3438TIP3   OH231728   2.234   3.007   5.384 -0.3140  0.0846  0.3117
 3438TIP3    H131729   2.207   3.047   5.467 -1.0009  4.3469 -1.6866
 3438TIP3    H231730   2.324   3.038   5.371  0.5796 -2.2639  0.2928
 3439TIP3   OH231731   1.864   6.187   1.129  0.1133 -0.3893 -0.0676
 3439TIP3    H131732   1.794   6.186   1.064 -2.4480 -0.0668  2.4708
 3439TIP3    H231733   1.834   6.127   1.198  1.4289  1.1353  1.9783
 3440TIP3   OH231734   2.691   6.669  13.485 -0.1804 -0.0934  0.3009
 3440TIP3    H131735   2.689   6.748  13.431 -0.8497 -0.8998 -0.8975
 3440TIP3    H231736   2.764   6.618  13.450 -1.8432 -1.5302 -1.2341
 3441TIP3   OH231737   6.187   1.553   0.886  0.6352 -0.1845  0.0125
 3441TIP3    H131738   6.248   1.553   0.960  0.4261 -0.6952  0.1922
 3441TIP3    H231739   6.207   1.472   0.839  1.0845  0.3642 -0.7627
 3442TIP3   OH231740   0.367   5.155  12.348 -0.6893 -0.6141 -0.2980
 3442TIP3    H131741   0.367   5.107  12.431 -2.0488  0.3766  0.3200
 3442TIP3    H231742   0.313   5.232  12.365  0.2590  0.3943 -1.6825
 3443TIP3   OH231743   4.826   1.052  16.921  0.1321  0.4511  0.0479
 3443TIP3    H131744   4.898   1.044  16.984  0.6591  0.1552 -0.5780
 3443TIP3    H231745   4.766   1.115  16.960 -0.8218 -1.5568  2.0592
 3444TIP3   OH231746   1.663   1.582   2.123  0.3223 -0.5090  0.0712
 3444TIP3    H131747   1.741   1.631   2.148  0.9839 -0.9558 -1.0664
 3444TIP3    H231748   1.662   1.507   2.182  0.4967 -0.2663  0.3882
 3445TIP3   OH231749   6.769   0.507  12.772 -0.0845  0.3327 -0.1924
 3445TIP3    H131750   6.695   0.493  12.712 -1.7249 -0.9379  1.9665
 3445TIP3    H231751   6.845   0.473  12.725 -1.0794  0.4073 -1.9643
 3446TIP3   OH231752   3.404   1.712  11.630  0.2178  0.2979  0.8358
 3446TIP3    H131753   3.471   1.683  11.692  1.2538  0.2119 -0.2885
 3446TIP3    H231754   3.394   1.805  11.648 -0.2063  0.0782  1.7793
 3447TIP3   OH231755   1.020   3.114   1.638  0.3276  0.3571 -0.2500
 3447TIP3    H131756   1.048   3.067   1.716 -0.4024  2.1041  1.1016
 3447TIP3    H231757   1.051   3.203   1.650 -2.0177  1.3058 -0.6897
 3448TIP3   OH231758   4.122   0.059  12.499  0.4425 -0.0561 -0.2888
 3448TIP3    H131759   4.077   0.143  12.501  0.2321 -0.1803  0.8958
 3448TIP3    H231760   4.059  -0.001  12.458 -0.5077 -0.2148  1.3064
 3449TIP3   OH231761   2.372   1.377  16.809  0.0811 -0.7185  0.7544
 3449TIP3    H131762   2.398   1.367  16.717  1.1877  1.0000  0.8516
 3449TIP3    H231763   2.398   1.294  16.850  1.4186 -0.7467 -0.0803
 3450TIP3   OH231764   1.875   0.836   1.702  0.0997  0.5796 -0.1468
 3450TIP3    H131765   1.947   0.896   1.722  0.0415  0.4491  0.4799
 3450TIP3    H231766   1.882   0.820   1.608  2.1288 -1.0534  0.2259
 3451TIP3   OH231767   4.804   4.012   2.034 -0.0738 -0.1419  0.2268
 3451TIP3    H131768   4.799   3.964   1.951  0.1983 -3.6742  2.0424
 3451TIP3    H231769   4.887   4.059   2.029 -0.4191  0.3766 -1.7466
 3452TIP3   OH231770   6.439   6.377  12.594 -0.0588 -1.0744 -0.1890
 3452TIP3    H131771   6.360   6.328  12.616  0.6198 -1.3358  1.8797
 3452TIP3    H231772   6.485   6.387  12.677  0.4411  2.0551 -0.6985
 3453TIP3   OH231773   1.935   6.356  11.734  0.1196 -0.0417 -0.4282
 3453TIP3    H131774   1.976   6.347  11.820 -0.8564  0.7357  0.1365
 3453TIP3    H231775   1.854   6.305  11.741  0.1773 -0.2215 -0.9980
 3454TIP3   OH231776   6.336   3.185   2.352 -0.2200 -0.3267 -0.1246
 3454TIP3    H131777   6.353   3.275   2.381 -1.4709 -0.3131  0.6312
 3454TIP3    H231778   6.354   3.131   2.429  0.4465 -0.7204 -0.5521
 3455TIP3   OH231779   5.391   3.362   2.534  0.2479  0.5899  0.3957
 3455TIP3    H131780   5.382   3.429   2.466  1.1633  1.4337  1.0734
 3455TIP3    H231781   5.448   3.402   2.599  1.2876 -1.0712  0.5499
 3456TIP3   OH231782   3.903   4.575   0.472 -0.6997  0.8125 -0.4026
 3456TIP3    H131783   3.947   4.506   0.522 -2.2822 -0.2810 -0.4136
 3456TIP3    H231784   3.944   4.571   0.385  0.4673  1.1349  0.1216
 3457TIP3   OH231785   4.295   6.334  11.468  0.1982 -0.2956  0.1767
 3457TIP3    H131786   4.239   6.277  11.521 -0.1676 -1.0588 -0.9802
 3457TIP3    H231787   4.376   6.285  11.457 -0.0191 -0.4856 -0.6085
 3458TIP3   OH231788   2.857   2.137   1.316  0.7052  0.1021  0.3727
 3458TIP3    H131789   2.802   2.214   1.305 -0.2722 -0.6478 -0.1635
 3458TIP3    H231790   2.800   2.063   1.295  1.9551 -0.6974 -0.3865
 3459TIP3   OH231791   5.448   3.195   1.303  0.1480  0.2343  0.6039
 3459TIP3    H131792   5.444   3.225   1.212 -3.2817  0.1812  0.5886
 3459TIP3    H231793   5.424   3.102   1.298  1.5709 -0.2007  1.4493
 3460TIP3   OH231794   1.288   6.494   3.895 -0.3265 -0.0631  0.7739
 3460TIP3    H131795   1.302   6.485   3.989 -0.6677  1.3416  0.9812
 3460TIP3    H231796   1.353   6.558   3.867  0.0801 -0.8064 -0.0539
 3461TIP3   OH231797   1.631   3.578  11.819  0.2081  0.2569  0.0518
 3461TIP3    H131798   1.646   3.500  11.766  0.0180 -0.4563  1.0421
 3461TIP3    H231799   1.631   3.547  11.909 -0.3360  1.3278  0.4354
 3462TIP3   OH231800   2.047   6.701   6.613  0.2914  0.4549  0.5481
 3462TIP3    H131801   1.954   6.722   6.608  0.4378  1.3092  1.2421
 3462TIP3    H231802   2.068   6.707   6.706  1.4166  1.9993  0.2436
 3463TIP3   OH231803   4.329   1.107   1.299  0.7468 -0.3299  0.8068
 3463TIP3    H131804   4.238   1.134   1.311 -0.4011 -3.5652  0.4558
 3463TIP3    H231805   4.362   1.164   1.230 -1.3926  0.2346  0.1723
 3464TIP3   OH231806   2.494   2.866  15.048  0.5342 -0.1134  0.7509
 3464TIP3    H131807   2.447   2.947  15.031  0.7976 -0.0269  0.4450
 3464TIP3    H231808   2.460   2.804  14.983  0.5204 -0.1760  0.8175
 3465TIP3   OH231809   2.984   5.246  15.773 -0.2101  0.3828  0.2133
 3465TIP3    H131810   3.028   5.248  15.689 -1.3504 -1.6611 -0.5089
 3465TIP3    H231811   2.971   5.153  15.791 -1.0649  0.8083  2.0684
 3466TIP3   OH231812   6.467   2.376  15.665  0.1512  0.4918  0.1892
 3466TIP3    H131813   6.398   2.440  15.679  0.5450  0.7045  1.1847
 3466TIP3    H231814   6.431   2.316  15.599 -0.9023  0.7192  0.5472
 3467TIP3   OH231815   0.876   6.585  12.545  0.0229  0.0055  0.0303
 3467TIP3    H131816   0.847   6.629  12.465  0.5341 -0.1586 -0.2467
 3467TIP3    H231817   0.798   6.582  12.600 -0.7978 -1.4347 -1.1421
 3468TIP3   OH231818   0.577   3.218  11.857  0.3058 -0.5706 -0.2066
 3468TIP3    H131819   0.485   3.194  11.849  0.2608 -0.5584  0.2284
 3468TIP3    H231820   0.619   3.139  11.891  0.7619 -1.1428 -1.9984
 3469TIP3   OH231821   0.419   0.986  12.868 -0.4689  0.2040 -0.3403
 3469TIP3    H131822   0.338   1.037  12.869 -0.6654 -0.0359 -1.6061
 3469TIP3    H231823   0.403   0.913  12.927 -1.4960 -0.2872 -1.2012
 3470TIP3   OH231824   4.761   1.815   1.448 -0.2359 -0.2283  0.2800
 3470TIP3    H131825   4.674   1.855   1.447 -1.6725 -3.0976  0.3511
 3470TIP3    H231826   4.777   1.791   1.357 -0.5398 -1.6290  0.5714
 3471TIP3   OH231827   6.410   6.761   1.272  0.4691  0.0985 -0.0908
 3471TIP3    H131828   6.354   6.756   1.195 -1.1846 -3.3985  1.1388
 3471TIP3    H231829   6.366   6.823   1.330 -0.6874 -0.6034 -0.2004
 3472TIP3   OH231830   2.768   3.125  12.315 -0.5662  0.4819  0.3443
 3472TIP3    H131831   2.804   3.052  12.366  0.9830  1.3160  0.4824
 3472TIP3    H231832   2.748   3.192  12.381  1.6439  1.6491 -0.0986
 3473TIP3   OH231833   1.335   5.260   1.637  0.2158 -0.5669 -0.1166
 3473TIP3    H131834   1.361   5.254   1.545 -0.3087 -0.4468 -0.2763
 3473TIP3    H231835   1.313   5.352   1.649  0.3522 -0.5689  0.1500
 3474TIP3   OH231836   3.261   2.721   0.584  0.1706  0.6333  0.5814
 3474TIP3    H131837   3.353   2.702   0.563  0.7176  3.3974  0.0775
 3474TIP3    H231838   3.214   2.705   0.502 -0.1849 -2.3453  1.2401
 3475TIP3   OH231839   2.480   4.259   2.693 -0.5079 -0.3800  0.3826
 3475TIP3    H131840   2.569   4.226   2.680 -0.1033  0.4512  1.0046
 3475TIP3    H231841   2.491   4.348   2.726 -1.4802 -1.2727  3.4212
 3476TIP3   OH231842   4.651   3.862   6.142 -0.2801  1.1336 -0.2299
 3476TIP3    H131843   4.652   3.876   6.047 -0.6244  1.0661 -0.2453
 3476TIP3    H231844   4.684   3.772   6.154 -2.9910  0.0098 -0.5055
 3477TIP3   OH231845   1.126   0.568   2.682 -0.3325 -0.1325  0.2287
 3477TIP3    H131846   1.213   0.597   2.655 -0.9791 -0.1182 -2.0674
 3477TIP3    H231847   1.137   0.540   2.773  2.2231 -0.7969 -0.1976
 3478TIP3   OH231848   1.040   0.416   4.143  0.1189  0.3181 -0.3449
 3478TIP3    H131849   1.002   0.337   4.181  0.1449  0.0756 -0.8105
 3478TIP3    H231850   0.965   0.473   4.125 -0.2086 -0.6857 -2.4767
 3479TIP3   OH231851   5.063   4.000  17.078 -0.5974  0.5368  0.1939
 3479TIP3    H131852   5.077   3.948  17.157  1.2937 -2.1837 -1.7167
 3479TIP3    H231853   5.131   4.067  17.081 -0.5322  0.4466  0.8770
 3480TIP3   OH231854   3.009   3.520  14.268  0.0301  0.3528  0.5119
 3480TIP3    H131855   2.963   3.538  14.350 -1.7208  1.8220 -0.7057
 3480TIP3    H231856   2.950   3.462  14.219  0.5052  0.4474 -0.2018
 3481TIP3   OH231857   3.555   1.917  12.388  0.4260  0.2031  0.0647
 3481TIP3    H131858   3.593   1.948  12.470  0.0247 -0.4306  0.4952
 3481TIP3    H231859   3.461   1.919  12.403  0.2460  1.7374 -0.9855
 3482TIP3   OH231860   1.937   4.780   3.395  0.0646 -0.1085  0.4527
 3482TIP3    H131861   1.874   4.731   3.343 -0.8224 -0.0134  1.4048
 3482TIP3    H231862   1.969   4.848   3.336  1.1369 -1.6296 -0.8198
 3483TIP3   OH231863   2.411   1.527   3.905  0.5009  0.2178  0.1823
 3483TIP3    H131864   2.346   1.499   3.841  1.3859 -1.8163  0.1246
 3483TIP3    H231865   2.359   1.559   3.979 -0.5774 -0.8726 -0.0738
 3484TIP3   OH231866   5.245   6.597  13.003  0.0952 -0.1823 -0.4223
 3484TIP3    H131867   5.157   6.635  13.000  0.4862  0.8417  0.3849
 3484TIP3    H231868   5.230   6.502  13.003 -0.9639 -0.0365 -1.1405
 3485TIP3   OH231869   5.403   6.238   4.529 -0.0083 -0.1146 -0.2161
 3485TIP3    H131870   5.431   6.146   4.520 -0.3040 -0.5799  2.5920
 3485TIP3    H231871   5.318   6.241   4.486  0.0521 -1.1395 -0.4426
 3486TIP3   OH231872   2.269   3.915  11.942  0.3886 -0.2220 -0.2064
 3486TIP3    H131873   2.199   3.881  11.887  0.6553 -1.1849  0.0147
 3486TIP3    H231874   2.244   3.891  12.031  0.3370  0.6440  0.0235
 3487TIP3   OH231875   0.181   3.795  11.956 -0.0119 -0.2649  0.0311
 3487TIP3    H131876   0.229   3.714  11.973  1.2722  0.7272  1.4063
 3487TIP3    H231877   0.190   3.845  12.037  1.3459  2.2900 -1.5924
 3488TIP3   OH231878   6.056   4.799  14.294  0.5234 -0.0135  0.3817
 3488TIP3    H131879   6.045   4.731  14.227 -1.4103  0.5501  0.0510
 3488TIP3    H231880   6.083   4.751  14.372  2.6938 -0.7006 -0.7053
 3489TIP3   OH231881   6.699   4.637   5.077 -0.6198 -0.4725 -0.4138
 3489TIP3    H131882   6.651   4.555   5.073 -1.2585 -0.0563 -2.5942
 3489TIP3    H231883   6.735   4.649   4.989 -0.6715  1.6441 -0.2161
 3490TIP3   OH231884   3.959   4.125  12.159 -0.1588 -0.2581  0.7861
 3490TIP3    H131885   3.903   4.196  12.129  1.0612  1.0086  1.4304
 3490TIP3    H231886   3.939   4.115  12.252 -0.4254 -0.8733  0.6711
 3491TIP3   OH231887   1.420   4.967   4.115  0.1175  0.2695  0.2511
 3491TIP3    H131888   1.444   5.053   4.081 -0.4272  1.6453  3.0527
 3491TIP3    H231889   1.379   4.922   4.041  3.7783  0.8512 -2.3892
 3492TIP3   OH231890   3.997   1.270  11.665 -0.1713  0.2243 -0.4092
 3492TIP3    H131891   4.031   1.211  11.598 -0.0322 -1.0331  0.7257
 3492TIP3    H231892   4.075   1.301  11.712 -0.2914  0.8330 -0.6007
 3493TIP3   OH231893   4.670   5.612  13.866 -0.3402 -0.4109 -0.0470
 3493TIP3    H131894   4.586   5.631  13.824 -1.1830 -2.6103  0.5078
 3493TIP3    H231895   4.732   5.606  13.793 -0.4771  1.8756 -0.4133
 3494TIP3   OH231896   0.777   3.278   0.881  1.3047 -0.1244  0.1284
 3494TIP3    H131897   0.750   3.287   0.972 -0.4789 -3.0780 -0.0062
 3494TIP3    H231898   0.845   3.211   0.882 -1.0091 -2.6896 -0.9051
 3495TIP3   OH231899   5.060   1.455   0.445  0.1871  0.5923  0.2219
 3495TIP3    H131900   4.982   1.400   0.436  0.4446  0.1782  0.5275
 3495TIP3    H231901   5.129   1.407   0.400  0.1961  1.1098 -0.3224
 3496TIP3   OH231902   3.677   0.974   4.485  0.1668 -0.2423  0.2271
 3496TIP3    H131903   3.721   0.899   4.525 -0.5734 -0.8117  0.0060
 3496TIP3    H231904   3.653   0.943   4.397  0.7581  0.6013 -0.2463
 3497TIP3   OH231905   6.063   0.302  15.622  0.1422 -0.2580  0.5345
 3497TIP3    H131906   6.044   0.220  15.668  1.2964 -2.0922 -1.9761
 3497TIP3    H231907   6.158   0.301  15.609  0.0738  1.0699 -0.2808
 3498TIP3   OH231908   3.013   0.194  12.841  0.3243  0.5259  0.2146
 3498TIP3    H131909   2.962   0.139  12.781 -1.5383  0.7971  1.4587
 3498TIP3    H231910   2.995   0.283  12.812 -0.4845  0.6526  1.0769
 3499TIP3   OH231911   5.130   2.864   1.854  0.0080 -0.5526 -0.3215
 3499TIP3    H131912   5.162   2.779   1.824 -1.1267 -1.5789  1.2522
 3499TIP3    H231913   5.047   2.875   1.808 -1.1366 -1.5638  1.4119
 3500TIP3   OH231914   3.146   1.511   1.665 -0.0957 -0.0931  0.4778
 3500TIP3    H131915   3.151   1.424   1.625 -0.4532 -1.2076  2.7125
 3500TIP3    H231916   3.057   1.516   1.700  0.1292  0.9214  0.9523
 3501TIP3   OH231917   1.086   1.692  11.936  0.7476 -0.2463  0.3406
 3501TIP3    H131918   1.045   1.763  11.886  0.8261 -1.5611 -1.7232
 3501TIP3    H231919   1.083   1.722  12.027 -1.0472  1.4975 -0.2097
 3502TIP3   OH231920   6.547   3.503   6.241  0.1500  0.1423 -0.0754
 3502TIP3    H131921   6.637   3.528   6.264  0.4459 -0.3455 -0.6529
 3502TIP3    H231922   6.526   3.559   6.166 -0.1310  0.4474  0.2299
 3503TIP3   OH231923   1.541   4.920   0.252 -0.3022  0.3740 -0.5813
 3503TIP3    H131924   1.602   4.866   0.201 -0.7015  1.6494 -2.5157
 3503TIP3    H231925   1.497   4.858   0.310  2.3752 -0.6836  0.4816
 3504TIP3   OH231926   6.712   2.475  10.750 -0.1465  0.3370 -0.1581
 3504TIP3    H131927   6.741   2.397  10.797 -3.7047 -1.1565 -0.1285
 3504TIP3    H231928   6.788   2.502  10.699  1.7874 -1.9969  1.2776
 3505TIP3   OH231929   6.307   1.385  14.284 -0.2186  0.2489  0.1643
 3505TIP3    H131930   6.226   1.433  14.306 -1.2382 -0.7114 -1.2908
 3505TIP3    H231931   6.332   1.341  14.365 -0.8205  1.0362  0.7924
 3506TIP3   OH231932   6.745   2.040   0.073  0.1654  0.3604  0.2385
 3506TIP3    H131933   6.715   2.088   0.151 -0.3697  0.6867 -0.1650
 3506TIP3    H231934   6.686   1.965   0.067 -0.3174  0.7752 -0.3148
 3507TIP3   OH231935   2.344   5.736   4.126 -0.4357  0.0711 -0.0038
 3507TIP3    H131936   2.258   5.719   4.086 -0.0622 -1.2460 -0.2836
 3507TIP3    H231937   2.323   5.782   4.208 -1.4751 -0.8421  0.2731
 3508TIP3   OH231938   4.310   0.320  16.758 -0.0963 -0.2514 -0.8953
 3508TIP3    H131939   4.308   0.412  16.732 -0.5451 -0.5266 -1.8716
 3508TIP3    H231940   4.403   0.299  16.764  0.0644 -0.3088 -2.8339
 3509TIP3   OH231941   5.313   6.532   2.964 -0.2752 -0.8268 -0.2617
 3509TIP3    H131942   5.329   6.438   2.957  0.6457 -0.6861 -0.2551
 3509TIP3    H231943   5.398   6.572   2.944  0.5236 -0.1207  3.6042
 3510TIP3   OH231944   0.156   1.070  14.601  0.6765 -0.1951  0.0410
 3510TIP3    H131945   0.233   1.020  14.628  0.4956 -0.4316  0.1212
 3510TIP3    H231946   0.130   1.029  14.518  1.3435  0.6483 -0.6062
 3511TIP3   OH231947   6.558   3.388   3.720 -0.3843 -0.2453  0.3685
 3511TIP3    H131948   6.592   3.382   3.809  0.6647 -0.1530 -0.0108
 3511TIP3    H231949   6.587   3.474   3.690  0.6033 -0.8797 -0.5784
 3512TIP3   OH231950   3.821   5.681   1.664  0.0484  0.1032 -0.1768
 3512TIP3    H131951   3.826   5.724   1.578 -0.4234 -0.1949 -0.3610
 3512TIP3    H231952   3.879   5.604   1.655 -1.3334 -0.9132 -0.8364
 3513TIP3   OH231953   4.627   0.884   2.005  0.0639  0.0029  0.2726
 3513TIP3    H131954   4.577   0.907   1.926  0.6824 -1.8122 -0.7013
 3513TIP3    H231955   4.718   0.900   1.980  0.3506 -1.5801  0.2205
 3514TIP3   OH231956   3.505   5.302   0.408 -0.5597 -0.0081 -0.0166
 3514TIP3    H131957   3.479   5.268   0.323 -0.4590  0.5277 -0.2646
 3514TIP3    H231958   3.467   5.241   0.471 -3.6511  1.4870 -0.2859
 3515TIP3   OH231959   6.711   0.352   4.202 -0.3803 -0.4070 -0.1678
 3515TIP3    H131960   6.704   0.267   4.247 -1.2276 -0.7289 -0.8748
 3515TIP3    H231961   6.745   0.330   4.115 -0.6936 -0.0350 -0.3857
 3516TIP3   OH231962   3.056   4.943   0.669 -0.1776 -0.4491 -0.0223
 3516TIP3    H131963   3.049   4.909   0.758  1.1515 -0.8756 -0.0539
 3516TIP3    H231964   2.971   4.983   0.651 -0.5095 -0.4920  1.3761
 3517TIP3   OH231965   3.223   3.509   1.700  0.0141 -0.0942 -0.5224
 3517TIP3    H131966   3.266   3.490   1.784 -0.3278 -0.2121 -0.3704
 3517TIP3    H231967   3.253   3.597   1.678 -1.5549  0.8363  0.8044
 3518TIP3   OH231968   2.723   2.750  15.167  0.5576 -0.1562 -0.0694
 3518TIP3    H131969   2.665   2.682  15.201  1.6594 -1.4000 -0.5778
 3518TIP3    H231970   2.665   2.813  15.125 -0.5086 -0.6553  0.6113
 3519TIP3   OH231971   6.633   5.437  15.465 -0.2783 -0.7258 -0.4008
 3519TIP3    H131972   6.657   5.527  15.483 -0.2532 -0.3697 -2.0957
 3519TIP3    H231973   6.590   5.407  15.546  0.9805  0.3189  0.6964
 3520TIP3   OH231974   3.917   3.172   1.814  0.0491  0.0759  0.0505
 3520TIP3    H131975   3.935   3.136   1.901 -0.2796 -0.7689 -0.2175
 3520TIP3    H231976   3.940   3.265   1.821 -0.1190  0.0557  1.0848
 3521TIP3   OH231977   5.364   5.701   5.814  0.6214  0.3038 -0.2827
 3521TIP3    H131978   5.410   5.723   5.733  1.9406 -0.2024  0.3037
 3521TIP3    H231979   5.432   5.668   5.872 -0.7166 -1.9096  0.1188
 3522TIP3   OH231980   1.493   6.524  15.570 -0.1273 -0.0198 -0.0499
 3522TIP3    H131981   1.586   6.548  15.571 -0.0600 -0.2740 -0.0740
 3522TIP3    H231982   1.450   6.591  15.624  0.2677 -0.7124  1.1712
 3523TIP3   OH231983   3.030   5.248   1.062 -0.6157 -0.0025  0.1201
 3523TIP3    H131984   3.107   5.305   1.067 -0.8669  0.2927  0.7986
 3523TIP3    H231985   2.978   5.283   0.990  1.0850 -1.7474 -2.0943
 3524TIP3   OH231986   0.062   0.720  16.833  0.3338 -0.0630 -0.2094
 3524TIP3    H131987   0.156   0.725  16.815  0.1790  0.0422 -1.0683
 3524TIP3    H231988   0.056   0.692  16.924  1.2046  2.1891  0.6024
 3525TIP3   OH231989   0.318   6.287  15.088  0.2158  0.2990  0.1603
 3525TIP3    H131990   0.224   6.302  15.075  0.5728  1.0134 -1.9233
 3525TIP3    H231991   0.351   6.373  15.116  0.1976 -0.1108  1.5514
 3526TIP3   OH231992   3.327   6.046  11.598  0.5646  0.0884  0.3336
 3526TIP3    H131993   3.276   6.089  11.530  2.8208  0.7882 -1.0301
 3526TIP3    H231994   3.346   5.958  11.563  1.6290  0.4066  0.0759
 3527TIP3   OH231995   0.177   3.105  13.915 -0.1305  0.0589 -0.5076
 3527TIP3    H131996   0.152   3.024  13.870 -1.1734  0.5708 -0.8838
 3527TIP3    H231997   0.261   3.129  13.875  0.6814 -1.3290  0.2913
 3528TIP3   OH231998   5.916   4.114   2.361  0.3203  0.2139 -0.1536
 3528TIP3    H131999   5.979   4.182   2.383  0.7315 -0.2967  0.3043
 3528TIP3    H232000   5.831   4.158   2.361  0.5943  0.7503 -0.0089
 3529TIP3   OH232001   0.422   3.635   5.922  0.2068  0.0045  0.0376
 3529TIP3    H132002   0.365   3.712   5.915  0.3338  0.1447  0.4855
 3529TIP3    H232003   0.390   3.575   5.856  0.8476  0.9228 -1.1673
 3530TIP3   OH232004   6.721   5.766  11.994 -0.3029 -0.1510 -0.1212
 3530TIP3    H132005   6.694   5.749  11.903  0.9132  0.7737 -0.6941
 3530TIP3    H232006   6.775   5.691  12.017  1.5081  0.7564 -1.1206
 3531TIP3   OH232007   3.229   4.846  13.070  0.2195  0.1917  0.4743
 3531TIP3    H132008   3.276   4.796  13.003  0.8876  0.0622  1.0242
 3531TIP3    H232009   3.240   4.937  13.044 -0.1279  0.1070  0.0220
 3532TIP3   OH232010   4.069   4.371   2.242 -0.5714 -0.9886  0.3240
 3532TIP3    H132011   4.105   4.290   2.206 -0.4895 -0.8782  0.1565
 3532TIP3    H232012   3.986   4.383   2.196  0.5379  0.3117 -1.4568
 3533TIP3   OH232013   4.271   2.337  16.520  0.7254 -0.4038 -0.3923
 3533TIP3    H132014   4.363   2.313  16.531  0.1620 -1.9664  1.8586
 3533TIP3    H232015   4.231   2.259  16.481  0.4727  0.6368 -2.3186
 3534TIP3   OH232016   2.171   5.606  14.382  0.3755 -0.0095  0.1002
 3534TIP3    H132017   2.188   5.621  14.475 -1.8672 -0.2013  0.5969
 3534TIP3    H232018   2.154   5.692  14.346 -0.5181 -0.0916  0.2921
 3535TIP3   OH232019   3.419   5.308  13.634  0.9101 -0.1042  0.5997
 3535TIP3    H132020   3.384   5.261  13.559  0.6376  0.2087  0.5286
 3535TIP3    H232021   3.369   5.276  13.708 -1.1779  1.9865  0.2114
 3536TIP3   OH232022   4.379   5.660   5.164  0.6595 -0.1436 -0.3355
 3536TIP3    H132023   4.358   5.705   5.246  1.1790 -0.6268  0.0739
 3536TIP3    H232024   4.318   5.696   5.100  0.1185  0.1035  0.3114
 3537TIP3   OH232025   1.297   0.481  16.629  0.2047  0.7550  0.5503
 3537TIP3    H132026   1.237   0.543  16.587 -0.4058 -0.2782 -0.1538
 3537TIP3    H232027   1.384   0.512  16.607 -0.0583  2.0219  1.1956
 3538TIP3   OH232028   4.416   1.807  14.875 -0.4789  0.1341  0.0649
 3538TIP3    H132029   4.417   1.743  14.804 -0.1155  0.2053  0.0066
 3538TIP3    H232030   4.490   1.783  14.931 -0.0555  0.7813 -0.2087
 3539TIP3   OH232031   5.224   6.591   3.520  0.1573  0.0701  0.3122
 3539TIP3    H132032   5.297   6.634   3.476 -0.2146  1.0361  0.6281
 3539TIP3    H232033   5.152   6.654   3.516 -0.6639 -0.8526  0.0358
 3540TIP3   OH232034   5.392   2.246   5.827 -0.0412  0.2903  0.1116
 3540TIP3    H132035   5.414   2.262   5.735  1.3837  0.7642  0.5082
 3540TIP3    H232036   5.381   2.151   5.833  2.5291 -0.0930 -0.0448
 3541TIP3   OH232037   0.269   5.209  14.872  0.3705 -0.6573 -0.3251
 3541TIP3    H132038   0.358   5.242  14.859 -0.3462  1.7740  0.3902
 3541TIP3    H232039   0.243   5.175  14.787  0.5843  2.3798 -1.7473
 3542TIP3   OH232040   4.602   2.045   0.036 -0.4415  0.3871 -0.1175
 3542TIP3    H132041   4.541   2.112   0.070  0.1724  1.1439 -0.4702
 3542TIP3    H232042   4.621   2.074  -0.053 -1.7342 -1.3670 -1.0141
 3543TIP3   OH232043   0.409   3.640  15.045 -0.1835  0.3952 -0.0205
 3543TIP3    H132044   0.351   3.639  15.121 -0.2950 -1.3350 -0.0790
 3543TIP3    H232045   0.370   3.704  14.985 -1.3071  0.2137  0.4926
 3544TIP3   OH232046   3.531   2.800   2.625 -0.2097  0.0903  0.1887
 3544TIP3    H132047   3.445   2.798   2.584 -0.6473 -0.9832  1.1050
 3544TIP3    H232048   3.590   2.831   2.556 -1.3340  0.9357 -0.4190
 3545TIP3   OH232049   2.525   0.330   5.801  0.3129  0.3436  0.0323
 3545TIP3    H132050   2.611   0.288   5.810  0.7247  1.4317  1.5948
 3545TIP3    H232051   2.528   0.403   5.863 -1.3194  1.1152 -0.7560
 3546TIP3   OH232052   4.827   0.335   0.593 -0.0598  0.1468  0.2707
 3546TIP3    H132053   4.914   0.372   0.585 -0.3947  0.9410  0.1929
 3546TIP3    H232054   4.822   0.270   0.523  1.0495 -1.1279  1.3237
 3547TIP3   OH232055   6.142   5.784   0.064 -0.0597 -0.5949  0.1251
 3547TIP3    H132056   6.075   5.733   0.017  0.9520 -0.6374 -1.3451
 3547TIP3    H232057   6.093   5.856   0.103 -1.2991 -1.8973  1.0646
 3548TIP3   OH232058   2.393   0.166   5.343 -0.3894  0.2796  0.2437
 3548TIP3    H132059   2.413   0.228   5.413  1.8416 -0.2305  0.1101
 3548TIP3    H232060   2.319   0.206   5.297  0.2855  2.3170  0.8098
 3549TIP3   OH232061   4.313   3.672  13.135  0.2070  0.5405  0.0806
 3549TIP3    H132062   4.221   3.696  13.119  0.0351  0.1857  0.5325
 3549TIP3    H232063   4.309   3.609  13.206  0.8833  1.3077  0.8152
 3550TIP3   OH232064   3.371   6.442   6.338 -0.0061  0.3711 -0.0068
 3550TIP3    H132065   3.368   6.445   6.434 -2.2654  1.3677 -0.0457
 3550TIP3    H232066   3.463   6.455   6.317  0.3645  1.5759  2.0208
 3551TIP3   OH232067   4.320   3.252   1.054  0.3824  0.1350 -0.3896
 3551TIP3    H132068   4.356   3.180   1.001  0.7430  1.1192 -1.5175
 3551TIP3    H232069   4.373   3.251   1.133 -0.2900 -1.4876  0.0995
 3552TIP3   OH232070   5.318   0.398   1.448  0.2645 -0.2444  0.3077
 3552TIP3    H132071   5.401   0.440   1.423 -0.8166  1.0147 -1.4104
 3552TIP3    H232072   5.254   0.469   1.447 -0.8974 -1.2497  1.3046
 3553TIP3   OH232073   5.514   2.185  15.579 -0.2049  0.4251 -0.5036
 3553TIP3    H132074   5.499   2.276  15.603  0.5327  0.7753 -1.2812
 3553TIP3    H232075   5.516   2.137  15.662 -3.8437  0.5379 -0.1979
 3554TIP3   OH232076   6.774   0.311   2.403  0.2210 -0.1759 -0.2860
 3554TIP3    H132077   6.769   0.321   2.498 -0.5304 -0.7045 -0.2671
 3554TIP3    H232078   6.794   0.399   2.371 -3.2143  0.8659  0.0903
 3555TIP3   OH232079   5.501   5.885  14.223  0.0237  0.7825 -0.1516
 3555TIP3    H132080   5.503   5.863  14.130 -2.5259  0.0803 -0.1165
 3555TIP3    H232081   5.420   5.845  14.255  0.1820  2.1029  2.0991
 3556TIP3   OH232082   4.392   6.009  16.321 -0.1155 -0.3438  0.1870
 3556TIP3    H132083   4.342   6.060  16.384 -0.3612 -1.9909  1.4141
 3556TIP3    H232084   4.482   6.040  16.330 -0.4645  0.7538 -0.0452
 3557TIP3   OH232085   1.222   2.111   5.030  0.3925 -0.0318 -0.2106
 3557TIP3    H132086   1.275   2.033   5.041 -0.2787 -0.2898  1.4770
 3557TIP3    H232087   1.158   2.088   4.964  0.0004 -1.0390  0.5009
 3558TIP3   OH232088   6.380   5.644   3.428 -0.0024 -0.1825  0.1530
 3558TIP3    H132089   6.428   5.726   3.414 -0.4298 -0.2881 -2.3900
 3558TIP3    H232090   6.295   5.659   3.386  0.3624 -2.2955 -1.5035
 3559TIP3   OH232091   6.407   6.217  12.957  0.2274  0.1616  0.3839
 3559TIP3    H132092   6.361   6.173  12.886 -0.3074 -0.3870  1.0595
 3559TIP3    H232093   6.389   6.164  13.035 -0.6586  1.7108  1.2882
 3560TIP3   OH232094   0.859   3.528   5.734  0.3852 -0.0510  0.2717
 3560TIP3    H132095   0.819   3.457   5.784  0.3707 -0.1248  0.1552
 3560TIP3    H232096   0.842   3.506   5.642 -0.1448  0.4140  0.2537
 3561TIP3   OH232097   5.445   0.751   5.994  0.3035 -0.0933  0.0004
 3561TIP3    H132098   5.482   0.840   5.993  0.4677 -0.1562 -1.7263
 3561TIP3    H232099   5.456   0.723   6.085  2.7596  0.6339  0.0216
 3562TIP3   OH232100   4.314   2.750  12.311  0.0131 -0.6629  0.4626
 3562TIP3    H132101   4.228   2.748  12.270  0.2875 -4.0692 -0.2256
 3562TIP3    H232102   4.366   2.810  12.257 -0.9862 -1.2558 -1.2144
 3563TIP3   OH232103   5.025   5.845  13.756  0.1044 -0.2437  0.6453
 3563TIP3    H132104   4.985   5.860  13.842 -0.4716  0.5974  0.2418
 3563TIP3    H232105   5.045   5.933  13.723 -1.6242 -0.4182 -0.9875
 3564TIP3   OH232106   0.667   1.141   1.313  0.2640 -0.4799  0.3637
 3564TIP3    H132107   0.610   1.073   1.275 -1.0871  1.6794 -1.7699
 3564TIP3    H232108   0.741   1.147   1.253  1.0387 -0.8991  1.2512
 3565TIP3   OH232109   0.447   3.126   6.514  0.4834 -1.0541 -0.6954
 3565TIP3    H132110   0.511   3.112   6.583 -2.0843  0.1385  2.1628
 3565TIP3    H232111   0.436   3.221   6.510 -3.6961 -1.1936  1.7812
 3566TIP3   OH232112   3.499   4.484   0.427  0.1729  0.0331  0.0344
 3566TIP3    H132113   3.566   4.422   0.397  0.5679  0.2875  0.3670
 3566TIP3    H232114   3.476   4.534   0.350  0.6138  0.1642 -0.0178
 3567TIP3   OH232115   0.228   6.608  11.240  0.5004 -0.1553 -0.4340
 3567TIP3    H132116   0.243   6.635  11.330  1.5072  1.8757 -1.1442
 3567TIP3    H232117   0.307   6.559  11.216  0.3960 -0.3715 -0.3433
 3568TIP3   OH232118   0.809   6.718  11.644 -0.1697 -0.0349  0.4024
 3568TIP3    H132119   0.779   6.800  11.681 -0.5861 -1.1438  2.7167
 3568TIP3    H232120   0.736   6.657  11.657  0.6366 -1.1134  0.0543
 3569TIP3   OH232121   0.548   1.447   5.255  0.0008 -0.4242 -0.1835
 3569TIP3    H132122   0.580   1.537   5.249  0.4591 -0.6670 -1.8550
 3569TIP3    H232123   0.606   1.397   5.197 -2.0379 -1.2775 -1.5980
 3570TIP3   OH232124   3.143   1.085  15.561 -0.1653  0.7015 -0.1588
 3570TIP3    H132125   3.070   1.114  15.615  0.2435  0.3492  0.5902
 3570TIP3    H232126   3.164   0.997  15.593  1.4390  1.2966  0.5382
 3571TIP3   OH232127   4.636   6.570  14.088 -0.3143  0.4889 -0.1671
 3571TIP3    H132128   4.621   6.626  14.164  0.2131  0.4337 -0.0230
 3571TIP3    H232129   4.637   6.631  14.013 -2.5845  0.3695 -0.3631
 3572TIP3   OH232130   4.755   3.458   2.594  0.0843 -0.2268 -0.4932
 3572TIP3    H132131   4.779   3.365   2.600 -0.8216 -0.5442 -1.4642
 3572TIP3    H232132   4.752   3.475   2.500  1.9968  1.2885 -0.3453
 3573TIP3   OH232133   1.130   5.147   4.294 -0.8977  0.1441 -0.3058
 3573TIP3    H132134   1.176   5.216   4.342 -1.5420  0.2926  0.1165
 3573TIP3    H232135   1.039   5.156   4.321 -0.5681 -3.0204  2.4102
 3574TIP3   OH232136   4.818   2.197   1.244 -0.0934  0.2481 -0.3183
 3574TIP3    H132137   4.771   2.145   1.179 -0.9769 -0.0365  0.5272
 3574TIP3    H232138   4.765   2.191   1.324  0.3722  1.5160  0.1258
 3575TIP3   OH232139   4.856   3.045   4.367 -0.4164 -0.1830  0.3588
 3575TIP3    H132140   4.918   3.114   4.391 -0.0480 -0.5572  0.5054
 3575TIP3    H232141   4.813   3.079   4.288  1.3573 -0.7007 -0.9225
 3576TIP3   OH232142   3.395   1.894   3.369  0.0472 -0.1597  0.2570
 3576TIP3    H132143   3.438   1.866   3.449  3.7304  2.4372 -0.5194
 3576TIP3    H232144   3.370   1.985   3.386  0.5669  0.3229 -1.3675
 3577TIP3   OH232145   4.024   0.167  12.157 -0.1467 -0.8728  0.1597
 3577TIP3    H132146   3.989   0.194  12.072 -0.3348 -1.7772 -0.0629
 3577TIP3    H232147   3.968   0.210  12.221  0.2478  0.1446 -0.1641
 3578TIP3   OH232148   4.308   4.787  12.372 -0.5486 -0.3233 -0.6031
 3578TIP3    H132149   4.229   4.785  12.318 -1.9232 -0.2156  1.3013
 3578TIP3    H232150   4.339   4.697  12.373 -2.1227 -0.9008  0.6197
 3579TIP3   OH232151   1.989   6.480   2.979 -0.2544  0.1917 -0.1459
 3579TIP3    H132152   2.071   6.478   3.030  0.2681 -2.4134 -0.9184
 3579TIP3    H232153   1.922   6.453   3.042 -0.1176 -0.0145 -0.0855
 3580TIP3   OH232154   1.532   4.877   2.357 -0.0347  0.2701  0.2639
 3580TIP3    H132155   1.463   4.894   2.421 -1.3992  1.8191 -1.5145
 3580TIP3    H232156   1.515   4.788   2.326 -1.1817  0.5901 -0.0641
 3581TIP3   OH232157   2.502   3.038   0.492  0.4600 -0.2889  0.2507
 3581TIP3    H132158   2.588   2.998   0.502  0.6461  0.2928  1.0895
 3581TIP3    H232159   2.485   3.079   0.577 -1.3990 -1.8575  0.6880
 3582TIP3   OH232160   5.719   0.392   0.400 -0.6875  0.2174  0.3626
 3582TIP3    H132161   5.709   0.464   0.462  0.3580 -0.4245  1.3230
 3582TIP3    H232162   5.787   0.420   0.339 -0.4234  0.1373  0.6160
 3583TIP3   OH232163   6.155   3.783   5.301  0.1079 -0.1053 -0.3017
 3583TIP3    H132164   6.071   3.799   5.258 -2.9772 -0.2556  4.8839
 3583TIP3    H232165   6.163   3.688   5.305 -0.1920 -0.1024  0.4065
 3584TIP3   OH232166   3.282   0.235  16.463 -0.1472  0.1470  0.1020
 3584TIP3    H132167   3.330   0.196  16.536 -0.0950  1.5458  0.8451
 3584TIP3    H232168   3.347   0.241  16.393  0.8018  1.9246  1.0610
 3585TIP3   OH232169   2.784   4.576  11.438 -0.3389  0.3216 -0.3575
 3585TIP3    H132170   2.861   4.631  11.450  0.1407 -0.5627  0.7395
 3585TIP3    H232171   2.819   4.487  11.431 -1.1709  0.0409 -1.1387
 3586TIP3   OH232172   1.024   4.830   6.427  0.0147  0.4312  0.6873
 3586TIP3    H132173   0.959   4.878   6.375  0.7908 -0.3165 -1.0448
 3586TIP3    H232174   1.027   4.743   6.387  1.1795  0.0592  1.5459
 3587TIP3   OH232175   3.004   4.288  15.021 -0.3204  0.0783 -0.2048
 3587TIP3    H132176   3.012   4.206  14.973 -1.0794  0.2222 -0.5851
 3587TIP3    H232177   3.094   4.322  15.024  0.0435 -0.8835  0.1838
 3588TIP3   OH232178   0.516   2.532   1.049 -0.8496 -0.9716 -0.4575
 3588TIP3    H132179   0.428   2.562   1.024 -1.2603 -1.5550  0.2526
 3588TIP3    H232180   0.575   2.579   0.989 -1.5243  0.6300  0.0727
 3589TIP3   OH232181   6.123   4.902  12.080  0.0718  0.0821  0.0111
 3589TIP3    H132182   6.218   4.907  12.069  0.1085  0.5796  0.4942
 3589TIP3    H232183   6.088   4.922  11.994  0.4244 -3.1265 -0.9861
 3590TIP3   OH232184   6.159   5.705   1.175  0.3240 -0.4912 -0.4534
 3590TIP3    H132185   6.083   5.746   1.216  0.9076 -0.2710  0.4424
 3590TIP3    H232186   6.234   5.751   1.212  0.9230 -1.1959 -0.7701
 3591TIP3   OH232187   2.938   4.935  11.632 -0.5051  0.5360  0.0691
 3591TIP3    H132188   2.929   4.934  11.537 -2.0059 -0.7768  0.1799
 3591TIP3    H232189   2.859   4.980  11.664 -1.5001 -1.5222  0.7377
 3592TIP3   OH232190   3.208   4.264  16.026  0.0637 -0.0519 -0.4502
 3592TIP3    H132191   3.249   4.184  15.995 -0.9900 -1.3549  1.3145
 3592TIP3    H232192   3.115   4.243  16.030 -0.0791  0.7520  1.3754
 3593TIP3   OH232193   4.425   2.741  17.055 -0.0595  0.0259 -0.1622
 3593TIP3    H132194   4.454   2.671  16.996  0.3908  0.7741 -0.8472
 3593TIP3    H232195   4.375   2.799  17.000  0.4396  0.7879  0.1707
 3594TIP3   OH232196   2.182   4.218  12.558 -0.5227  0.0440 -0.1838
 3594TIP3    H132197   2.210   4.136  12.599 -0.1733  0.2424 -0.0150
 3594TIP3    H232198   2.163   4.276  12.632  2.2732  1.1443 -0.2154
 3595TIP3   OH232199   0.759   1.086  14.193  0.4114 -0.4310 -0.8889
 3595TIP3    H132200   0.753   1.047  14.106 -1.7297  1.5119 -1.6908
 3595TIP3    H232201   0.672   1.120  14.211  1.2298  0.7421  1.3183
 3596TIP3   OH232202   2.490   0.195  11.809  0.2491  0.0142  0.1971
 3596TIP3    H132203   2.419   0.211  11.872  2.1714  3.4281  1.8373
 3596TIP3    H232204   2.501   0.279  11.764  2.5597 -0.6837 -0.7012
 3597TIP3   OH232205   3.673   4.170   4.950  0.0347 -0.0971 -0.2595
 3597TIP3    H132206   3.640   4.084   4.923 -0.9297  0.1266  0.1688
 3597TIP3    H232207   3.659   4.226   4.873  0.2079 -0.2078 -0.3710
 3598TIP3   OH232208   4.305   4.126  11.056  0.2940 -0.0259 -0.3606
 3598TIP3    H132209   4.222   4.112  11.009  0.2481  0.3481 -0.3952
 3598TIP3    H232210   4.359   4.051  11.032 -0.0377 -0.2742 -0.3345
 3599TIP3   OH232211   4.824   3.686  16.517 -0.0554  0.2866  0.5804
 3599TIP3    H132212   4.870   3.634  16.583  1.0490  0.7182  0.1798
 3599TIP3    H232213   4.853   3.651  16.434 -1.0009  0.1229  0.3090
 3600TIP3   OH232214   6.598   5.383   1.853 -0.4397  0.5172  0.1857
 3600TIP3    H132215   6.605   5.431   1.935 -1.5421  1.7062 -0.3780
 3600TIP3    H232216   6.514   5.411   1.816 -0.3307 -0.5991 -0.9657
 3601TIP3   OH232217   4.460   1.816  11.938 -0.7960  0.3536 -0.5379
 3601TIP3    H132218   4.489   1.905  11.959  2.1015 -0.5539 -0.2858
 3601TIP3    H232219   4.445   1.817  11.844 -0.3894  1.0006 -0.5989
 3602TIP3   OH232220   0.775   5.045  15.627 -0.3279  0.0469 -0.1214
 3602TIP3    H132221   0.735   5.104  15.692  0.7814  0.2644  0.3802
 3602TIP3    H232222   0.732   5.068  15.545 -2.0277 -0.4866  0.5707
 3603TIP3   OH232223   3.776   1.111   4.899 -0.7414 -0.0167  0.3322
 3603TIP3    H132224   3.796   1.052   4.826 -0.7212 -1.1362  1.2009
 3603TIP3    H232225   3.710   1.064   4.950 -1.3130  1.0767  0.6340
 3604TIP3   OH232226   3.052   1.104  16.797  0.1652 -0.1392 -0.5153
 3604TIP3    H132227   3.008   1.150  16.725 -1.6457  0.2927  0.7746
 3604TIP3    H232228   3.007   1.020  16.802  1.3716 -0.8195 -0.8916
 3605TIP3   OH232229   1.282   2.687   3.430 -0.0686  0.8316  0.0738
 3605TIP3    H132230   1.320   2.747   3.365  0.0136  0.5246 -0.1686
 3605TIP3    H232231   1.189   2.682   3.408  0.2814 -0.8036 -1.2971
 3606TIP3   OH232232   5.671   4.131  14.989 -0.5939 -0.3381 -0.3806
 3606TIP3    H132233   5.646   4.212  14.945 -0.6527 -1.1944 -1.9950
 3606TIP3    H232234   5.640   4.062  14.931  2.9104 -1.4932 -1.0705
 3607TIP3   OH232235   0.719   3.661   2.038  0.1324 -0.0817  0.4111
 3607TIP3    H132236   0.716   3.649   1.943  1.8880  0.0101  0.3248
 3607TIP3    H232237   0.709   3.572   2.073  2.3073 -0.5128  0.0408
 3608TIP3   OH232238   6.357   1.601   1.073  0.3203 -0.4278  0.3175
 3608TIP3    H132239   6.417   1.675   1.084 -1.5911  1.1206  1.0361
 3608TIP3    H232240   6.334   1.575   1.162 -0.4991 -0.6130  0.0647
 3609TIP3   OH232241   5.956   6.304   0.107  0.0888  0.9356  0.2180
 3609TIP3    H132242   5.987   6.390   0.079  0.8255  0.7330  0.3905
 3609TIP3    H232243   6.000   6.289   0.191  0.0750  0.3319  0.1235
 3610TIP3   OH232244   5.916   2.338   1.175 -0.0116  0.2573  0.2782
 3610TIP3    H132245   5.861   2.408   1.143 -1.6016 -0.8760  0.4116
 3610TIP3    H232246   5.883   2.259   1.132  0.9889 -0.5816  0.9790
 3611TIP3   OH232247   4.681   1.070  10.833  0.6831  0.3445  0.0059
 3611TIP3    H132248   4.699   0.982  10.800  1.6717 -0.5678  2.6918
 3611TIP3    H232249   4.755   1.089  10.891  0.0685  2.6263  0.1235
 3612TIP3   OH232250   1.256   3.219  10.983  0.0961  0.1978  0.3977
 3612TIP3    H132251   1.280   3.303  10.943  0.8493  0.5509  1.5331
 3612TIP3    H232252   1.178   3.191  10.936  0.4180  1.0415 -0.6796
 3613TIP3   OH232253   5.468   4.799   5.723  0.4019  0.2434 -0.0380
 3613TIP3    H132254   5.529   4.785   5.796 -1.7502 -0.4226  1.7312
 3613TIP3    H232255   5.454   4.894   5.722  3.4256  0.8439 -2.2778
 3614TIP3   OH232256   3.908   2.977  12.276 -0.5096 -0.1472 -0.3895
 3614TIP3    H132257   3.815   2.969  12.256 -0.6383  0.5631 -0.1283
 3614TIP3    H232258   3.938   3.047  12.219 -0.0731 -0.5583 -0.6644
 3615TIP3   OH232259   5.428   3.136  14.299 -0.1023  0.0404 -0.3654
 3615TIP3    H132260   5.504   3.084  14.273  0.5278 -0.2193  1.7498
 3615TIP3    H232261   5.463   3.222  14.321 -0.8083  0.6857 -1.6667
 3616TIP3   OH232262   5.000   2.685  15.613  0.2024 -0.1498  0.5865
 3616TIP3    H132263   5.077   2.633  15.589 -0.6394 -0.0083 -3.0600
 3616TIP3    H232264   5.034   2.772  15.632  1.0950 -0.4982  0.6166
 3617TIP3   OH232265   1.823   6.615  11.647 -0.0390  0.3107  0.8646
 3617TIP3    H132266   1.847   6.583  11.733 -0.8500 -1.1387  0.5721
 3617TIP3    H232267   1.901   6.598  11.593  0.1197  0.3355  1.0847
 3618TIP3   OH232268   0.502   0.269   2.592  0.4733 -0.0843 -0.4298
 3618TIP3    H132269   0.471   0.220   2.669 -1.6539 -1.0717 -1.8224
 3618TIP3    H232270   0.434   0.334   2.576  1.1432  0.4471 -1.1809
 3619TIP3   OH232271   2.298   5.281  16.515 -0.1386  0.0735 -0.0017
 3619TIP3    H132272   2.231   5.293  16.582 -0.0330  1.0790 -0.0566
 3619TIP3    H232273   2.258   5.314  16.434  1.0179  2.4635  0.3098
 3620TIP3   OH232274   6.216   1.405   3.134  0.7573  0.1774  0.1999
 3620TIP3    H132275   6.236   1.338   3.070 -0.5386 -1.2486  1.2090
 3620TIP3    H232276   6.136   1.446   3.102  0.5862  0.0512  0.4622
 3621TIP3   OH232277   4.601   4.921  16.548 -0.7547  0.1919 -0.0710
 3621TIP3    H132278   4.570   4.942  16.460 -1.7906  2.0563  0.6909
 3621TIP3    H232279   4.646   5.000  16.577 -0.0433 -0.5564  0.9201
 3622TIP3   OH232280   1.373   0.153   4.094  0.0809 -0.2888 -0.3356
 3622TIP3    H132281   1.451   0.185   4.139 -0.2727  2.1357 -1.2535
 3622TIP3    H232282   1.407   0.107   4.017  0.6266 -0.6606  0.1254
 3623TIP3   OH232283   3.192   0.151   4.654 -0.1495 -0.1389  0.4765
 3623TIP3    H132284   3.210   0.228   4.600 -0.1159 -0.0781  0.5735
 3623TIP3    H232285   3.158   0.187   4.736  0.8631 -0.1645  0.9309
 3624TIP3   OH232286   1.230   0.540   0.720  0.5640 -0.1202 -0.5539
 3624TIP3    H132287   1.212   0.447   0.712 -0.6907 -0.1530  1.7409
 3624TIP3    H232288   1.165   0.582   0.664 -2.5646 -0.5414  2.3815
 3625TIP3   OH232289   4.729   1.999  12.927 -0.4955  0.0498 -0.0592
 3625TIP3    H132290   4.677   2.052  12.867  0.6630  0.6341 -0.5858
 3625TIP3    H232291   4.820   2.022  12.906 -0.0420 -0.4263  1.2853
 3626TIP3   OH232292   4.518   6.371   4.958 -0.9178 -0.5196  0.0084
 3626TIP3    H132293   4.590   6.336   4.905  1.6474  2.8859  0.8757
 3626TIP3    H232294   4.458   6.411   4.894 -1.5265 -2.3872 -0.6480
 3627TIP3   OH232295   2.064   1.889  14.820  1.0237 -0.4458 -0.0468
 3627TIP3    H132296   2.087   1.981  14.814 -0.0284 -0.1474  0.1929
 3627TIP3    H232297   2.012   1.883  14.900 -1.2227 -0.7058 -1.4391
 3628TIP3   OH232298   5.008   5.863   3.340 -0.6521 -0.0677  0.1108
 3628TIP3    H132299   4.932   5.856   3.282 -0.4427  0.4634 -0.2321
 3628TIP3    H232300   4.976   5.914   3.415 -0.7966 -0.3558  0.2457
 3629TIP3   OH232301   2.512   6.069  13.203  0.2498 -0.1405  0.3683
 3629TIP3    H132302   2.605   6.095  13.199 -0.6990  3.8742 -0.9490
 3629TIP3    H232303   2.478   6.114  13.281 -1.0572  0.6126 -0.5949
 3630TIP3   OH232304   6.435   3.991   5.617  0.2831 -0.2449  0.7904
 3630TIP3    H132305   6.432   4.075   5.571 -0.6470  0.6069  2.3218
 3630TIP3    H232306   6.344   3.974   5.644  0.6290 -1.1848  1.4593
 3631TIP3   OH232307   6.777   4.245   1.567  0.4976 -0.1368  0.3062
 3631TIP3    H132308   6.691   4.204   1.554  0.9877 -1.3646  0.7429
 3631TIP3    H232309   6.763   4.309   1.637 -0.5667  1.4123 -1.2325
 3632TIP3   OH232310   4.541   1.716   0.972  0.3293  0.0100 -0.1209
 3632TIP3    H132311   4.499   1.671   0.898  2.8413 -0.9040 -1.1014
 3632TIP3    H232312   4.623   1.750   0.936  1.4593 -0.1369  2.1589
 3633TIP3   OH232313   2.542   5.667  14.077 -0.0946 -0.1209 -0.7149
 3633TIP3    H132314   2.475   5.728  14.108  0.0381 -0.0825 -0.5061
 3633TIP3    H232315   2.585   5.636  14.157  0.4297  0.1863 -0.8804
 3634TIP3   OH232316   1.255   5.838  12.058 -0.2680  0.0695 -0.4609
 3634TIP3    H132317   1.236   5.745  12.057 -0.9694  0.1871  0.3187
 3634TIP3    H232318   1.170   5.880  12.040  0.2651  0.5533 -2.0622
 3635TIP3   OH232319   2.137   5.304   4.496  0.2915 -0.7379 -0.0397
 3635TIP3    H132320   2.168   5.316   4.586 -1.9011 -0.3733  0.7057
 3635TIP3    H232321   2.137   5.209   4.483  2.0502 -0.7613 -0.2464
 3636TIP3   OH232322   2.972   5.243   3.862 -0.0382  0.2757 -0.0253
 3636TIP3    H132323   2.920   5.272   3.936  0.5868  1.0035  0.1388
 3636TIP3    H232324   3.040   5.188   3.900  0.4150  0.8270 -0.0242
 3637TIP3   OH232325   4.642   0.257  14.311  0.1210 -0.3549  0.6547
 3637TIP3    H132326   4.576   0.240  14.243 -0.5448 -1.0201  1.4549
 3637TIP3    H232327   4.595   0.248  14.393  1.3797 -1.6267  1.2641
 3638TIP3   OH232328   0.721   6.737   2.771  0.5709  0.0551  0.3853
 3638TIP3    H132329   0.726   6.741   2.675  1.4044 -1.5064  0.3434
 3638TIP3    H232330   0.686   6.650   2.790  0.7814  0.2086  1.5144
 3639TIP3   OH232331   4.892   0.090   4.933  0.1282  0.0038  0.8517
 3639TIP3    H132332   4.820   0.094   4.870  1.2710 -3.2778 -0.9000
 3639TIP3    H232333   4.950   0.162   4.908 -1.3332  1.1935  0.7517
 3640TIP3   OH232334   6.656   4.278  11.202 -0.0379  0.4227  0.4162
 3640TIP3    H132335   6.623   4.205  11.254  4.3818 -1.0688  1.5857
 3640TIP3    H232336   6.624   4.262  11.114 -0.2303 -2.2926  0.9047
 3641TIP3   OH232337   1.021   2.494  12.819 -0.1666 -0.8609  0.3455
 3641TIP3    H132338   1.037   2.400  12.810 -0.3279 -0.8540 -0.0721
 3641TIP3    H232339   1.045   2.515  12.909 -0.0372 -1.2843  0.4096
 3642TIP3   OH232340   2.649   1.145  12.763  0.3874 -0.1130 -0.0141
 3642TIP3    H132341   2.659   1.110  12.674 -0.3993  0.9365 -0.5336
 3642TIP3    H232342   2.555   1.153  12.775  0.5291  1.1147  0.3647
 3643TIP3   OH232343   3.078   3.593  11.195 -0.0614  0.8754 -0.3556
 3643TIP3    H132344   3.106   3.684  11.205 -1.1483  1.1699  0.2910
 3643TIP3    H232345   3.045   3.569  11.282  1.2988 -0.5429 -0.1883
 3644TIP3   OH232346   3.581   0.266  12.372  0.2397  0.1805  0.1191
 3644TIP3    H132347   3.572   0.306  12.285 -2.1118 -0.5101 -0.0083
 3644TIP3    H232348   3.492   0.254  12.403  1.0223  0.9719  2.9504
 3645TIP3   OH232349   0.683   6.411  13.974 -0.0927 -0.3627  0.2598
 3645TIP3    H132350   0.727   6.456  14.046  0.4017 -1.5366  0.7115
 3645TIP3    H232351   0.751   6.358  13.934 -0.8079 -1.2320  0.1696
 3646TIP3   OH232352   4.160   1.812   2.508 -0.3812  0.7180  0.0656
 3646TIP3    H132353   4.096   1.754   2.467  0.2384 -0.6482  0.9698
 3646TIP3    H232354   4.244   1.781   2.476  0.1434 -0.4975  2.3924
 3647TIP3   OH232355   2.220   4.655  14.563 -0.4138  0.8807 -0.0257
 3647TIP3    H132356   2.287   4.613  14.617 -0.8358  0.0439 -0.1342
 3647TIP3    H232357   2.240   4.627  14.474 -0.5754  1.0924 -0.1288
 3648TIP3   OH232358   5.602   3.959  16.546  0.0608  0.2515  0.7444
 3648TIP3    H132359   5.537   3.976  16.477 -0.5458 -0.8453  1.0157
 3648TIP3    H232360   5.682   3.937  16.498  0.3104  1.7616  0.4048
 3649TIP3   OH232361   5.133   5.004  13.691  0.0154 -0.4918 -0.0766
 3649TIP3    H132362   5.079   4.950  13.748  0.2407 -0.6940 -0.0531
 3649TIP3    H232363   5.121   4.965  13.604  0.3232 -0.6978 -0.0295
 3650TIP3   OH232364   2.351   2.193   0.083  0.1157 -0.3072 -0.3602
 3650TIP3    H132365   2.350   2.284   0.111  0.5136 -0.1900 -0.7013
 3650TIP3    H232366   2.394   2.196  -0.003 -0.8143 -0.6856 -0.8457
 3651TIP3   OH232367   5.136   1.648   1.573  0.4006 -0.6036 -0.0302
 3651TIP3    H132368   5.202   1.665   1.506  0.2190  1.4983  0.2694
 3651TIP3    H232369   5.186   1.614   1.648  0.6877 -2.2489 -0.9243
 3652TIP3   OH232370   1.258   0.129   3.327  0.0233 -0.2727 -0.2824
 3652TIP3    H132371   1.332   0.087   3.372 -0.8305  1.4679  3.0486
 3652TIP3    H232372   1.280   0.223   3.328 -1.8030  0.1888 -0.0074
 3653TIP3   OH232373   4.573   5.766   2.636 -0.5144  0.1244 -0.2101
 3653TIP3    H132374   4.501   5.704   2.630 -1.4637  1.0549  1.0848
 3653TIP3    H232375   4.631   5.730   2.704  0.5933 -0.9203 -1.6480
 3654TIP3   OH232376   4.436   4.869  14.606 -0.5074 -0.0895 -0.1989
 3654TIP3    H132377   4.341   4.874  14.599 -0.5747 -0.1005  0.6215
 3654TIP3    H232378   4.455   4.895  14.696  0.2122 -0.7503 -0.1458
 3655TIP3   OH232379   0.180   6.203  14.820 -0.0316  0.2956  0.5088
 3655TIP3    H132380   0.193   6.108  14.823  1.9157  0.2455 -3.3572
 3655TIP3    H232381   0.239   6.237  14.888  0.7531 -1.1814  0.6195
 3656TIP3   OH232382   6.433   3.980  10.851 -0.7162  0.0243 -0.3428
 3656TIP3    H132383   6.425   4.017  10.939 -0.0934 -1.3287  0.3080
 3656TIP3    H232384   6.469   4.052  10.799 -0.9586  0.8032  0.5304
 3657TIP3   OH232385   0.494   6.508   5.733  0.0887  0.5071 -0.1270
 3657TIP3    H132386   0.485   6.479   5.643 -1.6084 -0.2630  0.2456
 3657TIP3    H232387   0.573   6.463   5.765 -1.7115 -2.8782  0.0400
 3658TIP3   OH232388   0.352   3.046   1.837  0.2646  0.3765  0.0306
 3658TIP3    H132389   0.425   2.991   1.865  0.0042  0.7350  1.4658
 3658TIP3    H232390   0.365   3.057   1.742  1.9004  0.2008  0.2120
 3659TIP3   OH232391   6.374   3.962   2.992  0.2385  0.1191  0.0387
 3659TIP3    H132392   6.329   4.006   3.064 -0.5368 -0.0013 -0.3624
 3659TIP3    H232393   6.463   3.997   2.995  0.8426 -1.3872  2.3376
 3660TIP3   OH232394   0.713   6.581  14.658 -0.3128 -0.1802 -0.1860
 3660TIP3    H132395   0.704   6.529  14.577  1.1171 -1.3964  0.3909
 3660TIP3    H232396   0.734   6.669  14.627 -2.2517  0.0055 -1.1800
 3661TIP3   OH232397   4.558   1.035   5.736  0.1186  0.1799 -0.6129
 3661TIP3    H132398   4.476   1.018   5.689  0.0615 -0.5799 -0.2504
 3661TIP3    H232399   4.562   1.130   5.742 -0.3828  0.2499 -1.2577
 3662TIP3   OH232400   1.477   0.339   3.859 -0.4698  0.0909  0.2563
 3662TIP3    H132401   1.427   0.292   3.792  1.3250 -3.6555  1.2707
 3662TIP3    H232402   1.425   0.330   3.939 -0.7669  1.1075  0.1851
 3663TIP3   OH232403   2.052   0.007  12.182 -0.3231  0.2521  0.6787
 3663TIP3    H132404   2.099   0.071  12.236 -2.7995  1.5471  1.4544
 3663TIP3    H232405   2.042  -0.069  12.239 -0.7970  0.6877  1.1874
 3664TIP3   OH232406   6.460   1.508  11.497  0.0537  0.2911  0.1512
 3664TIP3    H132407   6.464   1.526  11.403  0.3541  0.0650  0.1174
 3664TIP3    H232408   6.428   1.589  11.536 -0.0221  0.4034 -0.1420
 3665TIP3   OH232409   2.200   2.225  16.003 -0.0216  0.4296 -0.0917
 3665TIP3    H132410   2.293   2.233  15.985 -0.0797  0.2252 -0.5132
 3665TIP3    H232411   2.162   2.309  15.977  0.0951  0.6380  0.4132
 3666TIP3   OH232412   2.077   4.059   3.996 -0.8906  1.0586 -0.1697
 3666TIP3    H132413   2.079   4.033   3.904  0.3989 -0.7485  0.3148
 3666TIP3    H232414   2.092   4.154   3.995 -1.8539  1.2252 -1.8398
 3667TIP3   OH232415   1.953   2.681   4.647 -0.3536  0.0541  0.2266
 3667TIP3    H132416   2.033   2.642   4.682  1.2661  0.9122 -2.2822
 3667TIP3    H232417   1.886   2.615   4.661  1.2949 -1.6626  0.3636
 3668TIP3   OH232418   3.227   0.000   4.229 -0.2412  0.1492 -0.4569
 3668TIP3    H132419   3.247   0.094   4.226  2.6100 -0.3563  0.2068
 3668TIP3    H232420   3.193  -0.014   4.317 -0.3245  0.4741 -0.4336
 3669TIP3   OH232421   0.876   5.883  15.606 -0.3883 -0.6046 -0.0152
 3669TIP3    H132422   0.927   5.882  15.687 -0.3870 -0.9703 -0.0205
 3669TIP3    H232423   0.859   5.976  15.589  1.1311 -0.4046 -0.5543
 3670TIP3   OH232424   2.373   6.259   5.524  0.1035 -0.1621 -0.6403
 3670TIP3    H132425   2.447   6.260   5.462 -0.6431 -1.3356 -1.5901
 3670TIP3    H232426   2.327   6.342   5.507  2.0591  1.4062  1.1230
 3671TIP3   OH232427   4.431   2.666   1.780 -0.0551 -0.0089 -0.2984
 3671TIP3    H132428   4.461   2.753   1.754  0.2881  0.4483  1.5002
 3671TIP3    H232429   4.503   2.608   1.757 -0.2302  0.1758 -1.3846
 3672TIP3   OH232430   2.138   1.169  14.978 -0.4891  1.0185 -0.3655
 3672TIP3    H132431   2.204   1.238  14.984  0.2898  0.2606 -0.0067
 3672TIP3    H232432   2.093   1.171  15.062  0.2880  0.3682  0.0834
 3673TIP3   OH232433   5.254   4.149  12.486 -0.1933  0.1746  0.0218
 3673TIP3    H132434   5.200   4.118  12.560  1.1096  0.8375  1.2996
 3673TIP3    H232435   5.196   4.206  12.437 -1.2031 -0.5679  0.3047
 3674TIP3   OH232436   0.215   4.492   4.279  0.0778  0.3899  0.0538
 3674TIP3    H132437   0.204   4.469   4.371  0.8525  0.8923  0.2878
 3674TIP3    H232438   0.244   4.410   4.238 -0.2732  0.1628  0.2488
 3675TIP3   OH232439   0.441   0.536   3.987  0.3771 -0.0731  0.5601
 3675TIP3    H132440   0.393   0.604   4.034 -1.1390 -0.9437  0.3337
 3675TIP3    H232441   0.431   0.559   3.895 -0.4526 -0.7799  0.4638
 3676TIP3   OH232442   1.905   1.695   4.781 -0.7520  0.3356 -0.6040
 3676TIP3    H132443   1.817   1.706   4.816 -1.0928  1.2341 -1.6906
 3676TIP3    H232444   1.897   1.716   4.688  0.4574 -0.3342 -0.8867
 3677TIP3   OH232445   1.596   3.296   2.356  0.2539  0.2301  0.4910
 3677TIP3    H132446   1.532   3.231   2.328  0.5908 -0.5631  1.4673
 3677TIP3    H232447   1.546   3.359   2.407  0.0512  0.2849  0.2231
 3678TIP3   OH232448   2.146   1.883  16.675 -0.0522  0.0902 -0.4816
 3678TIP3    H132449   2.134   1.795  16.640  0.1748 -0.8420  1.6340
 3678TIP3    H232450   2.072   1.895  16.735  2.0626 -0.3499  2.3868
 3679TIP3   OH232451   0.634   2.518   3.334 -0.0426 -0.3769  0.8327
 3679TIP3    H132452   0.587   2.435   3.346  2.0261 -1.5390  1.5512
 3679TIP3    H232453   0.701   2.517   3.403  1.1979  1.0515 -0.2829
 3680TIP3   OH232454   1.181   0.909   4.918 -0.0408  0.0645 -0.3703
 3680TIP3    H132455   1.158   0.880   5.006 -0.8840 -0.7460 -0.8470
 3680TIP3    H232456   1.098   0.937   4.879  0.4625  1.2897 -0.6016
 3681TIP3   OH232457   0.030   5.522  11.655 -0.1211 -0.6633 -0.6298
 3681TIP3    H132458  -0.044   5.575  11.685 -0.5964 -2.2486  1.2510
 3681TIP3    H232459   0.009   5.501  11.564 -1.6009 -0.3838 -0.3844
 3682TIP3   OH232460   2.919   1.420  14.821  0.0396  0.7190  0.5634
 3682TIP3    H132461   2.840   1.380  14.858  0.6484  0.4709  1.6506
 3682TIP3    H232462   2.894   1.445  14.732 -1.2137  0.5141  0.8377
 3683TIP3   OH232463   2.095   4.208  15.891  0.1246 -0.0502 -0.1646
 3683TIP3    H132464   2.176   4.166  15.862  1.4711  1.9435  0.4634
 3683TIP3    H232465   2.121   4.257  15.969 -2.1294 -0.8097  1.1476
 3684TIP3   OH232466   2.110   3.276   0.238 -0.3235  1.1091  0.2134
 3684TIP3    H132467   2.157   3.301   0.158  0.6636 -0.7605  0.1613
 3684TIP3    H232468   2.172   3.294   0.308 -0.8867  1.9745  0.5062
 3685TIP3   OH232469   0.740   4.691   3.170 -0.0040 -0.2875 -0.0005
 3685TIP3    H132470   0.671   4.725   3.227  0.4645  1.6315 -0.5035
 3685TIP3    H232471   0.712   4.603   3.148 -2.7384  0.6974 -0.8581
 3686TIP3   OH232472   4.049   5.113   3.221  0.1221 -0.1613 -0.5686
 3686TIP3    H132473   4.036   5.178   3.152 -0.6296  0.7566  0.4101
 3686TIP3    H232474   3.965   5.066   3.225  0.1943 -0.2687 -0.3305
 3687TIP3   OH232475   1.422   5.461   1.950 -0.6797  0.2579  0.4979
 3687TIP3    H132476   1.369   5.541   1.945 -1.0679  0.0282  0.8909
 3687TIP3    H232477   1.359   5.391   1.960 -0.5026 -0.3790 -2.0716
 3688TIP3   OH232478   0.738   0.357   5.946  0.3779  0.2705  0.3944
 3688TIP3    H132479   0.815   0.359   6.002  0.0857 -1.0950  0.8741
 3688TIP3    H232480   0.673   0.307   5.995 -0.0378 -0.5826 -0.9623
 3689TIP3   OH232481   4.436   5.577   4.073 -0.8008 -0.0912  0.4535
 3689TIP3    H132482   4.462   5.518   4.144 -0.2291  0.0558  0.3675
 3689TIP3    H232483   4.518   5.603   4.032 -1.1543 -0.9404 -0.8803
 3690TIP3   OH232484   0.914   3.715   2.864  0.4445  0.1938 -0.2178
 3690TIP3    H132485   0.946   3.676   2.782  0.0265  0.6473 -0.6010
 3690TIP3    H232486   0.834   3.760   2.840 -0.1041 -0.3149  0.5987
 3691TIP3   OH232487   6.147   2.592   4.133 -0.1942  0.0513  0.5961
 3691TIP3    H132488   6.177   2.533   4.064  0.6683  0.0549  0.9548
 3691TIP3    H232489   6.052   2.591   4.126 -0.1324 -0.2969 -0.2994
 3692TIP3   OH232490   4.803   1.758  10.938  0.1066 -0.0223  0.3484
 3692TIP3    H132491   4.845   1.738  11.021  0.1465  1.2437  0.6604
 3692TIP3    H232492   4.751   1.837  10.956 -0.3628 -0.0816 -0.6710
 3693TIP3   OH232493   5.108   4.617  15.966 -0.1066 -0.4004 -0.4796
 3693TIP3    H132494   5.088   4.709  15.979  0.7664 -0.3492  0.6962
 3693TIP3    H232495   5.123   4.608  15.872  1.9082  1.1372 -0.3789
 3694TIP3   OH232496   6.450   0.089  13.995  0.1298  0.1512 -0.3913
 3694TIP3    H132497   6.416   0.107  14.083  1.0402  0.0224 -0.0065
 3694TIP3    H232498   6.373   0.098  13.938 -0.2886  1.1389  0.2965
 3695TIP3   OH232499   0.977   3.346   3.534 -0.2194 -0.0720  0.1071
 3695TIP3    H132500   1.038   3.343   3.461 -0.1675  2.6360 -0.0580
 3695TIP3    H232501   1.030   3.320   3.610  0.7550  0.7685 -0.2593
 3696TIP3   OH232502   4.744   4.888   1.048 -0.5146 -0.7352 -0.1147
 3696TIP3    H132503   4.763   4.794   1.046 -1.5879 -0.9493 -1.6610
 3696TIP3    H232504   4.744   4.910   1.141  1.2594 -1.9221  0.2136
 3697TIP3   OH232505   0.599   4.741  16.781  0.0236  0.4414 -0.3150
 3697TIP3    H132506   0.664   4.673  16.769 -0.2033  0.5370 -2.4242
 3697TIP3    H232507   0.516   4.694  16.793 -0.2716  0.2613 -2.5934
 3698TIP3   OH232508   6.596   4.337   1.074  0.1464 -0.2278 -0.0836
 3698TIP3    H132509   6.591   4.306   1.165 -1.2669 -2.1519 -0.7487
 3698TIP3    H232510   6.605   4.257   1.022  3.3816  0.9101 -1.5943
 3699TIP3   OH232511   6.602   0.939  13.101  0.2609  0.2832  0.2934
 3699TIP3    H132512   6.536   0.875  13.127  0.0281  0.5670  0.3975
 3699TIP3    H232513   6.558   0.994  13.036  0.8052 -0.3724 -0.6663
 3700TIP3   OH232514   0.097   1.192  15.943 -0.0265 -0.7902 -0.0792
 3700TIP3    H132515   0.167   1.151  15.894 -1.7437 -2.0729 -1.5980
 3700TIP3    H232516   0.018   1.174  15.892 -1.3604  1.4038  1.0532
 3701TIP3   OH232517   0.286   1.788  11.798 -0.1403  0.7054  0.1379
 3701TIP3    H132518   0.224   1.821  11.732  0.2859 -1.3805 -1.4121
 3701TIP3    H232519   0.372   1.817  11.766 -0.0400  0.8300  0.5173
 3702TIP3   OH232520   1.680   3.325  15.685  0.4773  0.2735  0.0774
 3702TIP3    H132521   1.753   3.382  15.709 -1.9386  3.0615  1.4475
 3702TIP3    H232522   1.645   3.362  15.604 -0.3163 -0.0944  0.2364
 3703TIP3   OH232523   0.932   5.075  11.898  0.4425  0.1619  0.4845
 3703TIP3    H132524   1.004   5.057  11.837  0.3196  1.3618 -0.0354
 3703TIP3    H232525   0.860   5.020  11.867  0.9057 -0.5153  0.5855
 3704TIP3   OH232526   6.270   4.447  14.309  0.0586 -0.0973 -0.0624
 3704TIP3    H132527   6.274   4.436  14.214  1.6207 -2.6335  0.2294
 3704TIP3    H232528   6.204   4.384  14.338 -0.5237  0.7682  0.5754
 3705TIP3   OH232529   1.483   6.718   0.190 -0.6181 -0.6530  0.0336
 3705TIP3    H132530   1.423   6.792   0.184 -0.8227 -0.8942 -1.3399
 3705TIP3    H232531   1.540   6.728   0.113 -1.0732 -2.2651 -0.5466
 3706TIP3   OH232532   0.506   1.548  16.515  0.2333 -0.4839  0.2829
 3706TIP3    H132533   0.490   1.454  16.503 -1.6520 -0.2306  0.4939
 3706TIP3    H232534   0.482   1.588  16.432  0.2817 -0.1166  0.4419
 3707TIP3   OH232535   2.896   6.478  11.807  0.5492 -0.0547  0.0350
 3707TIP3    H132536   2.821   6.455  11.751  0.5203 -0.4744  0.2439
 3707TIP3    H232537   2.934   6.394  11.832  0.8235  0.1457  0.2938
 3708TIP3   OH232538   0.934   2.898  14.967  0.2175  0.2454 -0.4815
 3708TIP3    H132539   0.899   2.986  14.956  1.6577  1.0703  1.2038
 3708TIP3    H232540   1.005   2.892  14.903 -0.5251 -0.0875 -1.2978
 3709TIP3   OH232541   4.657   5.396  16.531  0.0224 -0.9010  0.0158
 3709TIP3    H132542   4.573   5.422  16.493 -0.0707  0.2250  0.9280
 3709TIP3    H232543   4.722   5.424  16.466 -0.1675  0.5015  0.3996
 3710TIP3   OH232544   2.621   5.574  12.992  0.3060  0.6351  0.1672
 3710TIP3    H132545   2.528   5.553  12.989  0.7883 -2.2125  1.5111
 3710TIP3    H232546   2.631   5.648  12.932 -2.5207 -0.1130 -1.4016
 3711TIP3   OH232547   2.212   1.727  12.839 -0.4210 -0.4935 -0.0671
 3711TIP3    H132548   2.203   1.733  12.935  0.7337 -0.1833  0.0357
 3711TIP3    H232549   2.172   1.807  12.806  1.4162  0.6420  0.3383
 3712TIP3   OH232550   3.452   3.675   3.527 -0.0601  0.1322  0.4793
 3712TIP3    H132551   3.462   3.584   3.556 -0.6684 -0.3968 -0.8803
 3712TIP3    H232552   3.476   3.673   3.434 -2.2272  0.8843 -0.1554
 3713TIP3   OH232553   2.627   4.106   1.631  0.6501  0.6808  1.0029
 3713TIP3    H132554   2.660   4.168   1.566 -0.2108  0.9658  0.8179
 3713TIP3    H232555   2.642   4.150   1.715  2.5909 -0.0726  1.0975
 3714TIP3   OH232556   5.418   0.011   3.140  0.2396 -0.2565 -0.0148
 3714TIP3    H132557   5.459  -0.044   3.073 -0.0789 -2.0623  1.2228
 3714TIP3    H232558   5.432  -0.036   3.222  0.5377  1.8566  1.2141
 3715TIP3   OH232559   4.880   1.070   3.039  0.4834 -0.7124 -0.5103
 3715TIP3    H132560   4.855   1.032   2.955  1.0349 -0.5205 -0.7624
 3715TIP3    H232561   4.958   1.121   3.020  2.4169 -3.0365  0.6470
 3716TIP3   OH232562   5.561   5.095   1.293  0.2687 -0.6285  0.1728
 3716TIP3    H132563   5.575   5.113   1.200  1.4337 -0.4535  0.3712
 3716TIP3    H232564   5.648   5.093   1.330 -0.1125 -1.8637  1.0614
 3717TIP3   OH232565   6.036   4.333   1.924 -0.1307 -0.3395  0.5410
 3717TIP3    H132566   5.971   4.361   1.988  0.3503  0.6523  0.6198
 3717TIP3    H232567   6.115   4.317   1.976  0.0848 -0.1486  0.2704
 3718TIP3   OH232568   5.816   4.179   5.238 -0.3328 -0.6792  0.2007
 3718TIP3    H132569   5.811   4.166   5.143  0.3249  0.3271  0.0164
 3718TIP3    H232570   5.794   4.271   5.251 -0.7145 -0.8799  1.0647
 3719TIP3   OH232571   3.373   4.270   1.274 -0.2741 -0.5175  1.0207
 3719TIP3    H132572   3.454   4.286   1.225 -1.2416 -1.6161 -1.0841
 3719TIP3    H232573   3.321   4.349   1.260 -0.6596 -0.9373 -0.0366
 3720TIP3   OH232574   0.072   0.526  10.408  0.1322  0.1444 -0.6077
 3720TIP3    H132575   0.149   0.566  10.447 -0.8146 -0.2320  1.7761
 3720TIP3    H232576   0.105   0.444  10.369  0.7981 -0.5908  1.3939
 3721TIP3   OH232577   4.961   5.005  14.169 -0.6344 -0.2201  0.3835
 3721TIP3    H132578   4.878   5.039  14.202  0.2434 -0.3739  2.9776
 3721TIP3    H232579   4.960   4.912  14.190 -1.3023 -1.1309 -3.0254
 3722TIP3   OH232580   2.530   3.375  12.764  0.2496  0.1898 -0.7565
 3722TIP3    H132581   2.543   3.377  12.859  1.7375  0.8235 -0.9525
 3722TIP3    H232582   2.443   3.337  12.753  0.4662 -0.8780  0.8220
 3723TIP3   OH232583   4.400   3.177  13.839  0.0898  1.0481  0.5469
 3723TIP3    H132584   4.380   3.100  13.892  0.8451  0.8232  0.5147
 3723TIP3    H232585   4.382   3.252  13.896  1.3231  0.8065  1.2905
 3724TIP3   OH232586   4.658   4.470  12.331 -0.1703  0.1901 -0.7125
 3724TIP3    H132587   4.668   4.494  12.239 -0.6317  0.4963 -0.6843
 3724TIP3    H232588   4.727   4.518  12.376  1.5491 -1.7120 -1.1725
 3725TIP3   OH232589   3.611   2.993   0.479 -0.1187  0.0134 -0.3967
 3725TIP3    H132590   3.614   2.940   0.399 -0.9169  1.2363 -1.2651
 3725TIP3    H232591   3.702   3.015   0.497 -0.0687  1.2657 -2.0436
 3726TIP3   OH232592   1.914   1.763   3.312 -0.4229  1.0419  0.0978
 3726TIP3    H132593   1.957   1.742   3.394 -0.3360  0.5595 -0.0687
 3726TIP3    H232594   1.939   1.854   3.294 -0.9632  1.3660  0.9256
 3727TIP3   OH232595   2.651   5.034   2.011  0.0769  0.2951  0.0626
 3727TIP3    H132596   2.682   4.944   2.020  0.1005  0.2559 -0.3545
 3727TIP3    H232597   2.716   5.087   2.057  0.1238  0.1100  0.2097
 3728TIP3   OH232598   2.226   4.496   5.141 -0.5390  0.0409 -0.3338
 3728TIP3    H132599   2.190   4.418   5.100 -0.9923  0.7449 -1.3180
 3728TIP3    H232600   2.245   4.469   5.231 -1.1561 -1.0520 -0.5102
 3729TIP3   OH232601   0.832   5.128  14.490  0.6507  0.0521 -0.4291
 3729TIP3    H132602   0.825   5.038  14.522  1.3194  0.4063  0.7407
 3729TIP3    H232603   0.924   5.137  14.466  0.5163  0.3375 -0.8461
 3730TIP3   OH232604   0.077   5.779   0.976 -0.1493 -0.3675 -0.1174
 3730TIP3    H132605   0.078   5.790   1.071  0.4722 -0.7340 -0.0764
 3730TIP3    H232606   0.100   5.687   0.962 -0.5421 -0.3949 -0.6133
 3731TIP3   OH232607   2.870   1.772  13.917 -0.1254 -0.0195  0.0875
 3731TIP3    H132608   2.936   1.703  13.911 -0.5601 -0.7634  2.5349
 3731TIP3    H232609   2.867   1.811  13.830  0.1490 -3.0731 -1.4147
 3732TIP3   OH232610   5.796   3.431  16.172 -0.3724  0.1579 -0.1254
 3732TIP3    H132611   5.810   3.435  16.077 -1.4495 -1.4773 -0.3985
 3732TIP3    H232612   5.720   3.373  16.183  0.8923 -1.2885  1.8006
 3733TIP3   OH232613   1.286   4.630  15.632  0.0711 -0.0746  0.1994
 3733TIP3    H132614   1.298   4.558  15.693 -0.9815 -0.4549 -0.0210
 3733TIP3    H232615   1.293   4.709  15.686  2.2687 -0.2730  0.2668
 3734TIP3   OH232616   3.540   0.475  13.734 -0.2857 -0.0068  0.1191
 3734TIP3    H132617   3.481   0.401  13.716 -0.9074  0.2031  1.2041
 3734TIP3    H232618   3.627   0.437  13.732 -0.6441 -0.9803  1.5315
 3735TIP3   OH232619   4.558   0.051   0.301 -0.2069 -0.3844 -0.1898
 3735TIP3    H132620   4.469   0.020   0.316 -1.2343  0.7176 -3.3502
 3735TIP3    H232621   4.597  -0.014   0.244  0.0874  0.4629 -0.9757
 3736TIP3   OH232622   6.548   6.340  13.862 -0.5500  0.4038 -0.3863
 3736TIP3    H132623   6.579   6.424  13.828  1.9219 -0.5952 -0.7755
 3736TIP3    H232624   6.627   6.285  13.867 -1.6318 -1.0859  2.2812
 3737TIP3   OH232625   2.247   2.650  14.323 -0.0370 -0.0312  0.2914
 3737TIP3    H132626   2.167   2.607  14.353 -2.0445  1.3251 -2.6026
 3737TIP3    H232627   2.297   2.582  14.279  0.4518 -0.8784  2.0718
 3738TIP3   OH232628   4.939   4.774   1.931 -0.0985  0.0904  0.4484
 3738TIP3    H132629   4.919   4.865   1.909  0.7500  0.1223 -0.2558
 3738TIP3    H232630   4.857   4.739   1.967 -1.2105  0.3887 -1.6729
 3739TIP3   OH232631   2.059   4.596   2.573 -0.9048  0.2054 -0.0242
 3739TIP3    H132632   2.147   4.561   2.581  0.4815  3.2747 -0.4375
 3739TIP3    H232633   2.021   4.549   2.498  0.9283 -0.1578 -0.7662
 3740TIP3   OH232634   4.502   0.033  10.848  0.2974  0.2671  0.0993
 3740TIP3    H132635   4.540   0.078  10.773 -0.1241  1.3063  0.4903
 3740TIP3    H232636   4.477   0.103  10.908 -1.4976 -0.3966  0.1918
 3741TIP3   OH232637   6.296   6.787   4.220 -0.5653 -0.2458  0.4734
 3741TIP3    H132638   6.349   6.784   4.300  1.0508 -0.8177 -0.5898
 3741TIP3    H232639   6.271   6.879   4.211  0.0725 -0.0013  1.1041
 3742TIP3   OH232640   3.227   2.376   4.226 -0.1356 -0.1390  0.1331
 3742TIP3    H132641   3.275   2.343   4.302 -0.8697 -0.2741  0.5378
 3742TIP3    H232642   3.138   2.344   4.237 -0.9957  2.1867  0.7306
 3743TIP3   OH232643   6.452   5.986   2.495 -0.5678  0.3958 -0.2808
 3743TIP3    H132644   6.420   5.900   2.523 -1.1276  0.6606 -0.0899
 3743TIP3    H232645   6.546   5.975   2.486 -0.5299 -0.0072  0.5791
 3744TIP3   OH232646   2.089   6.110   1.326  0.1566 -1.0309  0.5080
 3744TIP3    H132647   2.000   6.143   1.339  0.2780 -1.4662  2.9427
 3744TIP3    H232648   2.096   6.035   1.385  2.3806 -0.5364  0.9623
 3745TIP3   OH232649   6.015   0.052  15.753  0.1419  0.1991 -0.0446
 3745TIP3    H132650   5.948  -0.016  15.749  0.7551 -0.3690 -0.9992
 3745TIP3    H232651   6.066   0.031  15.832  1.3855 -1.4901 -1.2368
 3746TIP3   OH232652   4.968   5.321  15.144 -0.2066 -0.4673 -0.0701
 3746TIP3    H132653   5.050   5.324  15.093  0.4058 -0.7531  0.8624
 3746TIP3    H232654   4.921   5.245  15.108  0.4682 -0.9980  0.1401
 3747TIP3   OH232655   1.563   5.297   5.697  0.1468  0.5007 -0.5251
 3747TIP3    H132656   1.651   5.288   5.733 -0.1772  1.4778  0.5916
 3747TIP3    H232657   1.530   5.207   5.692  0.5185  0.2556  0.9010
 3748TIP3   OH232658   0.662   4.804  14.330  0.3641 -0.7333  0.3114
 3748TIP3    H132659   0.665   4.801  14.426  2.5376 -0.8266  0.2800
 3748TIP3    H232660   0.625   4.891  14.311 -1.0778 -1.1167  1.2015
 3749TIP3   OH232661   0.294   4.488   2.969 -0.1974  0.1236  0.3314
 3749TIP3    H132662   0.239   4.566   2.966  1.9927  1.7669  0.2167
 3749TIP3    H232663   0.304   4.462   2.878  1.2935  1.4603  0.0568
 3750TIP3   OH232664   3.256   1.907  11.911  0.3424  0.3388  0.0192
 3750TIP3    H132665   3.334   1.922  11.859  0.8983 -0.6886  0.5273
 3750TIP3    H232666   3.210   1.837  11.865 -1.0626  1.9014 -1.0865
 3751TIP3   OH232667   5.483   3.016   1.968 -0.2210 -0.1011 -0.9155
 3751TIP3    H132668   5.420   3.088   1.966  0.5643  0.6623  0.2391
 3751TIP3    H232669   5.459   2.966   2.046  1.2870  0.8807  0.2220
 3752TIP3   OH232670   4.336   1.912   4.806  0.3318  0.6038  0.3098
 3752TIP3    H132671   4.371   1.933   4.720  2.0407  0.5680  0.9638
 3752TIP3    H232672   4.241   1.910   4.793  0.5603  0.2053 -1.6425
 3753TIP3   OH232673   4.301   6.291  11.949  0.0977 -0.6361 -0.0330
 3753TIP3    H132674   4.383   6.250  11.919  1.1449  0.1283  1.6113
 3753TIP3    H232675   4.316   6.385  11.937  0.1036 -0.3879  1.7285
 3754TIP3   OH232676   2.082   4.004  16.818  0.1612 -0.9569  0.0613
 3754TIP3    H132677   1.989   4.012  16.838  0.1176 -0.5878 -0.2718
 3754TIP3    H232678   2.122   3.976  16.901 -0.0904  0.0166  0.5277
 3755TIP3   OH232679   5.713   0.675  14.734 -0.1671 -0.0987  0.1953
 3755TIP3    H132680   5.679   0.593  14.770 -1.2789 -0.2803 -1.1660
 3755TIP3    H232681   5.635   0.728  14.718  0.5022  1.0672  0.6090
 3756TIP3   OH232682   2.044   1.686  13.764  0.2207  0.2278 -0.2271
 3756TIP3    H132683   2.088   1.709  13.682 -0.9816 -0.9158 -1.2391
 3756TIP3    H232684   2.063   1.593  13.777  0.1329  0.3156  0.6392
 3757TIP3   OH232685   5.909   2.945   6.490  0.3932  0.6368  0.0683
 3757TIP3    H132686   5.890   2.881   6.421  0.4441  0.9086 -0.2003
 3757TIP3    H232687   5.834   2.940   6.549 -0.2543  1.2722 -0.6651
 3758TIP3   OH232688   4.626   6.474   5.593 -0.3420  0.3870 -0.0915
 3758TIP3    H132689   4.535   6.501   5.599 -0.8467 -1.0671 -0.7567
 3758TIP3    H232690   4.660   6.523   5.518 -0.4697  1.1985  0.3764
 3759TIP3   OH232691   5.874   0.341  12.709 -0.1502  0.1938  0.0211
 3759TIP3    H132692   5.896   0.250  12.689  0.6528  0.2628  0.5721
 3759TIP3    H232693   5.910   0.356  12.796 -0.6133  0.9307  0.0933
 3760TIP3   OH232694   4.748   1.735  12.382  0.2043  0.0024 -0.0693
 3760TIP3    H132695   4.694   1.662  12.351 -0.4098  0.5513 -0.3087
 3760TIP3    H232696   4.771   1.784  12.303  0.5055  0.1481  0.1051
 3761TIP3   OH232697   1.193   6.776  11.484 -0.5512  0.0230  0.1988
 3761TIP3    H132698   1.114   6.757  11.432 -0.2652 -1.6021  0.3022
 3761TIP3    H232699   1.236   6.847  11.436 -0.1249 -1.6341 -2.0404
 3762TIP3   OH232700   4.676   0.494  12.558  0.9313  0.3317  0.5490
 3762TIP3    H132701   4.771   0.502  12.572  1.6520 -3.5153 -0.7333
 3762TIP3    H232702   4.669   0.463  12.467 -1.8797  3.4162 -0.4591
 3763TIP3   OH232703   4.722   6.706  13.824  0.1116 -0.0716 -0.0313
 3763TIP3    H132704   4.710   6.649  13.748 -1.2504  0.9475 -0.6204
 3763TIP3    H232705   4.817   6.719  13.829  0.3152 -1.0508 -0.8659
 3764TIP3   OH232706   2.009   4.624  12.942 -0.2841 -0.0177 -0.1793
 3764TIP3    H132707   1.972   4.576  13.016 -0.1121 -0.1333 -0.1662
 3764TIP3    H232708   2.095   4.584  12.929  0.6139  1.4286  0.9512
 3765TIP3   OH232709   1.484   5.341  14.777  0.3742 -0.1752 -0.3207
 3765TIP3    H132710   1.574   5.342  14.809  0.4778  1.6717 -0.5906
 3765TIP3    H232711   1.431   5.320  14.854  0.8892  0.6819  0.2783
 3766TIP3   OH232712   1.565   5.614  13.284  0.1874 -0.4806  0.0569
 3766TIP3    H132713   1.474   5.637  13.266  0.6354  1.0873 -0.3309
 3766TIP3    H232714   1.565   5.518  13.288 -1.2418 -0.5696 -1.1842
 3767TIP3   OH232715   4.336   5.806  16.673 -0.5633 -0.7444 -0.0385
 3767TIP3    H132716   4.312   5.830  16.762 -1.3975 -0.3120 -0.3714
 3767TIP3    H232717   4.431   5.817  16.670 -0.2655 -2.5955  1.3337
 3768TIP3   OH232718   4.059   0.542   3.822 -0.0574 -0.1522 -0.2028
 3768TIP3    H132719   4.146   0.541   3.861 -0.4306 -0.2750  0.6601
 3768TIP3    H232720   4.069   0.591   3.741  0.7829 -0.0450 -0.0383
 3769TIP3   OH232721   2.411   4.681   4.550 -0.0059 -0.4188 -0.2331
 3769TIP3    H132722   2.488   4.733   4.525  0.5495 -0.6204  0.9796
 3769TIP3    H232723   2.393   4.707   4.640 -1.5796 -0.1439 -0.6030
 3770TIP3   OH232724   2.242   6.207  16.170 -0.0880 -0.6566  0.0982
 3770TIP3    H132725   2.269   6.210  16.078 -0.3645 -1.8553 -0.0410
 3770TIP3    H232726   2.194   6.288  16.184 -1.3897 -1.1492 -1.2619
 3771TIP3   OH232727   4.367   4.624   5.211 -0.4246  0.4172  0.1096
 3771TIP3    H132728   4.319   4.687   5.157  0.2274  0.6743 -0.1799
 3771TIP3    H232729   4.409   4.679   5.278 -2.0647  0.0140  1.5475
 3772TIP3   OH232730   1.810   4.038   3.929 -0.1810 -0.3892  0.1684
 3772TIP3    H132731   1.899   4.034   3.962 -0.0563  0.1093 -0.1024
 3772TIP3    H232732   1.809   3.976   3.855 -0.6850 -2.1503  1.5724
 3773TIP3   OH232733   1.128   1.551   4.108  0.1169 -0.1105 -0.2982
 3773TIP3    H132734   1.172   1.466   4.110 -0.0322 -0.1936 -0.4429
 3773TIP3    H232735   1.155   1.594   4.189 -0.1451 -0.4718 -0.0123
 3774TIP3   OH232736   2.357   3.099  14.546 -0.2202  0.6041  0.5356
 3774TIP3    H132737   2.276   3.048  14.554 -0.5858  0.6772 -1.9482
 3774TIP3    H232738   2.397   3.094  14.633 -0.2297 -3.8271  0.5078
 3775TIP3   OH232739   6.417   4.519  12.147 -0.1910  0.4048 -0.2969
 3775TIP3    H132740   6.376   4.493  12.229 -0.2257 -1.0214 -0.7509
 3775TIP3    H232741   6.356   4.490  12.079  0.8437 -0.3654 -0.9191
 3776TIP3   OH232742   2.606   0.145  15.154  0.6012 -0.4555  0.3573
 3776TIP3    H132743   2.645   0.062  15.180 -0.2820 -0.3081  2.3560
 3776TIP3    H232744   2.653   0.211  15.206 -0.9220 -0.0906  1.3534
 3777TIP3   OH232745   5.818   1.793  15.946  0.0065  0.4180  0.1327
 3777TIP3    H132746   5.858   1.706  15.947  0.0449  0.4378  0.4054
 3777TIP3    H232747   5.841   1.829  15.861  0.3015  0.3018  0.1609
 3778TIP3   OH232748   1.096   5.142   0.259 -0.1224  0.0829  0.0937
 3778TIP3    H132749   1.072   5.157   0.168  0.9464  2.1367  0.0795
 3778TIP3    H232750   1.192   5.139   0.259 -0.0340  1.5824  1.2841
 3779TIP3   OH232751   2.891   2.766  12.740  0.3958  0.0583 -0.2248
 3779TIP3    H132752   2.866   2.674  12.731 -1.3289  0.3772  0.6909
 3779TIP3    H232753   2.903   2.778  12.835  3.7729  0.0867 -0.5305
 3780TIP3   OH232754   6.777   3.134  14.257  0.7707 -0.2203 -0.1283
 3780TIP3    H132755   6.692   3.172  14.282  0.0495 -0.6883 -1.7077
 3780TIP3    H232756   6.767   3.114  14.164  2.5605 -0.4918 -0.2905
 3781TIP3   OH232757   4.123   6.172   6.150  0.2737 -0.7128 -0.0629
 3781TIP3    H132758   4.076   6.207   6.225  1.5347 -0.3080  0.5592
 3781TIP3    H232759   4.212   6.205   6.160  0.2031  0.3772 -2.3911
 3782TIP3   OH232760   3.952   4.671   6.143 -0.0208  0.0826 -0.5978
 3782TIP3    H132761   3.902   4.638   6.217  1.3957 -0.8327 -0.0007
 3782TIP3    H232762   3.951   4.766   6.153  0.2541 -0.0411  0.6658
 3783TIP3   OH232763   0.533   4.698   3.595  0.3746 -0.5152 -0.5025
 3783TIP3    H132764   0.578   4.613   3.595  0.6851 -0.3497 -0.0695
 3783TIP3    H232765   0.603   4.762   3.611  0.1284 -0.1836 -0.7509
 3784TIP3   OH232766   3.528   1.302  12.289  0.3694  0.5952 -0.1209
 3784TIP3    H132767   3.537   1.229  12.228 -1.4461 -1.4869  1.9230
 3784TIP3    H232768   3.616   1.313  12.326  1.6376  2.2238 -3.2425
 3785TIP3   OH232769   3.681   0.620   3.368  0.7751  0.0711 -0.2324
 3785TIP3    H132770   3.753   0.684   3.372 -0.1283  1.2650 -1.7930
 3785TIP3    H232771   3.603   0.671   3.390 -0.0010 -0.4053 -1.7344
 3786TIP3   OH232772   3.037   0.032   6.587  0.3652 -0.0311 -0.4455
 3786TIP3    H132773   2.960   0.085   6.567 -0.3377 -0.1752  1.6761
 3786TIP3    H232774   3.007  -0.058   6.576  0.6373 -0.0681 -0.9223
 3787TIP3   OH232775   4.671   1.200   4.307 -0.0633  0.5823  0.3823
 3787TIP3    H132776   4.623   1.122   4.336 -0.1869  0.5010 -0.0455
 3787TIP3    H232777   4.720   1.227   4.385  0.3785 -0.2242  0.3931
 3788TIP3   OH232778   4.030   4.755   0.096 -0.1248 -0.1440 -0.5910
 3788TIP3    H132779   4.058   4.681   0.150  1.0983 -0.0734 -1.1001
 3788TIP3    H232780   4.074   4.831   0.135  0.4881 -0.0435 -1.4557
 3789TIP3   OH232781   0.194   5.234  11.591 -0.0684 -0.6548  0.5413
 3789TIP3    H132782   0.248   5.308  11.619  0.6408  0.3857 -2.9948
 3789TIP3    H232783   0.235   5.157  11.630  0.0530  0.6239  3.1332
 3790TIP3   OH232784   6.551   0.219  13.080 -0.9654  0.6319 -0.0277
 3790TIP3    H132785   6.640   0.197  13.106 -1.0791  0.8033  0.5080
 3790TIP3    H232786   6.496   0.174  13.143 -1.2590  0.6567 -0.2628
 3791TIP3   OH232787   3.914   1.941  13.246 -0.1584  0.6362  0.4436
 3791TIP3    H132788   3.966   1.860  13.246  0.9806  1.3408  0.4425
 3791TIP3    H232789   3.841   1.922  13.305 -0.4879 -0.7383 -0.3672
 3792TIP3   OH232790   0.977   2.883  10.888 -0.0631  0.2481  0.4792
 3792TIP3    H132791   0.998   2.898  10.796  0.4849  1.2772  0.7581
 3792TIP3    H232792   0.988   2.969  10.930  0.9875 -0.4633  1.7453
 3793TIP3   OH232793   1.420   1.381   2.113 -0.6382 -0.6099  0.4469
 3793TIP3    H132794   1.469   1.366   2.032  2.1147 -0.2397  1.9266
 3793TIP3    H232795   1.431   1.474   2.131 -0.7676 -0.7942  1.5293
 3794TIP3   OH232796   0.391   2.257   5.849 -0.1637  0.4100 -0.1035
 3794TIP3    H132797   0.313   2.223   5.806 -0.6538 -1.4870  2.0860
 3794TIP3    H232798   0.359   2.289   5.934  1.1140  1.6865 -0.0731
 3795TIP3   OH232799   3.283   2.234  10.924  0.3763 -0.3855 -0.3780
 3795TIP3    H132800   3.259   2.321  10.892  1.7250  0.0791 -0.1854
 3795TIP3    H232801   3.286   2.180  10.845  0.9912  0.1030 -0.6982
 3796TIP3   OH232802   3.940   0.682  15.841  0.8205  0.0308 -0.0162
 3796TIP3    H132803   3.874   0.623  15.804 -1.7114  2.6019  0.0106
 3796TIP3    H232804   3.902   0.712  15.924  1.2634  2.6754 -0.6600
 3797TIP3   OH232805   3.174   1.407   0.624  0.2577 -0.5115 -0.2106
 3797TIP3    H132806   3.158   1.456   0.543 -0.4537  0.4822  0.5076
 3797TIP3    H232807   3.241   1.458   0.669 -0.9288  0.1696  0.8280
 3798TIP3   OH232808   4.861   0.417   0.881  0.2786 -0.0681  0.0008
 3798TIP3    H132809   4.901   0.502   0.860  1.0374 -0.3137  0.4410
 3798TIP3    H232810   4.769   0.438   0.898  0.2683  0.5417 -0.7382
 3799TIP3   OH232811   4.754   5.209  14.178 -0.2262  0.0328 -0.4125
 3799TIP3    H132812   4.814   5.265  14.129  0.4859  1.0331  1.4862
 3799TIP3    H232813   4.689   5.181  14.114  1.3634  0.1997 -2.1957
 3800TIP3   OH232814   3.245   3.646  14.382 -0.2554  0.0959 -0.0058
 3800TIP3    H132815   3.292   3.582  14.436 -0.1007 -0.4656 -0.7847
 3800TIP3    H232816   3.158   3.608  14.370  0.3027 -0.7302 -1.7171
 3801TIP3   OH232817   6.180   6.790  12.757  0.4083  0.0515 -0.3864
 3801TIP3    H132818   6.244   6.723  12.732 -0.1245 -0.4000 -0.5696
 3801TIP3    H232819   6.179   6.786  12.853 -0.4884 -1.0661 -0.4130
 3802TIP3   OH232820   4.970   5.066  12.408  0.2243 -0.2441 -0.0359
 3802TIP3    H132821   5.054   5.084  12.366 -0.1998 -0.5965 -1.0798
 3802TIP3    H232822   4.905   5.101  12.347 -0.4063 -0.5121  0.4686
 3803TIP3   OH232823   6.438   1.710   5.095 -0.1387 -0.2900 -0.6891
 3803TIP3    H132824   6.530   1.687   5.079 -0.3782 -2.4220  0.5835
 3803TIP3    H232825   6.395   1.626   5.110 -2.0337  0.7623  0.0998
 3804TIP3   OH232826   5.712   3.527  11.622 -0.2567 -0.1829  0.3356
 3804TIP3    H132827   5.700   3.618  11.647 -1.3985 -0.7878  2.2086
 3804TIP3    H232828   5.782   3.495  11.679 -1.1689 -0.9454  1.0557
 3805TIP3   OH232829   5.574   3.123  15.366  0.0526  0.1642 -0.4514
 3805TIP3    H132830   5.521   3.180  15.422 -1.2456 -2.8321  1.6331
 3805TIP3    H232831   5.515   3.099  15.295 -0.3564 -0.6796  0.1577
 3806TIP3   OH232832   2.914   3.184  10.335  0.5292 -0.1531  0.3372
 3806TIP3    H132833   3.006   3.212  10.342  0.8640 -1.2670  0.5803
 3806TIP3    H232834   2.918   3.088  10.334 -0.5350 -0.2157 -1.1038
 3807TIP3   OH232835   4.830   6.069  13.316  0.0622  0.3289  0.5233
 3807TIP3    H132836   4.831   5.984  13.361  1.8153 -0.2590 -0.5332
 3807TIP3    H232837   4.887   6.125  13.369 -0.1188  0.4802  0.5585
 3808TIP3   OH232838   5.108   0.269  12.922 -0.4189  0.2776 -0.3192
 3808TIP3    H132839   5.199   0.279  12.949 -0.1059 -1.8088 -0.5020
 3808TIP3    H232840   5.057   0.302  12.996  0.4725 -1.4162  1.1124
 3809TIP3   OH232841   2.627   5.892   4.268  0.7260 -0.3789 -0.5750
 3809TIP3    H132842   2.611   5.961   4.204  1.4977  1.5782  1.2544
 3809TIP3    H232843   2.714   5.858   4.245  1.2355  0.6854 -0.2893
 3810TIP3   OH232844   5.131   2.101   3.867 -0.4805  0.7005  0.1186
 3810TIP3    H132845   5.221   2.109   3.836  0.0787 -3.0356  0.2948
 3810TIP3    H232846   5.079   2.092   3.786 -0.3746  0.5839  0.0632
 3811TIP3   OH232847   3.305   4.937  16.657 -0.3912  0.6945  0.8829
 3811TIP3    H132848   3.240   4.898  16.715  0.1372  2.3952  2.7242
 3811TIP3    H232849   3.314   5.027  16.688  0.2425  1.5705 -1.6048
 3812TIP3   OH232850   0.389   5.369  13.007 -0.0850 -0.0498  0.0566
 3812TIP3    H132851   0.361   5.289  13.051 -0.8472  0.3603  0.3330
 3812TIP3    H232852   0.463   5.342  12.952  0.2990 -0.7417  0.9015
 3813TIP3   OH232853   3.008   4.780   4.257  0.5180  0.4438 -0.1326
 3813TIP3    H132854   3.089   4.772   4.308  0.7579 -0.4534 -0.6228
 3813TIP3    H232855   2.940   4.747   4.316  0.6692  0.2262 -0.0765
 3814TIP3   OH232856   3.706   3.365  13.920  0.3195  0.0283  0.6134
 3814TIP3    H132857   3.670   3.453  13.935  2.0277  1.0513 -0.7560
 3814TIP3    H232858   3.706   3.356  13.824 -1.8152 -2.4044  0.7582
 3815TIP3   OH232859   1.592   6.686   3.854 -0.1994  0.4486  0.4470
 3815TIP3    H132860   1.664   6.641   3.809 -1.4352 -0.6987 -0.4238
 3815TIP3    H232861   1.637   6.744   3.916  1.5633  1.4249 -1.5904
 3816TIP3   OH232862   4.880   1.046  11.794 -0.1483 -0.4555  0.4303
 3816TIP3    H132863   4.822   1.050  11.717  0.9041 -1.9328 -0.4761
 3816TIP3    H232864   4.856   0.965  11.838  1.7618 -1.5581 -0.4413
 3817TIP3   OH232865   1.179   6.340   4.574  0.2689  0.2007 -0.6940
 3817TIP3    H132866   1.267   6.332   4.536  0.5433  0.7433 -0.1990
 3817TIP3    H232867   1.195   6.375   4.662 -0.4191 -0.0823 -0.4547
 3818TIP3   OH232868   5.244   1.594  14.398  0.2454  0.3697  0.6780
 3818TIP3    H132869   5.300   1.541  14.455  0.2142  0.2646  0.6117
 3818TIP3    H232870   5.223   1.536  14.325 -0.8254  0.0495  1.2325
 3819TIP3   OH232871   3.151   2.559   4.459  0.3396 -1.0100 -0.2620
 3819TIP3    H132872   3.165   2.476   4.413  0.1665 -0.7125 -0.8750
 3819TIP3    H232873   3.209   2.556   4.534  0.4539 -1.6191 -0.3703
 3820TIP3   OH232874   2.955   4.984  13.732  0.1720 -0.4561 -0.2950
 3820TIP3    H132875   3.007   5.063  13.720 -0.2903 -0.3282 -1.6328
 3820TIP3    H232876   2.864   5.015  13.736 -0.0021 -0.8907 -0.7192
 3821TIP3   OH232877   1.014   4.187   2.623  0.1545  0.6776  0.5429
 3821TIP3    H132878   1.005   4.095   2.600  2.1270  0.5107  0.2412
 3821TIP3    H232879   0.996   4.234   2.541  0.5406  0.4588  0.3257
 3822TIP3   OH232880   3.282   3.286   3.624  0.1607 -0.0958  0.2263
 3822TIP3    H132881   3.289   3.193   3.645 -0.5171 -0.9622 -2.8978
 3822TIP3    H232882   3.367   3.323   3.646  0.8318 -1.7077  0.4132
 3823TIP3   OH232883   4.055   4.906  15.283  0.1954 -0.1152 -0.2467
 3823TIP3    H132884   3.975   4.891  15.333 -0.1816  3.3610  0.4182
 3823TIP3    H232885   4.108   4.964  15.339  1.3819  0.9177 -2.3243
 3824TIP3   OH232886   6.122   2.063  11.761 -0.1523  0.5125  0.1297
 3824TIP3    H132887   6.171   2.007  11.821  0.8248 -0.3475 -1.3906
 3824TIP3    H232888   6.034   2.024  11.758  0.4441 -0.8300 -0.7050
 3825TIP3   OH232889   2.953   0.577   0.263 -0.3752  0.1058 -0.0778
 3825TIP3    H132890   3.034   0.531   0.242 -0.4675 -0.5252  0.8901
 3825TIP3    H232891   2.905   0.579   0.180 -0.4074 -1.6486 -0.1547
 3826TIP3   OH232892   1.140   1.635  10.653  0.0161 -0.7111  0.6911
 3826TIP3    H132893   1.157   1.716  10.604 -1.1762 -0.1597  1.1503
 3826TIP3    H232894   1.053   1.647  10.689 -0.0501 -2.0886  1.0345
 3827TIP3   OH232895   5.622   3.990   4.829 -0.0467  0.3771 -0.4807
 3827TIP3    H132896   5.536   3.950   4.815 -0.0476  0.5941 -1.1142
 3827TIP3    H232897   5.672   3.924   4.876 -0.6572  0.3631  0.1622
 3828TIP3   OH232898   2.098   3.827   1.104  0.5674 -0.1569  0.0748
 3828TIP3    H132899   2.027   3.762   1.099  0.4875 -0.2037  1.4095
 3828TIP3    H232900   2.108   3.844   1.198  2.5157 -0.3425 -0.0684
 3829TIP3   OH232901   0.791   2.016  11.609 -0.3607  0.1138 -0.3999
 3829TIP3    H132902   0.762   1.953  11.543  0.7997 -0.5904 -0.2659
 3829TIP3    H232903   0.742   2.096  11.589 -0.5743 -0.3085 -1.6491
 3830TIP3   OH232904   1.831   6.468   3.910 -0.0385  0.2683  0.2449
 3830TIP3    H132905   1.852   6.523   3.986  0.7029  1.4758 -0.7919
 3830TIP3    H232906   1.853   6.522   3.834  1.3745 -1.6936 -0.8451
 3831TIP3   OH232907   1.317   6.553   3.091  0.1877  0.2772  0.4042
 3831TIP3    H132908   1.307   6.578   3.183 -2.4076  2.6519 -0.3991
 3831TIP3    H232909   1.229   6.534   3.060  0.4327  2.6628 -2.3092
 3832TIP3   OH232910   0.162   1.146  14.230 -0.1170 -0.2313 -0.1088
 3832TIP3    H132911   0.119   1.068  14.266  0.2486 -0.2960  0.1963
 3832TIP3    H232912   0.255   1.124  14.231  0.0593  0.4894  0.6941
 3833TIP3   OH232913   4.383   2.144  10.391  0.1714  0.1618 -0.3669
 3833TIP3    H132914   4.405   2.237  10.393 -1.5112  0.5869 -0.3875
 3833TIP3    H232915   4.396   2.114  10.481 -0.0875  0.6273 -0.1709
 3834TIP3   OH232916   1.363   0.023   3.850 -0.5976 -0.3470 -0.6285
 3834TIP3    H132917   1.336   0.076   3.775  0.3111 -0.4293 -1.0338
 3834TIP3    H232918   1.438  -0.027   3.818 -0.5618 -0.8286  0.1678
 3835TIP3   OH232919   5.598   4.732  17.019 -0.1764 -0.2213  0.3320
 3835TIP3    H132920   5.662   4.686  16.965  0.3979  2.2583 -1.2231
 3835TIP3    H232921   5.618   4.703  17.108  1.3073 -1.5793 -0.3886
 3836TIP3   OH232922   4.743   3.202   4.678 -0.1575 -0.0485  0.3662
 3836TIP3    H132923   4.826   3.156   4.695  0.7804  1.5892  0.3654
 3836TIP3    H232924   4.768   3.285   4.639 -1.8457  0.3123 -0.0440
 3837TIP3   OH232925   5.205   5.243  13.442 -0.5026  0.3770 -0.3687
 3837TIP3    H132926   5.238   5.211  13.526 -1.8478  1.6555  0.6989
 3837TIP3    H232927   5.189   5.163  13.391  2.1782 -0.3631 -0.2121
 3838TIP3   OH232928   4.118   4.860  15.655 -0.3093 -0.4299  0.0605
 3838TIP3    H132929   4.115   4.870  15.751 -1.0680 -0.5117  0.0495
 3838TIP3    H232930   4.199   4.811  15.639  0.1054  0.0548  0.6178
 3839TIP3   OH232931   0.902   2.348   6.514 -0.5803  0.1178 -0.1342
 3839TIP3    H132932   0.869   2.415   6.574 -0.3678 -2.0065  2.4757
 3839TIP3    H232933   0.827   2.289   6.500 -0.2624 -0.0969 -1.0311
 3840TIP3   OH232934   2.519   2.057   5.526  0.0686  0.6006  0.5339
 3840TIP3    H132935   2.434   2.035   5.487 -0.0392  1.2839  0.3626
 3840TIP3    H232936   2.498   2.115   5.599  0.4034  1.1007  0.2438
 3841TIP3   OH232937   3.903   4.410   4.964 -0.2537 -0.0696  0.0892
 3841TIP3    H132938   3.923   4.355   5.040 -0.5825 -0.1193  0.1430
 3841TIP3    H232939   3.836   4.362   4.916 -0.6827  0.3645  0.2362
 3842TIP3   OH232940   4.255   4.423   6.380  0.3077 -0.2360 -0.2741
 3842TIP3    H132941   4.267   4.329   6.371 -1.1454 -1.2347  4.8263
 3842TIP3    H232942   4.161   4.434   6.394  0.1678  2.3140 -2.4123
 3843TIP3   OH232943   5.231   4.428   4.561 -0.2567 -0.1267 -0.2445
 3843TIP3    H132944   5.142   4.454   4.537 -0.1553 -1.0078 -1.7681
 3843TIP3    H232945   5.278   4.510   4.574 -1.9924  0.4297  3.7662
 3844TIP3   OH232946   1.684   2.126  15.561 -0.4203  0.1606  0.1379
 3844TIP3    H132947   1.716   2.216  15.565  0.5381 -0.2288  1.7861
 3844TIP3    H232948   1.727   2.090  15.483 -0.2224  0.8918 -0.1074
 3845TIP3   OH232949   0.673   4.429  13.965  0.1719 -0.3044 -0.4119
 3845TIP3    H132950   0.634   4.368  14.027 -0.2897 -1.4893 -1.7927
 3845TIP3    H232951   0.697   4.506  14.017 -1.1445 -0.8198  1.0113
 3846TIP3   OH232952   0.065   1.489  15.171  0.1323 -0.4637 -0.1162
 3846TIP3    H132953   0.109   1.574  15.183 -0.3058 -0.1679 -0.5659
 3846TIP3    H232954   0.122   1.441  15.111  1.1369 -1.0653  1.2449
 3847TIP3   OH232955   1.334   5.079  10.959  0.3140  0.5549 -0.0101
 3847TIP3    H132956   1.388   5.001  10.973 -0.0970  0.4196  0.9270
 3847TIP3    H232957   1.388   5.137  10.905  0.1557 -0.8788 -1.8037
 3848TIP3   OH232958   6.743   1.584  14.821 -0.4626  0.1821  0.3711
 3848TIP3    H132959   6.802   1.572  14.746 -0.4395 -0.7362  0.5257
 3848TIP3    H232960   6.792   1.549  14.896 -1.0084 -0.1357  0.5845
 3849TIP3   OH232961   2.688   4.354   3.639  0.5139 -0.4553  0.2609
 3849TIP3    H132962   2.610   4.403   3.615 -0.7895 -1.5306  2.0582
 3849TIP3    H232963   2.749   4.420   3.672  0.7146  0.4828 -1.7886
 3850TIP3   OH232964   2.304   3.788   3.773 -0.0385  0.2100  0.4581
 3850TIP3    H132965   2.302   3.723   3.844 -0.0191 -0.0292  0.2418
 3850TIP3    H232966   2.389   3.830   3.781 -1.0324  2.0878  2.2665
 3851TIP3   OH232967   2.607   5.736  13.471  0.3334 -0.0070  0.2318
 3851TIP3    H132968   2.678   5.797  13.451 -0.6649  1.2506  0.3587
 3851TIP3    H232969   2.567   5.717  13.386  0.0925  0.2307  0.2900
 3852TIP3   OH232970   4.417   5.971   3.165  0.1326  0.5536 -0.1405
 3852TIP3    H132971   4.461   5.890   3.137 -0.1110  1.0210 -1.9775
 3852TIP3    H232972   4.443   5.981   3.257  1.8718 -0.4952 -0.4599
 3853TIP3   OH232973   5.287   2.284  13.770 -0.0374  0.1283  0.5623
 3853TIP3    H132974   5.310   2.363  13.819 -1.0541  1.1047 -0.4790
 3853TIP3    H232975   5.350   2.282  13.698 -0.9686  0.9092 -0.3187
 3854TIP3   OH232976   1.138   6.705  15.473  0.2049 -0.1859  0.0094
 3854TIP3    H132977   1.169   6.703  15.564 -1.0825 -0.2250  0.4749
 3854TIP3    H232978   1.067   6.641  15.471  0.8819 -0.9384 -1.3042
 3855TIP3   OH232979   1.084   0.306  16.291 -0.4936 -0.1722  0.2205
 3855TIP3    H132980   1.140   0.383  16.300  0.7325 -0.8566 -1.3380
 3855TIP3    H232981   0.995   0.342  16.293 -0.0046  1.0823  1.1594
 3856TIP3   OH232982   6.806   3.355  12.655  0.5005 -0.5656 -0.6806
 3856TIP3    H132983   6.751   3.311  12.589 -0.3333  0.1399 -0.4870
 3856TIP3    H232984   6.814   3.445  12.621 -0.1875 -0.1128  0.3049
 3857TIP3   OH232985   1.292   4.866  14.386  0.4073 -0.2144  0.0350
 3857TIP3    H132986   1.243   4.807  14.328 -0.3142 -0.1675  0.5855
 3857TIP3    H232987   1.304   4.945  14.334  1.2039 -0.7538 -0.6355
 3858TIP3   OH232988   4.238   6.657  14.852 -0.5663 -0.1461 -0.4432
 3858TIP3    H132989   4.220   6.650  14.946  0.4928  0.1121 -0.2057
 3858TIP3    H232990   4.202   6.742  14.827  0.6502  0.5615  0.1179
 3859TIP3   OH232991   5.033   0.146   3.951  0.2445  0.4258 -0.1082
 3859TIP3    H132992   4.942   0.155   3.981  0.6537  1.5643  0.8651
 3859TIP3    H232993   5.060   0.235   3.931  1.9039  0.4457  1.9216
 3860TIP3   OH232994   4.297   1.150  16.859  0.4820  0.0103  0.8253
 3860TIP3    H132995   4.313   1.116  16.771 -0.3306  0.9611  0.2896
 3860TIP3    H232996   4.329   1.081  16.917  0.5586 -0.8657 -0.2161
 3861TIP3   OH232997   6.370   3.505   4.352  0.0162  0.3560  0.8413
 3861TIP3    H132998   6.352   3.440   4.285 -0.7403  1.0313  0.3794
 3861TIP3    H232999   6.353   3.460   4.435  1.2953 -0.5903  0.6263
 3862TIP3   OH233000   5.060   1.543   6.498 -0.3169  0.1817  0.2018
 3862TIP3    H133001   5.119   1.468   6.509 -0.6648  0.0492  1.3481
 3862TIP3    H233002   5.091   1.587   6.419 -0.0414 -1.1072 -0.4352
 3863TIP3   OH233003   0.214   0.093   1.911 -0.8264 -0.2557  0.5009
 3863TIP3    H133004   0.217   0.024   1.977  2.0314 -1.0690 -0.3735
 3863TIP3    H233005   0.124   0.091   1.879 -1.5823 -1.5849  2.5069
 3864TIP3   OH233006   1.323   2.136  14.461  0.5128  0.2616 -0.1419
 3864TIP3    H133007   1.312   2.185  14.380 -1.1474 -0.9862 -0.7140
 3864TIP3    H233008   1.279   2.189  14.527 -1.7635 -0.5915 -0.8581
 3865TIP3   OH233009   4.013   0.451   2.692  0.8827 -0.1874 -0.5278
 3865TIP3    H133010   3.974   0.530   2.730  0.1980 -0.3556 -0.8643
 3865TIP3    H233011   3.996   0.460   2.598  3.0155  0.4792 -0.8933
 3866TIP3   OH233012   0.586   5.985   3.626 -0.1175  0.3183 -0.0634
 3866TIP3    H133013   0.567   5.975   3.719  0.0216 -0.6061 -0.1315
 3866TIP3    H233014   0.506   6.025   3.590  0.6405  2.7900  0.8031
 3867TIP3   OH233015   6.062   2.442   5.369 -0.3114 -0.4209 -0.4104
 3867TIP3    H133016   6.102   2.359   5.395  1.2419  0.1610 -0.8490
 3867TIP3    H233017   6.073   2.445   5.274  1.2214  1.0258 -0.2405
 3868TIP3   OH233018   2.744   0.471   3.163  0.2735  0.2540 -0.1134
 3868TIP3    H133019   2.724   0.454   3.070  1.2590  2.7811 -0.8767
 3868TIP3    H233020   2.796   0.395   3.190 -1.1370 -1.1791 -1.2102
 3869TIP3   OH233021   5.175   4.006  14.033  0.8396  0.1152 -0.1804
 3869TIP3    H133022   5.210   3.953  13.961 -3.2613 -2.8646 -0.3283
 3869TIP3    H233023   5.162   3.944  14.104 -0.3215  1.8404  1.1987
 3870TIP3   OH233024   1.245   1.015   0.695  0.2805  0.5495 -0.0317
 3870TIP3    H133025   1.325   0.966   0.714 -0.2508 -0.1766  0.4035
 3870TIP3    H233026   1.271   1.107   0.696  0.9056  0.3689  1.1020
 3871TIP3   OH233027   1.849   3.001   0.668  0.3235  0.1463  0.7844
 3871TIP3    H133028   1.839   2.973   0.577 -0.6727 -0.7968  1.1605
 3871TIP3    H233029   1.818   3.091   0.669  1.2863  0.5170  0.0167
 3872TIP3   OH233030   3.739   6.022   3.374  0.1824 -0.0638 -0.0615
 3872TIP3    H133031   3.810   6.066   3.328 -0.1337  0.7893  0.2602
 3872TIP3    H233032   3.783   5.953   3.425  0.4048 -1.9570 -2.6455
 3873TIP3   OH233033   0.029   4.159  11.469  0.0916  0.1284  0.1289
 3873TIP3    H133034   0.070   4.074  11.449 -0.3626 -0.2816  0.8913
 3873TIP3    H233035   0.014   4.156  11.564 -3.7232 -0.6829 -0.3513
 3874TIP3   OH233036   1.424   3.022   2.404 -0.6861 -0.0918 -0.1457
 3874TIP3    H133037   1.409   2.959   2.474 -0.5249  0.9764  0.8816
 3874TIP3    H233038   1.493   2.983   2.350 -0.2909 -0.5890  0.7105
 3875TIP3   OH233039   0.497   0.368   5.632 -0.2141 -0.1091 -0.5397
 3875TIP3    H133040   0.563   0.344   5.567  0.0210 -1.1487  0.0566
 3875TIP3    H233041   0.520   0.316   5.709 -1.5467 -0.2554 -0.2232
 3876TIP3   OH233042   2.928   4.138   1.018  0.0536  0.2047  0.3792
 3876TIP3    H133043   3.019   4.166   1.015  0.3176 -0.4769  1.4766
 3876TIP3    H233044   2.878   4.218   1.000  0.8617  0.5445 -0.4001
 3877TIP3   OH233045   2.547   4.560   5.318 -0.2599 -0.6171 -0.4512
 3877TIP3    H133046   2.482   4.527   5.380  0.2116 -1.7207 -0.5207
 3877TIP3    H233047   2.619   4.591   5.372 -0.7104  0.3458 -0.3846
 3878TIP3   OH233048   2.968   6.728   2.345  0.7561 -0.6208  1.1211
 3878TIP3    H133049   2.896   6.667   2.360  2.6168 -2.9605  1.1509
 3878TIP3    H233050   2.965   6.787   2.420 -1.4368 -0.2492  0.8196
 3879TIP3   OH233051   0.748   5.856  14.718  0.4421 -0.2408 -0.6803
 3879TIP3    H133052   0.698   5.778  14.741 -0.4500  0.1420 -1.2777
 3879TIP3    H233053   0.785   5.886  14.801 -0.3272 -0.5346 -0.2246
 3880TIP3   OH233054   4.757   2.048  16.303 -0.1173 -0.7839 -0.1190
 3880TIP3    H133055   4.822   2.029  16.371  0.0281  0.5179  0.1355
 3880TIP3    H233056   4.782   1.993  16.229  1.2043 -0.4049  0.0239
 3881TIP3   OH233057   4.915   6.109  11.900  0.2907  0.5530 -0.4540
 3881TIP3    H133058   4.993   6.094  11.846 -0.4402 -1.0069 -1.1526
 3881TIP3    H233059   4.843   6.109  11.837 -0.5499 -0.9174  0.4274
 3882TIP3   OH233060   5.972   1.832  15.573  0.4165 -0.4175  0.1613
 3882TIP3    H133061   5.889   1.815  15.529 -0.0191 -0.4132  0.9509
 3882TIP3    H233062   6.023   1.883  15.510 -0.9942  1.4031  0.4185
 3883TIP3   OH233063   5.434   3.365   1.096  0.2032 -0.3219  0.4878
 3883TIP3    H133064   5.409   3.435   1.156  0.8841  0.3571 -0.0082
 3883TIP3    H233065   5.413   3.399   1.009  1.3995 -0.3498  0.1757
 3884TIP3   OH233066   1.551   4.504  13.759 -0.1481  0.1187 -0.0433
 3884TIP3    H133067   1.533   4.415  13.788 -2.3569  0.8716  1.2065
 3884TIP3    H233068   1.595   4.545  13.834  0.3991  0.2391 -0.4209
 3885TIP3   OH233069   1.182   2.563  12.601  0.7992 -0.6712 -0.5478
 3885TIP3    H133070   1.118   2.567  12.672 -0.6028  0.2847 -1.8266
 3885TIP3    H233071   1.164   2.481  12.556  1.2457 -0.9486 -0.2362
 3886TIP3   OH233072   0.428   2.697  12.198 -0.0947  0.1250  0.6301
 3886TIP3    H133073   0.415   2.610  12.160 -0.5717  0.5213 -0.1256
 3886TIP3    H233074   0.495   2.683  12.266  0.2481 -0.7272  0.1379
 3887TIP3   OH233075   5.189   6.471   1.969  1.1388  0.2552  0.1737
 3887TIP3    H133076   5.138   6.430   1.898 -0.5995 -0.0669  1.5455
 3887TIP3    H233077   5.257   6.520   1.924  0.6851 -0.7235 -1.6923
 3888TIP3   OH233078   6.086   0.981  14.564  0.5005  0.1745 -0.1935
 3888TIP3    H133079   6.086   1.003  14.657  2.0760  1.7032 -0.5064
 3888TIP3    H233080   5.994   0.981  14.539 -0.1676 -2.4683  1.7838
 3889TIP3   OH233081   2.304   1.156   1.692 -0.0200 -0.3159  0.5460
 3889TIP3    H133082   2.340   1.187   1.775 -1.1581  2.6637  0.0736
 3889TIP3    H233083   2.227   1.105   1.716 -0.0058  0.0277  1.3406
 3890TIP3   OH233084   2.776   4.077   2.324  0.3303 -0.1005  0.0828
 3890TIP3    H133085   2.780   4.066   2.419  0.7846 -1.1921 -0.0582
 3890TIP3    H233086   2.800   4.169   2.310  4.7961 -0.9398  0.7582
 3891TIP3   OH233087   3.244   4.316  14.560  0.8718 -0.2223 -0.1799
 3891TIP3    H133088   3.241   4.248  14.493  1.6644  0.5637 -1.0283
 3891TIP3    H233089   3.336   4.321  14.585  0.9325  0.9532 -0.5704
 3892TIP3   OH233090   5.862   5.555   4.743  0.2937  0.6195  0.4564
 3892TIP3    H133091   5.849   5.533   4.651 -0.1907 -0.3767  0.7423
 3892TIP3    H233092   5.918   5.484   4.776 -0.3817  0.4008  1.1581
 3893TIP3   OH233093   0.411   5.905   0.465 -0.1144  0.0050 -0.4739
 3893TIP3    H133094   0.502   5.906   0.495  0.3056  1.3081 -1.7195
 3893TIP3    H233095   0.405   5.827   0.409 -0.1015 -0.7363  0.5289
 3894TIP3   OH233096   1.078   1.106   4.228  0.1716 -0.4474 -0.0587
 3894TIP3    H133097   1.082   1.169   4.299  1.5710  0.1272 -0.6136
 3894TIP3    H233098   1.000   1.131   4.178 -0.1057 -0.0838  0.5476
 3895TIP3   OH233099   5.563   1.474  10.817 -0.0740 -0.3012  0.5891
 3895TIP3    H133100   5.478   1.484  10.772  0.5594 -0.4134 -0.6748
 3895TIP3    H233101   5.588   1.564  10.840 -0.7527 -0.3093  1.4050
 3896TIP3   OH233102   4.235   0.179  14.320 -0.7322  0.1238 -0.5342
 3896TIP3    H133103   4.171   0.234  14.366 -1.3388 -0.7325 -0.3405
 3896TIP3    H233104   4.237   0.215  14.231 -0.4747  0.9974 -0.1958
 3897TIP3   OH233105   4.249   4.577   4.676  0.0762 -0.3252 -0.3624
 3897TIP3    H133106   4.156   4.595   4.689  0.1680 -0.7470  0.9993
 3897TIP3    H233107   4.293   4.637   4.736  0.6347 -0.8680 -0.2252
 3898TIP3   OH233108   0.730   1.239   5.180  0.6698  0.6485  0.1283
 3898TIP3    H133109   0.794   1.168   5.171  0.9595  1.1055 -1.9431
 3898TIP3    H233110   0.781   1.319   5.168 -0.0010  1.1110  0.3305
 3899TIP3   OH233111   0.960   3.401   2.019 -0.2820  0.0725  0.3075
 3899TIP3    H133112   1.040   3.384   1.969 -0.2144  1.2615 -0.0189
 3899TIP3    H233113   0.890   3.399   1.954 -0.6928 -2.0807  0.7594
 3900TIP3   OH233114   4.435   0.576  11.391 -0.2324  0.4986  0.0512
 3900TIP3    H133115   4.426   0.540  11.480 -0.8193  2.5373  0.8566
 3900TIP3    H233116   4.352   0.620  11.374 -0.7022 -1.0913 -2.1509
 3901TIP3   OH233117   0.180   0.724   2.623 -0.1379  0.4011  0.0576
 3901TIP3    H133118   0.210   0.745   2.711  3.5541  1.4471 -1.2552
 3901TIP3    H233119   0.150   0.808   2.587 -3.1146 -0.2805  0.6705
 3902TIP3   OH233120   2.642   4.689   2.220 -0.0448 -0.1507  0.1727
 3902TIP3    H133121   2.603   4.604   2.240  0.9024 -0.6480 -0.0384
 3902TIP3    H233122   2.643   4.693   2.124  0.2322 -0.0512  0.1809
 3903TIP3   OH233123   3.444   0.920  12.515 -0.4361 -0.3495  0.6326
 3903TIP3    H133124   3.421   1.012  12.532 -0.8175 -0.3945  0.3667
 3903TIP3    H233125   3.514   0.925  12.449 -0.6455 -0.2570  0.4156
 3904TIP3   OH233126   1.763   5.194   2.829  0.8268  0.0619 -0.1846
 3904TIP3    H133127   1.725   5.280   2.815  1.1277  0.1787 -0.2997
 3904TIP3    H233128   1.689   5.134   2.828  0.7178  0.2060 -1.0969
 3905TIP3   OH233129   1.982   4.631  11.215  0.4078 -0.8594 -0.3602
 3905TIP3    H133130   2.003   4.539  11.201  1.4789 -0.5495 -0.8782
 3905TIP3    H233131   1.891   4.640  11.187 -0.4299 -2.1976  1.7011
 3906TIP3   OH233132   5.507   6.268   0.446  0.3961  0.8672  0.3817
 3906TIP3    H133133   5.538   6.267   0.355  1.1148 -0.5807  0.6138
 3906TIP3    H233134   5.490   6.361   0.464 -0.5514  1.1110 -1.4790
 3907TIP3   OH233135   2.881   1.779   1.748  0.4150  0.3000 -0.0029
 3907TIP3    H133136   2.963   1.790   1.699  0.9618  0.9935  1.0375
 3907TIP3    H233137   2.878   1.854   1.806 -1.4487  0.7875 -0.6816
 3908TIP3   OH233138   3.462   5.928   1.563  0.0861  0.2828 -0.5324
 3908TIP3    H133139   3.410   5.957   1.639 -0.3638 -0.0189 -0.7246
 3908TIP3    H233140   3.413   5.960   1.488  1.5970  2.4298 -0.6869
 3909TIP3   OH233141   3.392   0.213  14.818 -0.1859  0.2410  0.2909
 3909TIP3    H133142   3.464   0.263  14.777 -0.5951  0.5317 -0.0843
 3909TIP3    H233143   3.395   0.238  14.910  0.3676  0.0378  0.3371
 3910TIP3   OH233144   0.056   2.790  10.727 -1.3205 -0.2006  0.0853
 3910TIP3    H133145   0.080   2.749  10.809  1.1909 -0.8745 -0.9178
 3910TIP3    H233146  -0.006   2.859  10.752 -0.2956 -0.1035  2.5619
 3911TIP3   OH233147   6.777   5.852  11.401  0.6630  0.2186 -0.1973
 3911TIP3    H133148   6.692   5.813  11.381  0.3580  0.5277  0.4637
 3911TIP3    H233149   6.835   5.778  11.415  0.2313 -0.0066  0.4622
 3912TIP3   OH233150   6.551   6.121  14.707 -0.1032  0.6203  0.2462
 3912TIP3    H133151   6.551   6.025  14.700 -1.6901  0.6791 -1.3651
 3912TIP3    H233152   6.613   6.150  14.641  0.7753  0.7191  1.0938
 3913TIP3   OH233153   6.696   5.508   4.552  0.1039  0.0283 -0.2574
 3913TIP3    H133154   6.745   5.576   4.506  0.4252 -0.5178 -0.7322
 3913TIP3    H233155   6.605   5.535   4.546  0.2106  0.3095 -0.6198
 3914TIP3   OH233156   3.675   5.580   2.789  0.6167 -0.3449  0.0877
 3914TIP3    H133157   3.592   5.585   2.741  0.4041 -0.8856  0.3896
 3914TIP3    H233158   3.742   5.584   2.721  0.3038 -3.1687 -0.5126
 3915TIP3   OH233159   0.302   3.020   0.188 -0.1816  0.9594 -0.3124
 3915TIP3    H133160   0.308   3.004   0.094 -0.2301  1.1676 -0.3498
 3915TIP3    H233161   0.322   2.935   0.228  0.1682  0.9510 -0.5029
 3916TIP3   OH233162   5.423   0.693   3.963 -0.4256  0.2068  0.5796
 3916TIP3    H133163   5.428   0.783   3.932 -2.1732 -0.3511 -1.6124
 3916TIP3    H233164   5.439   0.640   3.885 -1.8234 -1.3332  1.2660
 3917TIP3   OH233165   0.226   4.091   4.880 -0.7048 -0.4985  0.0139
 3917TIP3    H133166   0.249   4.089   4.972 -1.2843 -0.5633  0.1637
 3917TIP3    H233167   0.288   4.031   4.838  1.0656  1.2614 -0.0135
 3918TIP3   OH233168   3.705   1.936  11.918  0.1630 -0.2421  0.1806
 3918TIP3    H133169   3.680   1.887  11.996 -0.7127 -0.7239 -0.3890
 3918TIP3    H233170   3.626   1.936  11.863  0.1523  1.7496  0.1265
 3919TIP3   OH233171   5.273   0.503  11.985  0.6700  0.0452 -0.2776
 3919TIP3    H133172   5.346   0.549  11.945  1.0106 -0.1894  0.0593
 3919TIP3    H233173   5.215   0.572  12.018  1.6494  0.2640  1.0917
 3920TIP3   OH233174   6.791   5.004  15.936  0.2687  0.0951  0.3302
 3920TIP3    H133175   6.821   4.971  16.020 -0.1462 -0.2946  0.3348
 3920TIP3    H233176   6.765   4.925  15.887  0.0213  0.3549  0.0353
 3921TIP3   OH233177   6.610   5.538  12.987  0.0157  0.3743 -0.0770
 3921TIP3    H133178   6.529   5.584  13.006 -0.0479  0.4015 -0.4081
 3921TIP3    H233179   6.671   5.606  12.958 -0.0862  0.2489 -0.5900
 3922TIP3   OH233180   6.090   6.301  12.942  0.5158 -0.0262 -0.1411
 3922TIP3    H133181   6.096   6.218  12.989  1.1546 -0.4219 -0.9007
 3922TIP3    H233182   6.135   6.364  12.998  0.1569 -0.2105  0.3682
 3923TIP3   OH233183   0.737   0.339  13.255 -0.0146  0.5010  0.4230
 3923TIP3    H133184   0.734   0.366  13.346  0.7906  0.4695  0.4630
 3923TIP3    H233185   0.809   0.389  13.217 -0.5788  0.8008 -0.2947
 3924TIP3   OH233186   5.258   1.239   2.599  0.8614 -0.9459  0.5591
 3924TIP3    H133187   5.196   1.271   2.533  0.7667  0.2375  1.1828
 3924TIP3    H233188   5.213   1.166   2.641  0.2381 -0.6534  0.4162
 3925TIP3   OH233189   0.646   3.512   4.561 -0.2844  0.0005  0.2276
 3925TIP3    H133190   0.604   3.575   4.619 -2.2951 -0.1499 -0.9884
 3925TIP3    H233191   0.599   3.430   4.575  0.0819 -0.3696 -0.6273
 3926TIP3   OH233192   5.163   1.211   2.983  0.0783 -0.4163  0.5163
 3926TIP3    H133193   5.210   1.141   3.030 -0.3018  1.2109  3.5672
 3926TIP3    H233194   5.227   1.282   2.975 -0.6662  0.3393  1.1014
 3927TIP3   OH233195   4.921   2.821  14.727  0.3328 -0.2357 -0.4343
 3927TIP3    H133196   4.898   2.738  14.769  0.0287  0.4774  0.8782
 3927TIP3    H233197   4.941   2.880  14.800  1.8703  0.4764 -1.3761
 3928TIP3   OH233198   1.801   4.254   1.846 -0.3656  0.0369 -0.1319
 3928TIP3    H133199   1.756   4.176   1.813  0.8266 -0.8509  0.2330
 3928TIP3    H233200   1.883   4.220   1.882  0.0842  1.4489  0.2395
 3929TIP3   OH233201   0.857   0.770  14.742 -0.0004  0.3170 -0.4973
 3929TIP3    H133202   0.775   0.819  14.752 -0.1176  0.6129 -2.4110
 3929TIP3    H233203   0.919   0.813  14.801 -1.1649  0.1974  0.8425
 3930TIP3   OH233204   0.788   4.837  12.891  0.3739 -0.0109  0.5109
 3930TIP3    H133205   0.785   4.829  12.795 -2.7764 -1.6590  0.5922
 3930TIP3    H233206   0.839   4.761  12.920 -0.2198 -0.5553  0.1610
 3931TIP3   OH233207   6.661   0.481  11.005  0.1843  0.2809  0.0666
 3931TIP3    H133208   6.665   0.473  11.101  1.2608  1.5190  0.1464
 3931TIP3    H233209   6.571   0.507  10.987  0.4833  2.0852  0.9530
 3932TIP3   OH233210   4.610   3.058  16.674  0.4506  0.5140  0.4895
 3932TIP3    H133211   4.613   2.962  16.679  0.4329  0.3574 -1.4831
 3932TIP3    H233212   4.606   3.087  16.765  0.1035 -1.3688  1.1216
 3933TIP3   OH233213   6.661   2.801   0.213  0.0505  0.6279 -0.6729
 3933TIP3    H133214   6.720   2.877   0.220  2.1323 -0.9678  0.1332
 3933TIP3    H233215   6.675   2.768   0.125 -0.3007  0.7370 -0.7710
 3934TIP3   OH233216   4.901   0.637   4.167  0.3340 -0.0845 -0.0732
 3934TIP3    H133217   4.971   0.583   4.204 -0.8639 -0.8196  1.2267
 3934TIP3    H233218   4.821   0.606   4.210 -0.5139  2.2148  0.1652
 3935TIP3   OH233219   5.453   6.040  17.030  0.2220  0.0154  0.8098
 3935TIP3    H133220   5.398   6.113  17.004  0.9029  0.2561  0.0005
 3935TIP3    H233221   5.542   6.066  17.004  0.3861 -1.3685 -0.1212
 3936TIP3   OH233222   1.544   1.439  12.027 -0.1304 -0.5140  0.0267
 3936TIP3    H133223   1.567   1.530  12.044 -0.4123 -0.0816 -1.7503
 3936TIP3    H233224   1.456   1.443  11.990 -0.1042 -1.5068 -0.1661
 3937TIP3   OH233225   6.381   6.222   1.464 -0.0296 -0.1309  0.4417
 3937TIP3    H133226   6.405   6.277   1.389  2.6477 -3.7428 -1.6343
 3937TIP3    H233227   6.318   6.159   1.429  0.9045 -1.6075  1.3225
 3938TIP3   OH233228   0.070   2.199  14.100 -0.2816  0.2098  0.2779
 3938TIP3    H133229   0.104   2.203  14.190  0.4780 -1.1397  0.0697
 3938TIP3    H233230   0.110   2.121  14.062 -2.3061 -0.5156 -0.5431
 3939TIP3   OH233231   2.794   5.514   3.725 -0.0059  0.3939  0.0019
 3939TIP3    H133232   2.862   5.553   3.781 -1.0159  0.9795  0.8558
 3939TIP3    H233233   2.790   5.423   3.753 -1.1424  0.8887  1.5856
 3940TIP3   OH233234   4.147   2.265   2.019 -0.6419  0.3326  0.2121
 3940TIP3    H133235   4.182   2.321   2.088  1.1145  0.1873 -0.5215
 3940TIP3    H233236   4.198   2.288   1.942 -0.6918 -1.4473 -0.3856
 3941TIP3   OH233237   5.552   2.043   3.293 -0.5259  0.3312 -0.7028
 3941TIP3    H133238   5.508   1.959   3.283  0.0033  0.2071 -2.0824
 3941TIP3    H233239   5.593   2.038   3.380  1.4633 -1.7929 -1.6582
 3942TIP3   OH233240   2.718   3.947  15.033 -0.2049  0.4415  0.2616
 3942TIP3    H133241   2.737   4.034  15.070  0.8228 -0.3333  1.6368
 3942TIP3    H233242   2.764   3.886  15.090 -1.7321 -1.1004 -0.0778
 3943TIP3   OH233243   1.860   3.369   3.430 -0.0448  0.5145 -0.1832
 3943TIP3    H133244   1.805   3.295   3.457 -1.3455  1.2601 -0.6760
 3943TIP3    H233245   1.807   3.446   3.449  0.3529  1.2144 -1.7756
 3944TIP3   OH233246   3.674   0.097  11.367  0.0429  0.1697  0.0313
 3944TIP3    H133247   3.750   0.102  11.310 -0.5133  0.7335 -0.6806
 3944TIP3    H233248   3.670   0.005  11.395  1.2095  0.2263  0.4163
 3945TIP3   OH233249   3.334   1.174   5.917  0.3856 -0.1939  0.0910
 3945TIP3    H133250   3.292   1.259   5.904 -2.2995 -1.4494 -0.1136
 3945TIP3    H233251   3.378   1.157   5.833 -2.3149 -0.6307 -1.3475
 3946TIP3   OH233252   6.484   4.345  13.064 -0.0807  0.2804  0.1441
 3946TIP3    H133253   6.413   4.320  13.004  0.3434  0.7412 -0.5652
 3946TIP3    H233254   6.562   4.342  13.009  0.4294 -0.0549  0.8805
 3947TIP3   OH233255   6.789   0.711   6.193  0.5773 -0.5049  0.0220
 3947TIP3    H133256   6.773   0.799   6.157  2.1791  0.0672  0.6556
 3947TIP3    H233257   6.739   0.709   6.274  1.1105  0.1068  0.3771
 3948TIP3   OH233258   5.786   3.841   1.969 -0.4426  0.3917  0.1087
 3948TIP3    H133259   5.825   3.924   1.944  3.4470 -1.7383 -1.8358
 3948TIP3    H233260   5.771   3.795   1.886 -0.7550 -1.5203  1.1570
 3949TIP3   OH233261   1.395   5.493  11.123  0.5016 -0.5481  0.3321
 3949TIP3    H133262   1.412   5.488  11.030  0.6739 -0.0249  0.3322
 3949TIP3    H233263   1.391   5.402  11.152 -0.1536 -0.7280 -0.2914
 3950TIP3   OH233264   4.012   0.169   4.982  0.2001 -0.3080  0.0565
 3950TIP3    H133265   3.973   0.245   4.938  0.6436 -1.4158 -2.4080
 3950TIP3    H233266   3.941   0.105   4.987  0.0910 -0.1281  1.2589
 3951TIP3   OH233267   5.488   1.569   3.746 -0.2157  0.0285  0.5247
 3951TIP3    H133268   5.529   1.626   3.681 -0.4167 -0.7396 -0.2908
 3951TIP3    H233269   5.478   1.625   3.823 -1.2961  1.4027 -0.5565
 3952TIP3   OH233270   5.772   3.461  14.864  0.3489 -0.3198  0.6908
 3952TIP3    H133271   5.809   3.484  14.779  0.1381 -0.2977  0.6039
 3952TIP3    H233272   5.777   3.541  14.916 -1.7599  0.3741 -0.0894
 3953TIP3   OH233273   2.116   2.170   6.339 -0.2722  0.2273  0.5946
 3953TIP3    H133274   2.073   2.086   6.326  1.8089 -0.9433  0.7129
 3953TIP3    H233275   2.050   2.227   6.379 -1.5697 -1.5259  1.0194
 3954TIP3   OH233276   1.962   5.339   1.536 -0.4580  0.0408 -0.1310
 3954TIP3    H133277   1.995   5.381   1.615 -0.5945  0.9504 -0.5472
 3954TIP3    H233278   1.906   5.268   1.569  0.6372 -0.5232  0.5708
 3955TIP3   OH233279   4.005   4.814  12.286  0.2745 -0.7336 -0.1937
 3955TIP3    H133280   3.982   4.898  12.326  2.5436 -0.1908  0.0918
 3955TIP3    H233281   4.015   4.833  12.193 -0.6198 -1.0416 -0.3697
 3956TIP3   OH233282   5.949   1.351   1.935 -0.2106 -0.2790 -0.3612
 3956TIP3    H133283   5.976   1.418   1.998 -1.4820 -0.1789  0.0995
 3956TIP3    H233284   5.989   1.271   1.967  0.3955  0.0511 -0.2813
 3957TIP3   OH233285   4.898   4.229   4.203  0.1006  0.4585 -0.2730
 3957TIP3    H133286   4.957   4.203   4.274  0.2577  2.3665  0.3786
 3957TIP3    H233287   4.811   4.202   4.233  0.4573 -1.0538 -0.5614
 3958TIP3   OH233288   6.106   4.880  11.793  0.0455  0.3484 -0.0413
 3958TIP3    H133289   6.022   4.866  11.749  0.6679 -1.5486 -0.7056
 3958TIP3    H233290   6.154   4.938  11.734 -0.5243  0.8689 -0.0024
 3959TIP3   OH233291   1.575   5.410  11.930  0.2272 -0.2709  0.3241
 3959TIP3    H133292   1.533   5.358  11.862  1.6499 -1.2957  0.1803
 3959TIP3    H233293   1.669   5.402  11.911  0.6284 -0.1994  2.1273
 3960TIP3   OH233294   6.181   1.182  17.080 -0.2794 -0.1457 -0.3847
 3960TIP3    H133295   6.235   1.105  17.097 -1.3123 -0.6018  0.9531
 3960TIP3    H233296   6.171   1.184  16.984 -0.2631 -1.6708 -0.4298
 3961TIP3   OH233297   5.369   2.038   5.293  0.0099 -0.3440  0.5987
 3961TIP3    H133298   5.357   2.055   5.200 -0.4123 -3.6093 -0.0668
 3961TIP3    H233299   5.443   2.093   5.318 -1.3807  2.4853 -0.9808
 3962TIP3   OH233300   2.939   0.805  15.506  0.3147  0.2976 -0.4976
 3962TIP3    H133301   2.993   0.754  15.446  0.3298 -1.1222  0.6639
 3962TIP3    H233302   2.878   0.741  15.543 -0.5423  1.3949  0.0446
 3963TIP3   OH233303   0.470   5.048   0.688 -0.0138 -0.8029 -0.4400
 3963TIP3    H133304   0.415   5.027   0.613 -1.1568  1.7737 -0.4551
 3963TIP3    H233305   0.484   5.143   0.682  0.3277 -0.5845  2.2759
 3964TIP3   OH233306   3.452   0.678  13.913  0.0136  0.4762 -0.0271
 3964TIP3    H133307   3.455   0.767  13.878  3.3693  0.6486  0.4224
 3964TIP3    H233308   3.484   0.623  13.841 -0.4873 -0.1906  0.2452
 3965TIP3   OH233309   2.475   0.702  17.029 -0.1844 -0.3937 -0.2841
 3965TIP3    H133310   2.404   0.761  17.056 -0.9876 -1.0839 -0.8128
 3965TIP3    H233311   2.430   0.621  17.006  0.8267 -0.9512 -0.3166
 3966TIP3   OH233312   2.527   1.826   3.597  0.0106  0.1368  0.5318
 3966TIP3    H133313   2.485   1.912   3.598 -1.8372 -0.7045 -0.1052
 3966TIP3    H233314   2.480   1.777   3.529  2.5725 -0.6593 -0.7996
 3967TIP3   OH233315   2.967   4.522  11.917 -0.2531  0.3248 -0.3430
 3967TIP3    H133316   2.906   4.549  11.848  0.5251  1.2769 -0.6858
 3967TIP3    H233317   2.989   4.431  11.896 -1.8400 -0.1592  0.0156
 3968TIP3   OH233318   0.062   2.806  13.834 -0.1396  0.1046 -0.2653
 3968TIP3    H133319   0.031   2.866  13.766  0.1180  1.6201  0.9245
 3968TIP3    H233320   0.078   2.724  13.787  0.4624  1.2285 -2.1168
 3969TIP3   OH233321   4.603   4.787   4.607 -0.3359  0.2329 -0.3873
 3969TIP3    H133322   4.622   4.739   4.688  1.3270  0.2934 -0.7187
 3969TIP3    H233323   4.669   4.856   4.604 -0.7846  0.6337 -1.4977
 3970TIP3   OH233324   6.003   2.351  13.859 -0.1383 -0.4162 -0.7041
 3970TIP3    H133325   5.986   2.289  13.930 -0.4070  1.4048  0.8903
 3970TIP3    H233326   6.093   2.332  13.832  0.1601 -0.7875  0.5006
 3971TIP3   OH233327   6.497   0.039   4.425  0.0981  0.5667  0.2757
 3971TIP3    H133328   6.508   0.025   4.519 -0.5786 -1.4487  0.0990
 3971TIP3    H233329   6.480   0.133   4.417  0.2722  0.7965  2.1493
 3972TIP3   OH233330   2.827   2.265   2.269  0.2406  0.3781  0.0267
 3972TIP3    H133331   2.766   2.192   2.280 -0.4857  1.1707  1.7428
 3972TIP3    H233332   2.770   2.341   2.252  0.8269  0.8999  0.3564
 3973TIP3   OH233333   3.214   2.944  16.918 -0.1444  0.5272  0.1138
 3973TIP3    H133334   3.258   3.007  16.975 -1.0900  0.3511  1.0890
 3973TIP3    H233335   3.141   2.911  16.971  0.1425 -1.1630 -0.4819
 3974TIP3   OH233336   6.024   0.424   4.101  0.1624  0.7044  0.7242
 3974TIP3    H133337   6.050   0.386   4.185  3.4517 -1.2912 -0.9683
 3974TIP3    H233338   6.102   0.470   4.070 -0.3763  0.0233 -1.8813
 3975TIP3   OH233339   2.930   4.689   2.596 -0.4396  0.0981 -0.2669
 3975TIP3    H133340   3.020   4.657   2.589 -0.2679  0.7179 -1.0773
 3975TIP3    H233341   2.909   4.680   2.689 -0.0251 -1.3088 -0.2885
 3976TIP3   OH233342   6.559   6.212   3.371 -0.2913 -0.2258 -0.0986
 3976TIP3    H133343   6.543   6.276   3.302 -0.9373 -1.1808 -0.8692
 3976TIP3    H233344   6.576   6.264   3.450 -1.5208  0.8798 -0.5320
 3977TIP3   OH233345   1.196   4.294  16.609 -0.2199  0.3420  0.4036
 3977TIP3    H133346   1.220   4.387  16.600  0.1020  0.2253  0.0353
 3977TIP3    H233347   1.247   4.264  16.684  0.9178  0.0606 -0.4587
 3978TIP3   OH233348   1.400   3.847   5.103  0.5426 -0.5816  0.4945
 3978TIP3    H133349   1.388   3.854   5.008  0.3582  2.3222  0.6340
 3978TIP3    H233350   1.486   3.808   5.114  0.4878 -1.1247 -0.8638
 3979TIP3   OH233351   0.100   3.201   1.857 -0.2492 -0.7710 -0.2006
 3979TIP3    H133352   0.190   3.175   1.877 -0.4136 -1.7630 -0.6964
 3979TIP3    H233353   0.106   3.242   1.771  0.0195  0.9878  0.6044
 3980TIP3   OH233354   0.321   6.530  13.783  0.3098 -0.5674  0.4129
 3980TIP3    H133355   0.233   6.498  13.802 -0.3476  1.4313  1.0655
 3980TIP3    H233356   0.353   6.562  13.867  2.0202 -1.9723  0.3496
 3981TIP3   OH233357   4.941   1.886  13.556 -0.2891 -0.5386 -0.3509
 3981TIP3    H133358   5.023   1.836  13.546 -1.0596 -1.6211 -1.6570
 3981TIP3    H233359   4.930   1.895  13.650  0.7944 -1.3114 -0.1237
 3982TIP3   OH233360   4.958   3.870   5.187 -0.7774  0.6232 -0.1462
 3982TIP3    H133361   4.924   3.871   5.098 -0.3694 -0.7329 -0.3462
 3982TIP3    H233362   4.904   3.804   5.232  0.3007 -0.1579  0.0498
 3983TIP3   OH233363   5.205   6.494   3.211 -0.4400  0.3306 -0.2621
 3983TIP3    H133364   5.273   6.527   3.270 -0.5493 -1.6140  1.0113
 3983TIP3    H233365   5.239   6.514   3.123  1.0327  0.7887  0.3738
 3984TIP3   OH233366   6.098   0.364  11.897 -0.1130 -0.4062 -0.3287
 3984TIP3    H133367   6.126   0.353  11.988 -1.4239 -1.8488 -0.0509
 3984TIP3    H233368   6.165   0.419  11.857  1.0493 -0.6265  1.2357
 3985TIP3   OH233369   6.055   5.765  11.514  0.1030  0.1640  0.3462
 3985TIP3    H133370   5.965   5.741  11.535  0.1104 -0.6760 -0.5495
 3985TIP3    H233371   6.047   5.851  11.472 -0.0386  1.1898  2.3167
 3986TIP3   OH233372   0.920   1.898   2.773 -0.6022  0.2488 -0.0246
 3986TIP3    H133373   0.937   1.946   2.692  0.1670 -0.4559 -0.2960
 3986TIP3    H233374   0.850   1.836   2.750  0.3726 -0.7183 -0.4816
 3987TIP3   OH233375   5.884   1.313   5.825  0.2821  0.0945 -0.0027
 3987TIP3    H133376   5.790   1.295   5.814  0.3315 -0.4923  0.4702
 3987TIP3    H233377   5.927   1.250   5.768  0.4599 -1.4589  1.7406
 3988TIP3   OH233378   6.083   6.503   4.294  0.3195 -0.0646  0.2506
 3988TIP3    H133379   6.167   6.536   4.326 -0.1963  1.5968  0.0010
 3988TIP3    H233380   6.019   6.532   4.360 -0.1069 -1.0646  0.2940
 3989TIP3   OH233381   3.982   0.919   2.864  0.0133 -0.0353 -0.2135
 3989TIP3    H133382   4.012   0.857   2.797  2.2818 -0.0134  0.6731
 3989TIP3    H233383   3.961   0.865   2.939  1.4448  0.1841  0.3730
 3990TIP3   OH233384   1.320   3.029  10.398 -0.2931  0.0168  0.1726
 3990TIP3    H133385   1.245   3.043  10.341  0.3475  0.3123 -0.6321
 3990TIP3    H233386   1.335   3.113  10.440 -0.9802 -0.2974  1.0510
 3991TIP3   OH233387   6.558   6.017   2.055  0.2567  0.2326  0.0477
 3991TIP3    H133388   6.536   6.016   1.961  1.4482  1.5763 -0.2777
 3991TIP3    H233389   6.651   5.997   2.058  0.4430  1.1826  0.8799
 3992TIP3   OH233390   3.513   1.868   3.121  0.2927  0.0526 -0.8297
 3992TIP3    H133391   3.551   1.951   3.092  3.1038 -1.0529 -0.6318
 3992TIP3    H233392   3.473   1.887   3.205  1.4206  1.0944 -0.5071
 3993TIP3   OH233393   1.432   3.970  13.206 -0.6276  0.1710  0.2223
 3993TIP3    H133394   1.391   4.045  13.162  1.4155  1.7168  0.7998
 3993TIP3    H233395   1.507   3.948  13.150  0.4325  0.4109  1.5184
 3994TIP3   OH233396   5.804   6.091  17.065  0.0480  0.2173 -0.1130
 3994TIP3    H133397   5.768   6.138  16.990  1.0251 -1.0785 -1.4484
 3994TIP3    H233398   5.827   6.160  17.128  0.1704  1.4240 -1.4250
 3995TIP3   OH233399   6.505   0.710   4.862  0.1894  0.0621 -0.1085
 3995TIP3    H133400   6.582   0.750   4.824 -0.0522 -0.3728 -1.0840
 3995TIP3    H233401   6.438   0.778   4.859  0.9201  1.0035  2.2436
 3996TIP3   OH233402   5.106   6.058  11.208  0.4032 -0.2323 -0.6101
 3996TIP3    H133403   5.024   6.024  11.243  1.2275 -1.4984  0.1822
 3996TIP3    H233404   5.143   5.985  11.159  2.9914 -1.2522  2.4566
 3997TIP3   OH233405   5.839   3.145   3.017 -0.5196 -0.1194  0.5695
 3997TIP3    H133406   5.862   3.133   3.110  1.0094 -0.6300  0.1511
 3997TIP3    H233407   5.859   3.237   2.999  1.5152 -0.6086  0.1572
 3998TIP3   OH233408   5.408   1.330   0.807  0.1608  0.3661  0.0818
 3998TIP3    H133409   5.329   1.311   0.757  0.6463  0.1591 -0.6366
 3998TIP3    H233410   5.412   1.260   0.873 -0.0649  0.1683 -0.1116
 3999TIP3   OH233411   3.641   3.100   1.731 -0.6842  0.8693  0.5603
 3999TIP3    H133412   3.693   3.180   1.726 -0.7719  1.1173  2.5813
 3999TIP3    H233413   3.593   3.096   1.648  0.9638  1.7287 -0.4804
 4000TIP3   OH233414   0.903   1.436   2.081 -0.1037  0.2087  0.0956
 4000TIP3    H133415   0.932   1.513   2.131 -1.2081  0.5818  0.1861
 4000TIP3    H233416   0.850   1.386   2.144  1.0771 -0.9408  0.2153
 4001TIP3   OH233417   2.557   4.602  12.105  0.3162 -0.1267  0.2157
 4001TIP3    H133418   2.586   4.690  12.128  0.6433  0.1838 -1.2443
 4001TIP3    H233419   2.609   4.544  12.160  1.6239  0.5432 -0.2668
 4002TIP3   OH233420   1.232   6.320  11.750  0.3702  0.1388  0.3805
 4002TIP3    H133421   1.308   6.326  11.692  1.5876 -2.5332  1.5453
 4002TIP3    H233422   1.160   6.354  11.698  2.0646  1.4210 -1.2848
 4003TIP3   OH233423   5.435   3.431  13.160 -0.2907  0.3134  0.1524
 4003TIP3    H133424   5.470   3.518  13.181 -1.2114  0.7142  0.0608
 4003TIP3    H233425   5.486   3.403  13.084  1.1471  0.0509  1.1704
 4004TIP3   OH233426   1.522   5.425   5.446 -0.2267 -0.1865 -0.1839
 4004TIP3    H133427   1.445   5.371   5.427  2.0607 -3.8789  0.0689
 4004TIP3    H233428   1.535   5.414   5.540 -0.5141  2.1857  0.1888
 4005TIP3   OH233429   4.556   4.804  16.784 -0.3385 -0.2724  0.2788
 4005TIP3    H133430   4.570   4.812  16.690 -2.0658  0.3610  0.0449
 4005TIP3    H233431   4.473   4.757  16.792  0.0413 -0.7794  1.5040
 4006TIP3   OH233432   2.973   2.498  11.931  0.3163 -0.0034 -0.0531
 4006TIP3    H133433   3.042   2.546  11.978  0.0282 -0.5903  0.9997
 4006TIP3    H233434   2.986   2.522  11.839  1.4405  0.5039  0.2152
 4007TIP3   OH233435   6.069   4.936   5.137 -0.2501 -0.0573 -0.1465
 4007TIP3    H133436   6.029   5.005   5.084 -0.5202 -0.6824 -0.7836
 4007TIP3    H233437   5.997   4.875   5.154  0.1288 -0.5089 -0.1489
 4008TIP3   OH233438   4.736   1.341  14.576 -0.0409  0.3291  0.0896
 4008TIP3    H133439   4.813   1.298  14.539 -0.7668  0.2316 -1.3445
 4008TIP3    H233440   4.687   1.372  14.501 -1.3097  0.5833  0.9940
 4009TIP3   OH233441   6.238   0.471   1.963 -0.4505  0.2232  0.1229
 4009TIP3    H133442   6.331   0.475   1.986 -0.7705  0.9987  1.3552
 4009TIP3    H233443   6.232   0.524   1.883 -0.0539  1.4332  0.8675
 4010TIP3   OH233444   3.967   3.290  13.129 -0.4974  0.1060  0.0125
 4010TIP3    H133445   3.921   3.363  13.088 -0.8273  0.4448  0.9592
 4010TIP3    H233446   4.030   3.261  13.063 -2.3057 -0.6101 -1.4688
 4011TIP3   OH233447   2.326   5.827  10.771 -0.9133  0.1942 -0.2247
 4011TIP3    H133448   2.246   5.829  10.825 -1.7111 -0.0422 -1.3556
 4011TIP3    H233449   2.303   5.770  10.697  0.7316 -0.9313  0.0638
 4012TIP3   OH233450   4.204   0.554  11.148 -0.0989 -0.4785 -0.3014
 4012TIP3    H133451   4.164   0.547  11.234 -1.8607  0.5713 -0.9704
 4012TIP3    H233452   4.225   0.464  11.123  0.5475 -0.7781  1.2407
 4013TIP3   OH233453   4.910   3.209   5.156 -0.4990 -0.3183  0.0678
 4013TIP3    H133454   4.985   3.266   5.172 -1.0648  0.1761  1.0585
 4013TIP3    H233455   4.834   3.268   5.157 -0.9853 -0.9275 -0.0531
 4014TIP3   OH233456   5.870   6.132   5.337 -0.0251  0.5036  0.2300
 4014TIP3    H133457   5.879   6.071   5.265 -0.1867  0.5389  0.1800
 4014TIP3    H233458   5.781   6.120   5.369 -0.0294  0.6505  0.2756
 4015TIP3   OH233459   4.253   0.723  12.380 -0.0824 -0.1684  0.0797
 4015TIP3    H133460   4.206   0.643  12.358 -0.0345  0.0493 -0.8575
 4015TIP3    H233461   4.208   0.792  12.331 -0.5151  0.4894  1.3669
 4016TIP3   OH233462   2.205   6.683   5.096  0.6012 -0.4909  0.2899
 4016TIP3    H133463   2.255   6.734   5.032 -0.0605  0.6106  0.6217
 4016TIP3    H233464   2.123   6.732   5.107  1.2069  0.1465  2.9630
 4017TIP3   OH233465   5.861   3.487  13.683  0.4072 -0.4171  0.1424
 4017TIP3    H133466   5.868   3.577  13.651  0.2376  0.0801  1.4585
 4017TIP3    H233467   5.899   3.434  13.613 -2.3108  0.3427 -2.0806
 4018TIP3   OH233468   1.761   1.217   5.714 -0.1213 -0.1616 -0.3250
 4018TIP3    H133469   1.778   1.308   5.740  1.1231 -0.5313  0.2002
 4018TIP3    H233470   1.708   1.225   5.635  0.6005  1.0380 -0.7138
 4019TIP3   OH233471   0.892   0.059  14.287 -0.0809 -0.0637  0.1036
 4019TIP3    H133472   0.933   0.010  14.216  1.6601  2.2790 -0.6225
 4019TIP3    H233473   0.836   0.123  14.243  0.2019  0.7257  0.8649
 4020TIP3   OH233474   2.201   5.954  11.266  0.7109  0.2095  0.2037
 4020TIP3    H133475   2.160   5.892  11.206 -0.9706  2.2059 -0.8605
 4020TIP3    H233476   2.275   5.989  11.216  0.0387  0.9819 -0.2819
 4021TIP3   OH233477   6.255   2.763   5.357 -0.0705 -0.2076 -0.2627
 4021TIP3    H133478   6.208   2.691   5.316 -0.1415  0.5057 -1.4845
 4021TIP3    H233479   6.300   2.807   5.285  0.2292  0.7806  0.4911
 4022TIP3   OH233480   6.312   5.697  14.869 -0.1371  0.4897  0.5955
 4022TIP3    H133481   6.222   5.691  14.835  0.5608  1.1669 -1.5112
 4022TIP3    H233482   6.363   5.641  14.811  1.2466  2.3098 -0.0367
 4023TIP3   OH233483   4.817   6.412   4.820 -0.1287  0.1370 -0.1697
 4023TIP3    H133484   4.852   6.376   4.902  2.2478 -0.0153 -1.1611
 4023TIP3    H233485   4.887   6.469   4.788 -1.1028  0.3665 -1.9932
 4024TIP3   OH233486   3.563   6.588  14.061  0.3573  0.4639  0.4044
 4024TIP3    H133487   3.509   6.638  14.000 -0.3258  0.3627  0.9188
 4024TIP3    H233488   3.588   6.510  14.012  0.9939  1.0479 -0.2228
 4025TIP3   OH233489   0.969   4.194  14.147  0.0320  0.0618 -0.5118
 4025TIP3    H133490   0.958   4.269  14.206  0.3126 -0.3047  0.0107
 4025TIP3    H233491   0.991   4.121  14.204 -2.1850 -0.8986 -0.7909
 4026TIP3   OH233492   6.095   0.734   5.283 -0.3569  0.4149 -0.2136
 4026TIP3    H133493   6.150   0.764   5.211 -0.7819 -0.7665 -1.0451
 4026TIP3    H233494   6.126   0.646   5.303 -3.5201 -1.4044 -2.4498
 4027TIP3   OH233495   2.159   1.753  15.689  0.3593 -0.2094 -0.0453
 4027TIP3    H133496   2.250   1.726  15.702  0.3925  0.2906  0.8905
 4027TIP3    H233497   2.151   1.834  15.740 -0.2486  0.4972 -1.2379
 4028TIP3   OH233498   1.076   2.121   4.283 -0.2673 -0.3147 -0.0813
 4028TIP3    H133499   1.158   2.158   4.316  0.2032 -0.2165 -1.3008
 4028TIP3    H233500   1.035   2.081   4.359  1.2634 -1.0029  0.4166
 4029TIP3   OH233501   2.626   6.135  12.965  0.0383  0.5404 -0.3587
 4029TIP3    H133502   2.642   6.228  12.946  0.9372  0.9194  2.0036
 4029TIP3    H233503   2.541   6.133  13.007  0.4723  0.4541  0.5386
 4030TIP3   OH233504   3.995   1.776  14.463 -0.4521 -0.0357 -0.3288
 4030TIP3    H133505   3.917   1.828  14.448  0.5028  1.4262 -0.3485
 4030TIP3    H233506   4.025   1.752  14.376 -0.8892 -0.6510 -0.3193
 4031TIP3   OH233507   1.632   4.259   2.945 -0.6522  0.9224  0.3559
 4031TIP3    H133508   1.563   4.204   2.908  0.2799 -1.5006  1.9916
 4031TIP3    H233509   1.587   4.339   2.973 -2.4760  0.1125 -0.1422
 4032TIP3   OH233510   6.254   3.369   0.621  0.4067  0.2887 -0.5335
 4032TIP3    H133511   6.334   3.319   0.606  0.9383  0.8463  0.3858
 4032TIP3    H233512   6.184   3.313   0.587  1.0554 -0.7809 -0.1488
 4033TIP3   OH233513   1.615   3.281  14.130 -0.0690 -0.2593 -0.2797
 4033TIP3    H133514   1.574   3.345  14.071 -0.5818  0.4175  0.7923
 4033TIP3    H233515   1.548   3.214  14.143 -1.1756  1.1674  1.9832
 4034TIP3   OH233516   1.607   1.759   3.295 -0.0676  0.1777  0.5674
 4034TIP3    H133517   1.615   1.854   3.287  0.6201  0.0052 -1.3256
 4034TIP3    H233518   1.697   1.728   3.307  0.0089 -0.3537 -1.0601
 4035TIP3   OH233519   6.053   5.799  15.986  0.6202  0.1592  0.3426
 4035TIP3    H133520   6.124   5.742  16.016  0.5225  0.6376  1.5759
 4035TIP3    H233521   6.067   5.808  15.892  2.2932  0.3840  0.5874
 4036TIP3   OH233522   3.256   3.176  16.732  0.1166 -0.3231 -0.0391
 4036TIP3    H133523   3.237   3.124  16.810  2.9231  0.4154  1.2302
 4036TIP3    H233524   3.224   3.264  16.753 -1.7021 -0.7303 -0.9152
 4037TIP3   OH233525   2.678   0.325  15.680  0.1575 -0.0061  0.1363
 4037TIP3    H133526   2.665   0.361  15.767  1.3914 -1.2509  0.8810
 4037TIP3    H233527   2.772   0.307  15.675  0.2403  0.6921 -1.7241
 4038TIP3   OH233528   0.883   6.514  12.950  0.2114 -0.5114 -0.1917
 4038TIP3    H133529   0.868   6.586  12.888  2.8639  0.2667 -0.0513
 4038TIP3    H233530   0.825   6.534  13.023  2.6102  3.1092  1.0213
 4039TIP3   OH233531   5.321   4.484   5.270  0.0366  0.1843  0.1458
 4039TIP3    H133532   5.343   4.468   5.361  0.5407 -0.4199 -0.0705
 4039TIP3    H233533   5.231   4.452   5.260 -0.8284  2.2188  0.9233
 4040TIP3   OH233534   2.316   0.862   2.823 -0.7835  0.5815  0.0576
 4040TIP3    H133535   2.409   0.846   2.806 -0.3305  1.1913  1.7370
 4040TIP3    H233536   2.271   0.821   2.750  0.7651 -0.5809 -0.3003
 4041TIP3   OH233537   2.233   5.083  16.862 -0.5710 -0.5030  0.0003
 4041TIP3    H133538   2.150   5.103  16.906 -1.2771 -2.1817 -0.5088
 4041TIP3    H233539   2.271   5.169  16.845 -0.9653  0.2513  2.5013
 4042TIP3   OH233540   4.848   4.838  13.240  0.2774 -0.3174 -0.2907
 4042TIP3    H133541   4.890   4.810  13.159 -1.0214  1.3879 -1.6467
 4042TIP3    H233542   4.815   4.926  13.220 -2.3083 -0.8403  1.2450
 4043TIP3   OH233543   3.358   5.564  13.072  0.5317 -0.1448  0.0760
 4043TIP3    H133544   3.306   5.517  13.006 -0.9472  1.3477  0.0931
 4043TIP3    H233545   3.355   5.655  13.043  0.3661  0.4467  1.8663
 4044TIP3   OH233546   2.279   3.922   1.333  0.2631  0.2512 -0.3928
 4044TIP3    H133547   2.357   3.872   1.357  0.7474  0.7698 -0.8457
 4044TIP3    H233548   2.286   4.003   1.384 -0.2155  0.1143 -0.1007
 4045TIP3   OH233549   3.457   2.775   3.757  0.2266 -0.8451 -0.2375
 4045TIP3    H133550   3.404   2.702   3.725  0.8876 -0.2174 -2.9817
 4045TIP3    H233551   3.417   2.853   3.718  1.6576 -0.0996 -0.2842
 4046TIP3   OH233552   6.668   4.679   0.088 -0.3560 -0.3195  0.6129
 4046TIP3    H133553   6.662   4.638   0.002  3.2329 -1.5842  0.7874
 4046TIP3    H233554   6.619   4.620   0.146  0.2754 -1.5189 -0.0315
 4047TIP3   OH233555   5.951   3.306  10.399  0.1238 -0.1825 -0.3918
 4047TIP3    H133556   5.878   3.303  10.337 -0.5178 -1.5686  0.3674
 4047TIP3    H233557   6.029   3.309  10.344 -0.4592 -0.4502 -1.2617
 4048TIP3   OH233558   0.106   5.341  16.203 -0.2857 -0.1308 -0.0155
 4048TIP3    H133559   0.061   5.340  16.287  0.8902  0.2296  0.6459
 4048TIP3    H233560   0.182   5.284  16.217  0.7851  1.1993 -0.3174
 4049TIP3   OH233561   1.064   5.971   2.451  0.5643 -0.1542 -0.4448
 4049TIP3    H133562   1.081   5.877   2.446 -0.7546 -0.4745  0.5713
 4049TIP3    H233563   1.026   5.993   2.366  2.5040 -0.1466 -1.3628
 4050TIP3   OH233564   2.185   3.851   6.263 -0.7735 -0.2190 -0.5481
 4050TIP3    H133565   2.268   3.805   6.273 -0.3266  0.1767 -2.1885
 4050TIP3    H233566   2.192   3.927   6.320 -0.3315 -0.6141 -0.0707
 4051TIP3   OH233567   6.519   2.759  15.342  0.3552  0.1782 -0.7728
 4051TIP3    H133568   6.587   2.818  15.374  1.3152 -1.2585 -0.0604
 4051TIP3    H233569   6.503   2.786  15.252  2.5389 -0.0193 -1.2586
 4052TIP3   OH233570   3.811   1.227   0.485 -0.2296  0.0887 -0.0931
 4052TIP3    H133571   3.761   1.146   0.488 -0.4657  0.1976 -0.8604
 4052TIP3    H233572   3.756   1.288   0.435 -0.0061  0.6860  0.3687
 4053TIP3   OH233573   6.376   2.096  13.678 -0.1601 -0.2122  0.2630
 4053TIP3    H133574   6.405   2.036  13.746  0.7192  1.2263  1.2060
 4053TIP3    H233575   6.409   2.058  13.597  2.0502 -0.0923  1.0295
 4054TIP3   OH233576   1.114   5.010  15.419 -0.3173 -0.2103  0.3370
 4054TIP3    H133577   1.098   4.933  15.473  2.2223 -1.4373 -0.5348
 4054TIP3    H233578   1.202   4.997  15.383  0.4109  3.2885  0.4871
 4055TIP3   OH233579   4.771   3.965   3.596 -0.0478  0.0376 -0.1154
 4055TIP3    H133580   4.736   3.880   3.622  0.5032 -0.0051  0.5369
 4055TIP3    H233581   4.859   3.946   3.563  0.6879  0.4943  1.4815
 4056TIP3   OH233582   2.782   3.963   0.074  0.1754 -0.5013  0.1099
 4056TIP3    H133583   2.795   3.959  -0.021  0.4088  0.7049  0.0737
 4056TIP3    H233584   2.693   3.995   0.085  0.8391  1.4293  0.2483
 4057TIP3   OH233585   5.676   3.754  15.369 -0.1893 -0.0845 -0.2236
 4057TIP3    H133586   5.646   3.721  15.284 -0.9567  1.0731 -0.4257
 4057TIP3    H233587   5.770   3.734  15.371  0.2249  1.4450 -2.1237
 4058TIP3   OH233588   0.237   4.643  13.506  0.0364 -0.2126  0.0545
 4058TIP3    H133589   0.304   4.628  13.572  0.5875  1.8671  0.0400
 4058TIP3    H233590   0.284   4.637  13.422 -0.4583 -1.8121 -0.1556
 4059TIP3   OH233591   6.389   5.902  14.392 -0.2648  0.7045 -0.1687
 4059TIP3    H133592   6.481   5.888  14.414 -1.1378 -0.9109  2.8797
 4059TIP3    H233593   6.371   5.836  14.325  0.4944  0.2859  0.0228
 4060TIP3   OH233594   2.699   2.079   0.696  0.3029  0.7105 -0.1733
 4060TIP3    H133595   2.783   2.080   0.742  0.5086 -2.6903 -0.2470
 4060TIP3    H233596   2.657   1.998   0.723 -1.7103  0.9144 -2.3299
 4061TIP3   OH233597   5.084   5.063   5.725  0.6532  0.1238 -0.0353
 4061TIP3    H133598   5.008   5.032   5.774  0.9792  1.0326  1.0990
 4061TIP3    H233599   5.067   5.156   5.709  0.9729  0.0511 -0.8561
 4062TIP3   OH233600   3.142   0.270  11.739  0.0453  0.0299 -0.0621
 4062TIP3    H133601   3.170   0.181  11.721 -1.5025 -0.5610  0.3766
 4062TIP3    H233602   3.047   0.265  11.749  0.0009  1.6042  0.6533
 4063TIP3   OH233603   6.352   1.644   3.781 -0.3010  0.0266 -0.0126
 4063TIP3    H133604   6.382   1.596   3.704 -0.5075  3.1532 -2.2491
 4063TIP3    H233605   6.422   1.632   3.846 -0.6850 -3.6875 -0.1084
 4064TIP3   OH233606   6.809   6.505   2.029 -0.5029 -0.2557  0.5384
 4064TIP3    H133607   6.896   6.465   2.022  0.5659  1.7778  1.4052
 4064TIP3    H233608   6.762   6.473   1.952  1.1164 -1.1292 -0.1483
 4065TIP3   OH233609   1.473   2.108  14.845 -0.3157  0.3313  0.0759
 4065TIP3    H133610   1.432   2.089  14.930 -0.7000 -1.5074 -0.4947
 4065TIP3    H233611   1.567   2.106  14.864 -0.4061  1.0111  0.6628
 4066TIP3   OH233612   3.351   6.152  12.152 -0.3111  0.6444  0.1270
 4066TIP3    H133613   3.290   6.125  12.221 -2.3288 -1.4976 -2.2978
 4066TIP3    H233614   3.335   6.246  12.141 -1.3262  0.6279  1.2556
 4067TIP3   OH233615   3.450   1.806   1.374 -0.2824 -0.5501  0.3749
 4067TIP3    H133616   3.432   1.899   1.388  1.5564 -0.0241 -0.5627
 4067TIP3    H233617   3.425   1.764   1.456  0.2196  0.9741  1.3391
 4068TIP3   OH233618   0.384   0.748  14.348  0.1307 -0.3229  0.0731
 4068TIP3    H133619   0.430   0.666  14.368  2.3671  0.8245 -0.0544
 4068TIP3    H233620   0.454   0.811  14.332 -1.4851  1.9294  1.3396
 4069TIP3   OH233621   0.413   5.332  11.741 -0.0457  0.0903 -0.1760
 4069TIP3    H133622   0.503   5.301  11.734 -0.0132  0.0490  0.4113
 4069TIP3    H233623   0.406   5.401  11.674  0.0102 -0.8544 -1.1768
 4070TIP3   OH233624   6.697   2.576  11.503 -0.3902  1.1100 -0.4246
 4070TIP3    H133625   6.670   2.594  11.593  1.5615  0.2027  0.3967
 4070TIP3    H233626   6.699   2.481  11.496 -2.1686  1.1311 -1.9992
 4071TIP3   OH233627   1.680   5.009   1.806  0.8793  0.0353  0.1911
 4071TIP3    H133628   1.703   5.019   1.898  0.9152 -0.2268  0.2099
 4071TIP3    H233629   1.585   5.002   1.805  0.9230 -0.6351  0.2705
 4072TIP3   OH233630   1.224   2.010   1.538  0.3607  0.3231 -0.8828
 4072TIP3    H133631   1.182   1.942   1.591  0.9330 -0.4003 -1.3297
 4072TIP3    H233632   1.181   2.091   1.565  0.8112  0.0256  0.8497
 4073TIP3   OH233633   3.464   1.930  16.183 -0.1522  0.1152 -0.1007
 4073TIP3    H133634   3.462   1.928  16.278 -1.6206  0.1334 -0.1129
 4073TIP3    H233635   3.551   1.963  16.161  0.8862 -1.6629  1.1852
 4074TIP3   OH233636   5.435   0.152  15.022  0.0943  0.1533  0.0351
 4074TIP3    H133637   5.373   0.096  15.068  0.3501  0.2417  0.4946
 4074TIP3    H233638   5.515   0.148  15.074  0.3311  0.4077 -0.2996
 4075TIP3   OH233639   5.709   5.254   2.674 -0.0467  0.2740 -0.3217
 4075TIP3    H133640   5.765   5.294   2.608 -0.3047 -0.1952 -0.8356
 4075TIP3    H233641   5.624   5.296   2.663 -1.0777 -2.1315 -2.6288
 4076TIP3   OH233642   2.483   3.861  11.784  0.0990 -0.3719 -0.1192
 4076TIP3    H133643   2.391   3.869  11.811 -0.2046  0.5314 -1.3427
 4076TIP3    H233644   2.526   3.937  11.825  0.2054 -0.5371  0.0746
 4077TIP3   OH233645   1.662   0.071   4.433 -0.0386 -0.3352 -0.4308
 4077TIP3    H133646   1.754   0.050   4.453  0.1205 -0.4432 -1.2419
 4077TIP3    H233647   1.612   0.026   4.501  0.5348  0.1788  0.3498
 4078TIP3   OH233648   6.300   5.708  15.140  0.5539 -0.1933  0.8140
 4078TIP3    H133649   6.311   5.626  15.187 -1.1381 -1.6816 -1.1601
 4078TIP3    H233650   6.333   5.690  15.052  1.0037  1.5516  0.5952
 4079TIP3   OH233651   5.393   2.546   2.845 -0.1060  0.2201  0.4822
 4079TIP3    H133652   5.456   2.608   2.881 -0.7819  1.6653 -0.7364
 4079TIP3    H233653   5.324   2.601   2.807 -0.2602 -1.2312 -1.4995
 4080TIP3   OH233654   6.692   1.879   4.245 -0.2044 -0.1011 -0.1487
 4080TIP3    H133655   6.663   1.969   4.231 -0.1307  0.4072  2.5631
 4080TIP3    H233656   6.783   1.887   4.273  1.5979 -1.4446 -4.7004
 4081TIP3   OH233657   0.534   0.345  16.521  0.2016  0.0308  0.0738
 4081TIP3    H133658   0.516   0.416  16.461 -4.7037 -0.0508  1.0369
 4081TIP3    H233659   0.519   0.382  16.608  0.4047 -1.4397  0.7799
 4082TIP3   OH233660   0.919   2.423   0.992  0.5179  0.1053  0.3403
 4082TIP3    H133661   0.958   2.510   0.995 -1.0823  1.0222 -2.1071
 4082TIP3    H233662   0.838   2.431   1.042  0.4307 -0.0365  0.2231
 4083TIP3   OH233663   6.148   5.647  11.243  0.4214 -0.3379  0.0214
 4083TIP3    H133664   6.150   5.689  11.329 -0.4875  0.4293 -0.3098
 4083TIP3    H233665   6.054   5.638  11.223  0.6236 -0.3004 -0.9821
 4084TIP3   OH233666   4.820   0.611   5.014  0.0318 -0.3036  0.0243
 4084TIP3    H133667   4.789   0.531   5.057 -0.6747  1.3812  2.9334
 4084TIP3    H233668   4.909   0.623   5.048 -0.0133  0.3491 -0.0862
 4085TIP3   OH233669   3.216   4.098  14.382 -0.0661 -0.8290  0.0898
 4085TIP3    H133670   3.234   4.005  14.392 -0.0283 -0.8627 -0.2614
 4085TIP3    H233671   3.250   4.119  14.295  0.7676 -0.2789  0.5300
 4086TIP3   OH233672   5.431   0.698  15.065  0.3525  0.3352  0.2482
 4086TIP3    H133673   5.396   0.716  14.978  0.5012 -0.3144  0.0424
 4086TIP3    H233674   5.439   0.602  15.068  0.8579  0.3863  0.7784
 4087TIP3   OH233675   6.277   1.660  13.011 -0.4280 -0.5996 -0.4936
 4087TIP3    H133676   6.206   1.618  12.962 -0.8782 -0.5446  0.1011
 4087TIP3    H233677   6.338   1.588  13.031 -1.3522 -1.0717  0.8013
 4088TIP3   OH233678   3.585   3.921  15.734 -0.1162  0.2594 -0.4720
 4088TIP3    H133679   3.501   3.889  15.768  1.0906 -1.1670  1.4252
 4088TIP3    H233680   3.570   4.014  15.718 -1.9343  0.1505  0.2629
 4089TIP3   OH233681   2.048   1.884   4.452 -1.0092  0.0367  0.3791
 4089TIP3    H133682   2.001   1.920   4.527 -0.3345 -0.7960  1.2148
 4089TIP3    H233683   2.076   1.798   4.480  2.0768  0.9358  0.3715
 4090TIP3   OH233684   4.824   2.887  12.249  0.1926 -0.2379  0.1209
 4090TIP3    H133685   4.749   2.828  12.250  0.9028 -1.1563  1.2245
 4090TIP3    H233686   4.893   2.840  12.295  0.9203  1.2811  0.6591
 4091TIP3   OH233687   6.803   2.230  10.852 -0.6558 -0.0701 -0.5506
 4091TIP3    H133688   6.881   2.203  10.801 -0.1426 -0.4001  0.3886
 4091TIP3    H233689   6.733   2.172  10.820 -0.4302 -0.0332 -1.1336
 4092TIP3   OH233690   1.252   3.326  12.848 -0.0919  0.0445  0.2989
 4092TIP3    H133691   1.205   3.403  12.818 -0.0869  0.2337  0.7749
 4092TIP3    H233692   1.290   3.288  12.768  1.0809  1.3070  0.2222
 4093TIP3   OH233693   2.774   6.770   4.742 -0.1798 -0.0655 -0.1367
 4093TIP3    H133694   2.827   6.814   4.808 -2.2956  1.9356  0.3471
 4093TIP3    H233695   2.754   6.684   4.781  1.8240 -0.4977  0.0574
 4094TIP3   OH233696   3.276   4.034  16.645 -0.3446  0.0392 -0.8616
 4094TIP3    H133697   3.259   4.081  16.727 -0.9592  0.4440 -1.2065
 4094TIP3    H233698   3.264   4.101  16.577  1.9835  0.1822 -1.2083
 4095TIP3   OH233699   3.293   6.418  14.146 -0.3935  0.1101  0.3221
 4095TIP3    H133700   3.321   6.362  14.218  0.2035 -0.1217 -0.0819
 4095TIP3    H233701   3.283   6.359  14.071 -2.9894 -0.0009  0.6593
 4096TIP3   OH233702   4.388   1.339   0.378  0.2883 -0.4697 -0.0527
 4096TIP3    H133703   4.352   1.418   0.420  1.7085  0.0010  0.3467
 4096TIP3    H233704   4.455   1.308   0.439  0.5072 -1.3601 -0.7283
 4097TIP3   OH233705   6.585   1.203   0.796 -0.3468 -0.3649  0.3910
 4097TIP3    H133706   6.599   1.296   0.812  3.4235 -0.3446 -1.7473
 4097TIP3    H233707   6.621   1.160   0.874  0.5658 -0.0258  0.1731
 4098TIP3   OH233708   1.416   4.684  13.227  1.0110  0.2723  0.1339
 4098TIP3    H133709   1.458   4.697  13.142 -2.6081 -0.0139 -1.9260
 4098TIP3    H233710   1.415   4.772  13.267 -0.1894  1.1692 -1.7288
 4099TIP3   OH233711   2.358   5.481  12.924  0.3234 -0.5238  0.0162
 4099TIP3    H133712   2.312   5.516  12.848 -1.9539 -0.3264  1.3803
 4099TIP3    H233713   2.304   5.408  12.954  1.3529 -0.8257  1.2509
 4100TIP3   OH233714   0.120   4.289   3.107  0.4436 -0.3274  0.3104
 4100TIP3    H133715   0.186   4.335   3.055 -0.1800  0.8677  0.5524
 4100TIP3    H233716   0.130   4.324   3.196  1.2788 -2.1133  0.9607
 4101TIP3   OH233717   6.555   5.917  11.172 -0.3879  0.4430  0.1492
 4101TIP3    H133718   6.502   5.994  11.192 -1.5947  0.4251 -2.5337
 4101TIP3    H233719   6.530   5.853  11.239 -2.3741  1.0714  0.0811
 4102TIP3   OH233720   1.015   3.981   5.357  0.2521  0.2445  0.0257
 4102TIP3    H133721   1.083   3.960   5.292 -0.9827 -1.1208 -0.8789
 4102TIP3    H233722   0.933   3.965   5.312 -0.7139  2.1396  1.0233
 4103TIP3   OH233723   6.611   4.802  13.749 -0.1038 -0.3461 -0.6154
 4103TIP3    H133724   6.582   4.756  13.827  1.3785 -1.2658 -0.5661
 4103TIP3    H233725   6.551   4.876  13.741  0.3457  0.3846  1.9997
 4104TIP3   OH233726   5.138   6.261   2.135  0.3047  0.0305 -0.9555
 4104TIP3    H133727   5.079   6.212   2.077  1.2255 -0.8507 -1.1771
 4104TIP3    H233728   5.167   6.335   2.082  0.7369 -0.4884 -1.4644
 4105TIP3   OH233729   2.571   4.831   5.906 -0.2506 -0.1993 -0.7193
 4105TIP3    H133730   2.492   4.788   5.938 -0.1951 -0.8542 -1.4357
 4105TIP3    H233731   2.580   4.801   5.815  0.3884  0.4836 -0.8962
 4106TIP3   OH233732   5.474   4.071  12.666  0.3042 -0.3118 -0.5708
 4106TIP3    H133733   5.460   4.127  12.589  1.5010  1.2959  0.3321
 4106TIP3    H233734   5.429   4.117  12.737  0.1771 -1.2030 -0.0607
 4107TIP3   OH233735   5.771   0.279   3.122  0.3806 -0.7502 -0.0221
 4107TIP3    H133736   5.688   0.277   3.075 -1.3443 -0.3041  2.7387
 4107TIP3    H233737   5.758   0.221   3.196  2.3427 -0.2215  0.8068
 4108TIP3   OH233738   5.167   6.174  14.720  0.7300  0.6473 -0.4075
 4108TIP3    H133739   5.104   6.115  14.762  0.9418  1.6429  1.4320
 4108TIP3    H233740   5.204   6.123  14.648  1.1909 -1.6352  1.3268
 4109TIP3   OH233741   5.609   4.993  11.305 -0.5705  1.2113  0.0637
 4109TIP3    H133742   5.533   4.937  11.320  0.8394 -0.9111 -0.1890
 4109TIP3    H233743   5.639   4.970  11.216  0.9155  1.2493  0.5238
 4110TIP3   OH233744   4.172   6.741  12.981  0.4233 -0.1183 -0.0607
 4110TIP3    H133745   4.158   6.667  12.923  2.7055 -0.5215 -0.1924
 4110TIP3    H233746   4.238   6.794  12.937 -0.1544  1.2797  0.6881
 4111TIP3   OH233747   1.050   3.325   4.769 -0.0610  0.9153  0.1264
 4111TIP3    H133748   1.055   3.421   4.770  0.2989  0.9125 -0.5432
 4111TIP3    H233749   1.061   3.300   4.860  0.5448  1.4883  0.2265
 4112TIP3   OH233750   6.178   4.093   0.794  0.1558 -0.5013  0.6949
 4112TIP3    H133751   6.155   4.130   0.879  0.6794 -1.6593  1.3653
 4112TIP3    H233752   6.274   4.090   0.795  0.1403 -1.2840  0.4159
 4113TIP3   OH233753   3.841   5.013   2.745  0.0411  0.1785  0.7346
 4113TIP3    H133754   3.913   5.024   2.806  0.4468  1.4962  0.0556
 4113TIP3    H233755   3.880   4.973   2.667 -0.2406 -0.3969  0.8841
 4114TIP3   OH233756   3.052   2.674  16.021 -0.2118 -0.1667  0.1143
 4114TIP3    H133757   2.987   2.669  16.092  0.6867  0.4473  1.0025
 4114TIP3    H233758   3.021   2.746  15.967 -3.0614 -2.9898 -2.4122
 4115TIP3   OH233759   5.151   3.260   0.959 -0.1355 -0.3994 -0.1966
 4115TIP3    H133760   5.228   3.315   0.975 -0.1677 -0.0896 -1.0699
 4115TIP3    H233761   5.092   3.314   0.907 -0.1445 -1.2675 -1.1298
 4116TIP3   OH233762   3.861   1.757  10.988  0.4734  0.1097  0.2462
 4116TIP3    H133763   3.916   1.769  10.910 -0.4120  0.5345 -0.3247
 4116TIP3    H233764   3.825   1.843  11.007 -0.9313 -0.3665 -0.1061
 4117TIP3   OH233765   0.882   1.527  13.416  0.3451  0.0920  0.1912
 4117TIP3    H133766   0.974   1.518  13.439  0.2782 -0.4631  0.2380
 4117TIP3    H233767   0.853   1.604  13.465  0.4244 -0.5697  1.3108
 4118TIP3   OH233768   2.338   2.605  13.436  0.4321 -0.2782  0.4234
 4118TIP3    H133769   2.428   2.588  13.409  0.1241  1.0635 -1.6390
 4118TIP3    H233770   2.344   2.684  13.489  0.1427  2.5424 -3.3153
 4119TIP3   OH233771   1.005   0.855  13.282 -0.2787 -0.3727 -0.7925
 4119TIP3    H133772   0.939   0.924  13.292 -2.0844 -1.9320 -1.2097
 4119TIP3    H233773   1.058   0.859  13.361 -2.0462 -0.2062  0.4293
 4120TIP3   OH233774   0.282   2.255   2.345  0.1872 -0.1735  0.4578
 4120TIP3    H133775   0.331   2.219   2.272  0.0797 -0.7244  0.6477
 4120TIP3    H233776   0.206   2.298   2.304  0.8526  0.7491  0.1630
 4121TIP3   OH233777   3.594   5.497   3.257  0.1596  0.6786  0.2619
 4121TIP3    H133778   3.500   5.499   3.276  0.4613  2.3266  1.8579
 4121TIP3    H233779   3.619   5.589   3.248  1.5622  0.2466 -0.5163
 4122TIP3   OH233780   4.093   6.069   1.690 -0.1168  0.7023 -0.5618
 4122TIP3    H133781   4.183   6.097   1.674  0.3549  2.1315  3.4335
 4122TIP3    H233782   4.100   5.976   1.712  0.1925  0.5176 -1.4147
 4123TIP3   OH233783   4.310   4.339  12.155  0.1541  0.2710  0.5272
 4123TIP3    H133784   4.236   4.359  12.098  0.8262  0.6403 -0.2257
 4123TIP3    H233785   4.319   4.417  12.210  0.9288  0.8829 -0.4246
 4124TIP3   OH233786   2.337   4.127   1.712  0.2033  0.0938 -0.4504
 4124TIP3    H133787   2.321   4.156   1.802 -1.3050 -2.2507  0.1539
 4124TIP3    H233788   2.432   4.130   1.702  0.3998  0.4916  1.2069
 4125TIP3   OH233789   0.171   3.786   5.207  0.2062 -0.5059 -0.5134
 4125TIP3    H133790   0.105   3.761   5.271 -0.1395  0.7660 -0.3425
 4125TIP3    H233791   0.251   3.742   5.235  0.1730  0.3842  1.0632
 4126TIP3   OH233792   3.929   0.388  16.531  0.5578 -0.6339 -0.1464
 4126TIP3    H133793   3.919   0.418  16.621 -0.2848  0.4344 -0.5633
 4126TIP3    H233794   4.003   0.438  16.497 -0.7220  0.9434 -0.7812
 4127TIP3   OH233795   1.480   1.096  15.632  0.4608  0.0974  0.1389
 4127TIP3    H133796   1.447   1.012  15.663 -0.7871  1.2472  2.1860
 4127TIP3    H233797   1.446   1.104  15.543 -1.4859 -0.5491  0.7781
 4128TIP3   OH233798   2.807   2.805  11.753 -0.0376  0.4301 -0.0209
 4128TIP3    H133799   2.788   2.855  11.674 -1.1006  2.4306  1.4039
 4128TIP3    H233800   2.857   2.866  11.808 -1.6345  0.0753  1.9079
 4129TIP3   OH233801   1.609   0.484   4.307  0.1115 -0.5313  0.3374
 4129TIP3    H133802   1.630   0.456   4.397 -0.2527 -2.1136 -0.0332
 4129TIP3    H233803   1.549   0.558   4.319 -0.7755 -1.3743  1.4315
 4130TIP3   OH233804   1.268   4.627  15.994 -0.7643  0.2657  0.4716
 4130TIP3    H133805   1.246   4.594  16.081 -1.8955  1.9241  0.8821
 4130TIP3    H233806   1.265   4.550  15.938 -2.2086 -0.5139  1.5325
 4131TIP3   OH233807   4.108   5.453  13.813  0.8116 -0.3652  0.4030
 4131TIP3    H133808   4.201   5.466  13.832  0.3776  1.3692  1.5607
 4131TIP3    H233809   4.087   5.522  13.749  0.2025 -0.3990  0.5581
 4132TIP3   OH233810   2.883   5.188  14.409  0.0870  0.4131 -0.0253
 4132TIP3    H133811   2.816   5.153  14.466  0.2426  1.9601  1.1835
 4132TIP3    H233812   2.889   5.125  14.337 -0.4858 -1.3183  1.3739
 4133TIP3   OH233813   0.275   1.841   0.977 -0.3781  0.0020 -0.0534
 4133TIP3    H133814   0.264   1.873   0.888  0.8545  0.9376  0.1083
 4133TIP3    H233815   0.348   1.891   1.012 -0.1262 -1.1286  1.1206
 4134TIP3   OH233816   3.921   6.738  14.066 -0.0664 -0.1763 -1.1275
 4134TIP3    H133817   3.929   6.833  14.075 -0.1363 -0.2095 -0.6531
 4134TIP3    H233818   3.875   6.710  14.146  1.4938 -0.8099 -0.4162
 4135TIP3   OH233819   3.349   3.169   2.035 -0.2167  0.7428 -0.2532
 4135TIP3    H133820   3.412   3.133   2.098 -0.3452  0.9728  0.0076
 4135TIP3    H233821   3.283   3.211   2.089 -0.4879  0.6784 -0.5349
 4136TIP3   OH233822   5.431   3.465  13.674  0.6347 -0.1356 -0.1504
 4136TIP3    H133823   5.441   3.420  13.590 -1.4279  0.4799 -0.8053
 4136TIP3    H233824   5.510   3.518  13.683  0.8546 -0.1369 -1.7889
 4137TIP3   OH233825   4.754   6.784   3.987  0.5443  0.6652  0.1206
 4137TIP3    H133826   4.742   6.721   4.057  0.7092  1.2307  0.6719
 4137TIP3    H233827   4.745   6.733   3.906 -2.6938  0.5375  0.4650
 4138TIP3   OH233828   5.968   4.407   3.379  0.3524 -0.1405  0.1337
 4138TIP3    H133829   5.881   4.369   3.375  0.8863 -1.2716 -1.9738
 4138TIP3    H233830   5.953   4.501   3.389 -1.0102 -0.5820  3.1898
 4139TIP3   OH233831   1.190   2.566   2.753  0.3263 -0.2768  0.1433
 4139TIP3    H133832   1.176   2.655   2.784  0.3342 -0.9689  2.2475
 4139TIP3    H233833   1.102   2.531   2.739  0.3240  0.0514 -0.7616
 4140TIP3   OH233834   3.337   1.924   2.124 -0.7563  0.1180 -0.4642
 4140TIP3    H133835   3.416   1.919   2.071 -0.6476  0.6438 -0.3569
 4140TIP3    H233836   3.266   1.907   2.063 -0.5536 -0.5521 -0.5257
 4141TIP3   OH233837   5.328   1.930   2.157  0.0514  0.2280  0.0135
 4141TIP3    H133838   5.346   1.890   2.242  1.1475  1.8254  0.5598
 4141TIP3    H233839   5.277   2.009   2.177  1.3083  1.2517 -0.6815
 4142TIP3   OH233840   5.208   0.553  11.439  0.1380 -0.4577  0.2448
 4142TIP3    H133841   5.157   0.502  11.502 -0.2172  1.6813  1.8147
 4142TIP3    H233842   5.298   0.548  11.472  0.8646 -3.1573 -1.7991
 4143TIP3   OH233843   0.864   1.004   5.038 -0.1954  0.3059  0.0236
 4143TIP3    H133844   0.776   1.014   5.002  0.1890  1.7225 -0.6032
 4143TIP3    H233845   0.918   1.061   4.984  0.8655  0.5217  1.2711
 4144TIP3   OH233846   3.255   3.567  16.668  0.1392  0.2120 -0.4458
 4144TIP3    H133847   3.244   3.659  16.642 -1.1517 -0.0105 -0.7914
 4144TIP3    H233848   3.344   3.545  16.641  0.2322  1.1733 -0.9839
 4145TIP3   OH233849   1.012   2.153  14.560 -0.2991 -0.5841  0.1479
 4145TIP3    H133850   1.062   2.159  14.641 -1.2960  0.1412  0.7294
 4145TIP3    H233851   1.053   2.081  14.512  0.0899 -1.2501  1.4401
 4146TIP3   OH233852   3.289   2.634  12.064  0.3415  0.0460 -0.6441
 4146TIP3    H133853   3.262   2.678  11.984 -0.7167  0.2682 -0.1784
 4146TIP3    H233854   3.383   2.621  12.053  0.5883  1.8509 -1.0897
 4147TIP3   OH233855   3.288   2.325   3.722 -0.0773  0.1935 -0.2405
 4147TIP3    H133856   3.301   2.320   3.817 -1.7256  3.9702  0.3507
 4147TIP3    H233857   3.277   2.418   3.704 -1.6884 -0.5349 -3.8920
 4148TIP3   OH233858   6.454   2.294  11.013 -0.1226  0.3747  0.6326
 4148TIP3    H133859   6.402   2.215  11.030 -0.3609  0.1909 -0.8031
 4148TIP3    H233860   6.434   2.316  10.921  1.9310  0.5971  0.1948
 4149TIP3   OH233861   2.624   1.643  13.821 -0.2377 -0.4223 -0.2586
 4149TIP3    H133862   2.676   1.700  13.878 -0.8209 -0.3068  0.1607
 4149TIP3    H233863   2.539   1.638  13.864  0.0826 -2.3788  0.2236
 4150TIP3   OH233864   4.129   5.619  14.829 -0.1271 -0.2266  0.0413
 4150TIP3    H133865   4.085   5.700  14.853  0.4794  0.3247 -0.6622
 4150TIP3    H233866   4.114   5.610  14.735 -0.3569 -1.0419  0.1428
 4151TIP3   OH233867   6.105   2.738  15.764  0.1262  0.1974  0.0755
 4151TIP3    H133868   6.057   2.695  15.835 -1.9521  0.3212 -1.1572
 4151TIP3    H233869   6.095   2.831  15.781  0.2031  0.2192  0.0044
 4152TIP3   OH233870   3.085   6.390   3.267  0.1456 -0.3868 -0.7240
 4152TIP3    H133871   3.161   6.337   3.294 -0.3119 -1.0379 -0.6956
 4152TIP3    H233872   3.053   6.346   3.189  0.8419  0.8948 -1.7788
 4153TIP3   OH233873   2.271   6.434  13.703  0.1950  0.2295 -0.1271
 4153TIP3    H133874   2.337   6.490  13.661  1.7675 -1.1456  0.3735
 4153TIP3    H233875   2.297   6.432  13.795  0.1948 -1.3199 -0.1427
 4154TIP3   OH233876   1.891   1.800  16.770 -0.3062 -0.3932  0.0371
 4154TIP3    H133877   1.819   1.825  16.712  0.2038 -0.8122 -0.7847
 4154TIP3    H233878   1.892   1.704  16.768  1.0528 -0.3862 -0.9492
 4155TIP3   OH233879   0.756   3.850  14.338  0.1379 -0.3313  0.1600
 4155TIP3    H133880   0.677   3.808  14.303  0.5342 -0.0907 -1.0900
 4155TIP3    H233881   0.812   3.778  14.365 -0.5608 -0.5002  1.1797
 4156TIP3   OH233882   3.173   3.958  14.666  0.0849 -0.2497 -0.5016
 4156TIP3    H133883   3.225   3.934  14.590  1.2817  0.5334  0.0333
 4156TIP3    H233884   3.082   3.954  14.636  0.5751  1.3513 -2.3668
 4157TIP3   OH233885   5.082   1.460  15.563  0.3298 -0.8053 -0.0386
 4157TIP3    H133886   5.071   1.469  15.468  1.7782 -1.0123 -0.2617
 4157TIP3    H233887   4.996   1.479  15.600 -0.3785 -1.1843 -1.4253
 4158TIP3   OH233888   2.688   3.025   3.795 -0.1454  0.1141 -0.5456
 4158TIP3    H133889   2.778   3.049   3.816 -0.4788  0.8055  0.1201
 4158TIP3    H233890   2.644   3.108   3.777 -0.5351 -0.2543 -1.3789
 4159TIP3   OH233891   3.395   6.421  12.766  0.3815  0.5531 -0.0841
 4159TIP3    H133892   3.376   6.328  12.754 -0.4821  0.7739 -0.5261
 4159TIP3    H233893   3.396   6.433  12.861  0.1827  0.1449 -0.0277
 4160TIP3   OH233894   2.516   4.847   2.412  0.2448  0.1900 -0.3331
 4160TIP3    H133895   2.564   4.804   2.342 -0.3789 -0.0809 -0.5926
 4160TIP3    H233896   2.559   4.816   2.492  1.1243  0.6992 -0.5863
 4161TIP3   OH233897   5.858   5.230  10.839  0.3182 -0.0152 -0.5539
 4161TIP3    H133898   5.902   5.170  10.778 -0.2028  1.0332 -1.9961
 4161TIP3    H233899   5.793   5.275  10.786  1.2755  2.4783  0.2527
 4162TIP3   OH233900   1.282   0.279   5.994  0.8527  0.3311  0.6997
 4162TIP3    H133901   1.244   0.211   6.050  0.2051 -3.4103 -3.6930
 4162TIP3    H233902   1.377   0.262   5.998  0.8264  0.2019  0.7955
 4163TIP3   OH233903   6.634   4.917  14.692 -0.3484 -0.8919  0.0824
 4163TIP3    H133904   6.696   4.921  14.765  1.3316  0.7556 -1.3376
 4163TIP3    H233905   6.574   4.991  14.706 -1.0114 -1.5180  0.6012
 4164TIP3   OH233906   2.108   0.218  12.346  0.3005 -0.1102 -0.0313
 4164TIP3    H133907   2.061   0.299  12.365  0.9744  0.1459  0.6140
 4164TIP3    H233908   2.201   0.243  12.351  0.6432  0.1235 -4.1480
 4165TIP3   OH233909   3.218   1.654  12.070  0.0617  0.1846  0.2393
 4165TIP3    H133910   3.202   1.748  12.073 -1.2240 -0.0276  0.8842
 4165TIP3    H233911   3.291   1.640  12.129  0.9196  0.8782 -0.6221
 4166TIP3   OH233912   3.621   5.808   1.077 -0.3448 -0.0931  0.3658
 4166TIP3    H133913   3.551   5.866   1.048  0.2170  1.2710  1.6196
 4166TIP3    H233914   3.599   5.788   1.168 -0.8932 -2.4670 -0.2169
 4167TIP3   OH233915   1.853   4.787   2.630  0.1394  0.0025  0.1282
 4167TIP3    H133916   1.895   4.701   2.634 -0.2874 -0.1802  1.4370
 4167TIP3    H233917   1.906   4.842   2.687  1.9066  1.3613 -2.6250
 4168TIP3   OH233918   6.183   0.839  12.375 -0.4258 -0.1094  0.7771
 4168TIP3    H133919   6.126   0.877  12.442 -2.5967  1.2616 -1.6672
 4168TIP3    H233920   6.152   0.877  12.293  0.9020 -3.0493 -1.2507
 4169TIP3   OH233921   3.692   1.346   5.166  0.4862 -0.3650 -0.3303
 4169TIP3    H133922   3.747   1.350   5.244 -0.7981  0.3052  0.5847
 4169TIP3    H233923   3.751   1.366   5.093  1.2494  1.3383  0.7057
 4170TIP3   OH233924   3.908   2.347  14.397  0.3927  0.0133  0.0396
 4170TIP3    H133925   3.830   2.378  14.444  1.7029  2.5715  0.7486
 4170TIP3    H233926   3.880   2.340  14.306 -0.9986 -0.4404  0.4755
 4171TIP3   OH233927   6.612   2.737  13.647 -0.5348 -0.3430 -0.6135
 4171TIP3    H133928   6.647   2.656  13.610  1.2652  0.0639  0.0867
 4171TIP3    H233929   6.653   2.807  13.597 -1.0239  0.1555 -0.3331
 4172TIP3   OH233930   3.729   1.173   5.842 -0.3914 -0.3174 -0.0800
 4172TIP3    H133931   3.751   1.081   5.857 -0.5230 -0.1190  1.4748
 4172TIP3    H233932   3.702   1.206   5.928 -1.3179  0.9172 -0.8069
 4173TIP3   OH233933   4.824   5.998  12.623 -0.3591  0.2591 -0.1179
 4173TIP3    H133934   4.897   5.941  12.598 -0.1299  0.4238  0.1688
 4173TIP3    H233935   4.812   5.982  12.717  0.2285  1.2671  0.1376
 4174TIP3   OH233936   5.510   6.285   5.075 -0.5601 -0.1041  0.2256
 4174TIP3    H133937   5.599   6.320   5.068 -0.5129 -0.2489  0.1082
 4174TIP3    H233938   5.491   6.250   4.988 -0.6391 -0.2988  0.3220
 4175TIP3   OH233939   5.834   5.276  15.858  0.0870  0.2962 -0.7176
 4175TIP3    H133940   5.848   5.370  15.847 -0.0166  0.3451 -0.4454
 4175TIP3    H233941   5.893   5.235  15.795  1.3646  0.5053  0.2866
 4176TIP3   OH233942   1.132   6.685  12.574 -0.3355  0.0555 -0.1824
 4176TIP3    H133943   1.193   6.615  12.553 -1.0738 -0.5940 -0.2083
 4176TIP3    H233944   1.050   6.640  12.595 -0.9935  0.9394 -0.8022
 4177TIP3   OH233945   3.238   2.606  14.144  0.5559 -0.2738  0.7782
 4177TIP3    H133946   3.177   2.542  14.110  0.7938  0.1725 -0.5518
 4177TIP3    H233947   3.191   2.649  14.215 -0.3633 -0.5092  0.3229
 4178TIP3   OH233948   2.300   5.941   0.233 -1.0006  0.4652 -0.1682
 4178TIP3    H133949   2.237   5.938   0.305 -2.6161 -1.1040 -1.5387
 4178TIP3    H233950   2.378   5.898   0.268 -1.3027  0.8449  1.0165
 4179TIP3   OH233951   0.592   4.112  12.758 -0.4314 -0.8332 -0.6591
 4179TIP3    H133952   0.583   4.189  12.702 -1.7581 -0.6266 -0.2212
 4179TIP3    H233953   0.590   4.147  12.847  0.6760 -1.2387 -0.4650
 4180TIP3   OH233954   2.261   1.180  11.330  0.0283 -0.1682 -0.2441
 4180TIP3    H133955   2.258   1.111  11.265  0.3973 -0.4528  0.0376
 4180TIP3    H233956   2.296   1.256  11.283 -0.9173  0.0015 -0.6995
 4181TIP3   OH233957   5.426   1.322   4.502 -0.8239 -0.1776 -0.3286
 4181TIP3    H133958   5.355   1.258   4.493 -1.2647  0.3354 -0.5371
 4181TIP3    H233959   5.499   1.284   4.452 -1.3720 -0.1052 -1.2206
 4182TIP3   OH233960   1.416   3.594  15.561 -0.0329  0.2267  0.4142
 4182TIP3    H133961   1.456   3.513  15.530  1.1916  1.1126 -0.4525
 4182TIP3    H233962   1.405   3.582  15.655 -1.1325 -1.4312  0.1182
 4183TIP3   OH233963   5.385   2.578   1.226 -0.0661 -0.2926  0.5074
 4183TIP3    H133964   5.415   2.553   1.139  0.5475  0.9318  0.3450
 4183TIP3    H233965   5.305   2.628   1.211 -0.2600 -0.5428  0.6917
 4184TIP3   OH233966   1.671   2.231  14.441 -0.0910  0.2894 -0.0960
 4184TIP3    H133967   1.712   2.149  14.469  0.4915  0.2987 -0.9012
 4184TIP3    H233968   1.611   2.205  14.371  0.9858  0.6879 -1.1952
 4185TIP3   OH233969   4.799   0.875  13.304  0.3894  0.1271 -0.2895
 4185TIP3    H133970   4.730   0.893  13.239  0.5733  1.0685 -0.2501
 4185TIP3    H233971   4.875   0.922  13.270  0.7848 -0.2494  0.0776
 4186TIP3   OH233972   2.165   4.127  10.721 -0.1568  0.1489 -0.8125
 4186TIP3    H133973   2.189   4.092  10.635 -1.1912  1.4701 -1.6779
 4186TIP3    H233974   2.239   4.105  10.777  1.0087  0.1402 -2.2849
 4187TIP3   OH233975   5.938   4.126  11.708  0.0295  0.3446 -0.6518
 4187TIP3    H133976   6.033   4.139  11.717  0.1314 -0.5332 -0.3492
 4187TIP3    H233977   5.902   4.215  11.701  0.4744  0.9772  3.0489
 4188TIP3   OH233978   0.511   5.549  14.498 -0.1538  0.0912  0.4103
 4188TIP3    H133979   0.467   5.574  14.580 -0.4288  0.9626  0.0055
 4188TIP3    H233980   0.600   5.582  14.508 -0.6234  1.6985 -0.2906
 4189TIP3   OH233981   5.151   4.693   3.650  0.0905 -0.4605  0.3212
 4189TIP3    H133982   5.158   4.644   3.569  0.3421  2.4611 -1.5731
 4189TIP3    H233983   5.237   4.733   3.662 -0.4940  0.6649  0.9447
 4190TIP3   OH233984   6.550   1.838   0.015 -0.4256 -0.0962 -0.1998
 4190TIP3    H133985   6.582   1.769   0.074  0.5329  0.0163 -0.5672
 4190TIP3    H233986   6.592   1.819  -0.069 -0.2035  0.8942 -0.3237
 4191TIP3   OH233987   2.488   0.140   4.668  1.0668 -0.2258 -0.3635
 4191TIP3    H133988   2.470   0.184   4.586  2.0409  0.8168 -0.0493
 4191TIP3    H233989   2.567   0.183   4.701 -0.2743  0.6217  1.9723
 4192TIP3   OH233990   0.727   1.526   6.128  0.4548 -0.7045  0.1153
 4192TIP3    H133991   0.635   1.552   6.131  0.3426 -1.2124  1.7939
 4192TIP3    H233992   0.725   1.431   6.117  0.8600 -0.4380 -3.9196
 4193TIP3   OH233993   3.892   6.292  14.410 -0.3018 -0.6126  0.1614
 4193TIP3    H133994   3.975   6.317  14.369  1.4260 -3.2118  1.8608
 4193TIP3    H233995   3.853   6.229  14.349 -1.7860  1.4844 -1.2376
 4194TIP3   OH233996   2.600   4.099  11.849  0.1375  0.5884 -0.2171
 4194TIP3    H133997   2.680   4.065  11.891  0.6977  3.3355  1.1776
 4194TIP3    H233998   2.632   4.163  11.785 -0.8932 -0.6708 -2.0811
 4195TIP3   OH233999   2.987   1.610  16.587  0.2503 -0.1118  0.1232
 4195TIP3    H134000   2.937   1.537  16.623 -1.2502 -0.2060 -1.9617
 4195TIP3    H234001   3.075   1.599  16.623 -0.3902 -1.8912  1.2763
 4196TIP3   OH234002   2.042   6.626  12.397 -0.4206  0.1256  0.0983
 4196TIP3    H134003   2.064   6.572  12.473  0.5855 -1.0858 -0.9950
 4196TIP3    H234004   1.956   6.664  12.418  0.3552  0.8215  2.3282
 4197TIP3   OH234005   1.683   5.852  10.548  0.2175 -0.4529 -0.0676
 4197TIP3    H134006   1.734   5.772  10.564 -0.8207 -1.5619 -1.8870
 4197TIP3    H234007   1.748   5.915  10.517  0.9367 -0.8713  0.5599
 4198TIP3   OH234008   0.859   0.698   2.847  0.7091  0.2374 -0.0962
 4198TIP3    H134009   0.865   0.608   2.817  0.5621  0.0648  0.3874
 4198TIP3    H234010   0.837   0.691   2.940  1.1790  0.7613  0.0606
 4199TIP3   OH234011   0.063   6.476   3.532  0.3324 -0.1520  0.5492
 4199TIP3    H134012   0.059   6.531   3.453 -0.6712 -0.8031  0.1298
 4199TIP3    H234013   0.012   6.524   3.597  0.7561  0.1521  0.6628
 4200TIP3   OH234014   0.816   2.961   4.681 -0.2060  0.1840  0.1622
 4200TIP3    H134015   0.819   3.056   4.666 -2.1709  0.1986 -0.5222
 4200TIP3    H234016   0.834   2.923   4.595  1.4764 -0.1181  0.6216
 4201TIP3   OH234017   4.066   3.541  15.147 -0.2778 -0.0027  0.7892
 4201TIP3    H134018   4.098   3.456  15.117  0.3104  0.1617  0.9402
 4201TIP3    H234019   4.136   3.603  15.125  1.9175 -0.3500  5.5923
 4202TIP3   OH234020   5.454   3.786   1.210 -0.2405 -0.0647  0.7257
 4202TIP3    H134021   5.532   3.806   1.159  0.2713  1.0669  1.8988
 4202TIP3    H234022   5.487   3.761   1.296 -1.0970 -1.7345  0.6064
 4203TIP3   OH234023   3.094   6.189   5.198 -0.0430 -0.3617  0.1046
 4203TIP3    H134024   3.148   6.160   5.125  1.1950 -1.3197  1.3363
 4203TIP3    H234025   3.135   6.149   5.275  0.0839  2.4287  1.6061
 4204TIP3   OH234026   1.788   5.495  15.834 -0.1908  0.1004 -0.2733
 4204TIP3    H134027   1.804   5.503  15.928  0.4422  2.4462 -0.5134
 4204TIP3    H234028   1.771   5.402  15.821  1.0478 -0.5305  1.9459
 4205TIP3   OH234029   2.242   6.497   2.880  0.5693 -0.0479  0.0694
 4205TIP3    H134030   2.241   6.531   2.969 -0.5972  0.2771 -0.0493
 4205TIP3    H234031   2.151   6.474   2.862  0.9242 -0.9076 -0.7442
 4206TIP3   OH234032   1.048   5.116   1.725 -0.3573  0.0167 -0.0463
 4206TIP3    H134033   1.018   5.028   1.748 -0.3167  0.1026  0.3274
 4206TIP3    H234034   1.098   5.104   1.644  0.5482 -0.4588  0.5707
 4207TIP3   OH234035   0.558   5.815   5.194 -0.3051 -0.6232  0.0420
 4207TIP3    H134036   0.507   5.875   5.139 -0.2044 -0.6759 -0.1076
 4207TIP3    H234037   0.592   5.871   5.264  0.6742 -0.2884 -0.6866
 4208TIP3   OH234038   0.959   1.814   0.505 -0.2347  0.4715 -0.3087
 4208TIP3    H134039   0.924   1.727   0.490 -0.2560  0.6332 -1.2533
 4208TIP3    H234040   1.053   1.806   0.485 -0.1931  0.6069 -0.1706
 4209TIP3   OH234041   6.418   4.093   4.180 -0.0299 -0.2156 -0.0996
 4209TIP3    H134042   6.478   4.166   4.163  0.9346 -0.7688  0.7823
 4209TIP3    H234043   6.470   4.031   4.232 -1.6938 -0.1721  1.7615
 4210TIP3   OH234044   4.417   0.021   5.059  0.4612 -0.0211 -0.4176
 4210TIP3    H134045   4.471   0.046   5.134 -1.4863 -0.3366  1.1748
 4210TIP3    H234046   4.377  -0.062   5.085 -1.9278  0.9237 -0.8567
 4211TIP3   OH234047   1.353   1.713   3.465  0.0729 -0.3875  0.2454
 4211TIP3    H134048   1.307   1.683   3.543 -0.5267 -2.0589 -0.6912
 4211TIP3    H234049   1.436   1.666   3.466 -0.1542 -0.8178 -0.3624
 4212TIP3   OH234050   3.195   5.167  11.470 -0.6145 -0.1017  0.7251
 4212TIP3    H134051   3.276   5.218  11.478 -0.3795 -0.6119  1.8347
 4212TIP3    H234052   3.125   5.228  11.492 -0.4793  0.1640  0.4300
 4213TIP3   OH234053   3.281   5.820   3.875 -0.2190 -0.1305 -0.4078
 4213TIP3    H134054   3.261   5.798   3.966  2.1843  0.8677  0.4521
 4213TIP3    H234055   3.370   5.787   3.862  0.3201  1.6742 -1.6853
 4214TIP3   OH234056   2.896   6.551  12.092 -0.3521  0.0103 -0.5154
 4214TIP3    H134057   2.918   6.464  12.126  0.6192  0.4408 -0.0028
 4214TIP3    H234058   2.874   6.536  12.000 -3.2776 -1.2221  0.2648
 4215TIP3   OH234059   4.213   3.603  16.418  0.5107  0.2306  0.1500
 4215TIP3    H134060   4.239   3.644  16.336  1.1176 -0.2241  0.1124
 4215TIP3    H234061   4.252   3.516  16.416 -0.4657 -0.2293  0.3935
 4216TIP3   OH234062   0.236   0.332   1.556  0.3274  0.7511  0.2155
 4216TIP3    H134063   0.196   0.362   1.475  0.6993  3.6328  0.9732
 4216TIP3    H234064   0.187   0.378   1.625  0.4639 -1.0853  1.6105
 4217TIP3   OH234065   1.927   2.375   6.419  0.1582  0.2325 -0.6111
 4217TIP3    H134066   1.833   2.384   6.435  0.5070  0.8088  1.3738
 4217TIP3    H234067   1.937   2.393   6.325 -1.6126  0.9329 -0.7087
 4218TIP3   OH234068   5.601   5.246  16.581  0.2582 -0.3213 -1.0503
 4218TIP3    H134069   5.519   5.279  16.545 -0.5577 -1.1582 -0.0333
 4218TIP3    H234070   5.638   5.191  16.512 -0.5559 -0.7393 -1.1650
 4219TIP3   OH234071   0.267   5.941  15.048 -0.3666 -0.1794  0.3904
 4219TIP3    H134072   0.324   5.971  15.119  0.1517 -1.1403  0.4050
 4219TIP3    H234073   0.178   5.947  15.083 -0.1500 -0.1558  0.9370
 4220TIP3   OH234074   3.073   2.244  14.893 -0.2809  0.9112  0.0910
 4220TIP3    H134075   3.008   2.284  14.951 -1.0896  1.6122 -1.2496
 4220TIP3    H234076   3.026   2.172  14.851  0.0404  0.9236 -0.2980
 4221TIP3   OH234077   1.742   5.222  11.199 -0.2330  0.0906  0.2944
 4221TIP3    H134078   1.676   5.153  11.206  0.1934 -0.4084 -0.3689
 4221TIP3    H234079   1.753   5.255  11.288 -1.2794  0.0982  0.4331
 4222TIP3   OH234080   5.709   2.475  11.970 -0.0079  0.1252 -0.0120
 4222TIP3    H134081   5.771   2.440  12.034 -0.8016 -0.5470  0.4120
 4222TIP3    H234082   5.763   2.497  11.894  0.5616 -2.1041 -0.3320
 4223TIP3   OH234083   5.137   2.209  13.120 -0.2378 -0.5728  0.4131
 4223TIP3    H134084   5.105   2.255  13.043 -0.6186 -0.1050  0.8403
 4223TIP3    H234085   5.139   2.117  13.095  0.1594 -0.3700 -0.3287
 4224TIP3   OH234086   5.757   4.658   4.723 -0.0302  0.0758 -0.6926
 4224TIP3    H134087   5.757   4.564   4.706  0.4183 -0.0139 -0.2200
 4224TIP3    H234088   5.833   4.673   4.780 -1.2647  0.3869  0.9616
 4225TIP3   OH234089   2.119   3.826   2.729 -0.6748  0.3660 -0.0602
 4225TIP3    H134090   2.161   3.744   2.703 -2.4958  0.0105 -2.2464
 4225TIP3    H234091   2.175   3.894   2.693  0.8101  0.1474  1.7037
 4226TIP3   OH234092   5.412   1.765   6.475 -0.0844 -0.0938 -0.3703
 4226TIP3    H134093   5.319   1.788   6.482 -0.3073 -1.1429  0.3316
 4226TIP3    H234094   5.428   1.708   6.550  0.7234 -1.2154 -1.3490
 4227TIP3   OH234095   0.697   0.358  11.586 -0.4519 -0.9242  0.1945
 4227TIP3    H134096   0.679   0.433  11.642 -0.7986 -1.5068  0.8942
 4227TIP3    H234097   0.781   0.378  11.545 -0.6208 -0.0834  0.2369
 4228TIP3   OH234098   5.787   3.198   5.332  0.4252 -0.3488  0.2144
 4228TIP3    H134099   5.833   3.203   5.248  1.6727 -0.9879  0.8326
 4228TIP3    H234100   5.776   3.289   5.358 -1.8038 -0.0036 -1.5409
 4229TIP3   OH234101   5.334   5.924   3.561  0.1878  0.0076 -0.2353
 4229TIP3    H134102   5.265   5.990   3.549  2.0225  2.6036  2.1592
 4229TIP3    H234103   5.290   5.852   3.606 -1.3669  0.6825 -0.5927
 4230TIP3   OH234104   2.323   4.180  14.816  0.3930  0.2292 -0.1011
 4230TIP3    H134105   2.269   4.103  14.835  0.5624  0.1728  0.1573
 4230TIP3    H234106   2.339   4.175  14.722  1.2475 -0.6040  0.0821
 4231TIP3   OH234107   2.000   2.812  12.690 -0.2861  0.2762 -0.3848
 4231TIP3    H134108   1.973   2.780  12.777 -2.8601 -0.4031 -1.3284
 4231TIP3    H234109   2.071   2.754  12.664  1.0539  0.9526  1.5187
 4232TIP3   OH234110   4.914   4.458  13.238  0.3172  0.5134  0.3666
 4232TIP3    H134111   4.907   4.379  13.293 -0.7192  0.0772 -0.3434
 4232TIP3    H234112   4.998   4.496  13.261  2.0927 -2.2129 -1.1158
 4233TIP3   OH234113   5.239   0.577  10.793  0.2357  0.0763 -0.3457
 4233TIP3    H134114   5.159   0.626  10.773 -0.7772 -2.0696 -1.8937
 4233TIP3    H234115   5.299   0.599  10.722  1.2040  1.8347  0.9141
 4234TIP3   OH234116   5.343   5.945  10.601  0.6031  0.4360 -0.2846
 4234TIP3    H134117   5.399   6.022  10.613  2.4100 -1.0766  2.0232
 4234TIP3    H234118   5.404   5.871  10.604 -1.3238 -1.2213  0.1482
 4235TIP3   OH234119   1.724   2.912  12.315 -0.5663  0.1132 -0.2055
 4235TIP3    H134120   1.762   2.825  12.325  0.2541  0.5220  0.4443
 4235TIP3    H234121   1.712   2.943  12.405 -2.3408  0.0702 -0.3856
 4236TIP3   OH234122   1.799   4.582  14.737  0.0861  0.5532 -0.1476
 4236TIP3    H134123   1.825   4.499  14.698 -0.9747 -1.1998  2.5145
 4236TIP3    H234124   1.737   4.557  14.806  0.5397  3.4619  1.4902
 4237TIP3   OH234125   4.498   1.839   3.436 -0.3866 -0.2858 -0.1375
 4237TIP3    H134126   4.532   1.759   3.396  0.3042 -0.6346  1.0973
 4237TIP3    H234127   4.443   1.808   3.508 -0.0569  0.3469  0.3912
 4238TIP3   OH234128   4.745   4.141  15.658  0.9148  0.6708 -0.1040
 4238TIP3    H134129   4.676   4.103  15.604 -1.2195  1.3442  1.9561
 4238TIP3    H234130   4.822   4.086  15.642 -0.7428 -1.5967 -0.7597
 4239TIP3   OH234131   4.181   4.913  12.774  0.1183 -0.1367 -0.1451
 4239TIP3    H134132   4.170   4.827  12.816  0.8257 -0.1956 -0.0532
 4239TIP3    H234133   4.267   4.907  12.732 -0.6392 -0.1327 -1.7385
 4240TIP3   OH234134   6.111   3.507  14.964  0.2139 -0.1479  0.3927
 4240TIP3    H134135   6.155   3.480  14.883  0.0717  0.4526  0.1086
 4240TIP3    H234136   6.166   3.474  15.034  0.2430 -0.8400  0.0526
 4241TIP3   OH234137   2.676   1.245  15.631  0.0915  0.0908  0.1673
 4241TIP3    H134138   2.719   1.318  15.587 -0.5490  0.4827  0.1852
 4241TIP3    H234139   2.583   1.260  15.618 -0.0467 -0.9530 -0.1972
 4242TIP3   OH234140   5.045   4.949   4.349 -0.3419 -0.0171  0.3718
 4242TIP3    H134141   4.961   4.939   4.304 -0.9823 -2.6779  1.8954
 4242TIP3    H234142   5.064   4.861   4.382  2.1746  0.9030  1.5960
 4243TIP3   OH234143   2.625   3.774   5.520  0.5671  0.2753 -0.0950
 4243TIP3    H134144   2.666   3.722   5.590 -0.5653  0.2545  0.5743
 4243TIP3    H234145   2.575   3.841   5.566  0.1922  0.5655 -0.9066
 4244TIP3   OH234146   3.887   3.531  13.013  0.3865 -0.1247  1.0175
 4244TIP3    H134147   3.811   3.504  12.962  1.5004 -1.5012 -0.0016
 4244TIP3    H234148   3.859   3.610  13.059 -2.3327 -1.7197  2.3312
 4245TIP3   OH234149   5.414   2.775  10.935 -0.7544 -0.0084 -0.0104
 4245TIP3    H134150   5.333   2.725  10.944  0.1878 -1.6762 -0.3511
 4245TIP3    H234151   5.436   2.801  11.024 -0.3063 -1.8397  0.4561
 4246TIP3   OH234152   4.461   6.693  11.111 -0.3101 -0.1929 -0.0974
 4246TIP3    H134153   4.506   6.767  11.071 -1.8432  0.0801 -1.4262
 4246TIP3    H234154   4.374   6.694  11.072 -0.4330 -2.6131 -0.0420
 4247TIP3   OH234155   2.897   6.523  13.735  0.1317  0.0374  0.5521
 4247TIP3    H134156   2.804   6.536  13.753  0.1307 -0.0811  0.6339
 4247TIP3    H234157   2.901   6.501  13.642 -0.2479 -3.1537  1.1992
 4248TIP3   OH234158   4.216   3.914  14.662 -0.1061 -0.3378 -0.1877
 4248TIP3    H134159   4.251   3.825  14.659  0.5153 -0.0760 -1.0550
 4248TIP3    H234160   4.245   3.955  14.580 -0.5030  0.6200  0.1276
 4249TIP3   OH234161   3.700   5.790  13.221  0.6604  0.5468  0.5826
 4249TIP3    H134162   3.727   5.861  13.279  1.7737  0.5356  0.0982
 4249TIP3    H234163   3.726   5.819  13.134 -1.1531  0.6458  0.0225
 4250TIP3   OH234164   3.905   3.322  12.352 -0.1107 -0.3964  0.2137
 4250TIP3    H134165   3.859   3.245  12.385 -0.7562 -1.0645 -2.0778
 4250TIP3    H234166   3.980   3.288  12.305  1.3066  0.5761  1.6538
 4251TIP3   OH234167   0.422   3.953  12.161 -0.0849 -0.2926 -0.1103
 4251TIP3    H134168   0.389   3.937  12.249 -0.2303  1.1214  0.1181
 4251TIP3    H234169   0.510   3.916  12.160  0.4118  0.7826  1.0480
 4252TIP3   OH234170   5.198   2.645   5.021 -0.3935 -0.1838  0.4033
 4252TIP3    H134171   5.110   2.642   5.059 -1.3686  1.7930 -1.4719
 4252TIP3    H234172   5.185   2.625   4.928  1.0697  0.5319  0.0180
 4253TIP3   OH234173   0.047   0.537   2.273 -0.1778 -0.0652  0.7977
 4253TIP3    H134174   0.076   0.628   2.270 -0.9460  0.2552  2.2156
 4253TIP3    H234175   0.020   0.518   2.184  0.3392  0.9788  0.3976
 4254TIP3   OH234176   2.808   5.789  12.377  0.0472  0.0597  0.2102
 4254TIP3    H134177   2.745   5.802  12.306  0.0100  0.4245  0.3081
 4254TIP3    H234178   2.798   5.697  12.401 -0.8273  0.2384  0.5748
 4255TIP3   OH234179   0.744   3.938   2.074 -0.1862 -0.3735  1.0178
 4255TIP3    H134180   0.696   3.865   2.035 -2.4443  1.7746 -0.5653
 4255TIP3    H234181   0.690   3.964   2.149 -0.3952  0.7497  0.4986
 4256TIP3   OH234182   0.829   5.540  13.157 -0.2326  0.4904 -0.4333
 4256TIP3    H134183   0.864   5.626  13.137  1.7814  0.1644  1.2763
 4256TIP3    H234184   0.778   5.552  13.237  2.5863 -0.2919  1.6338
 4257TIP3   OH234185   3.004   2.181   4.911 -0.2020  0.7334 -0.0566
 4257TIP3    H134186   3.030   2.107   4.857 -0.1170  0.9445 -0.3069
 4257TIP3    H234187   2.909   2.173   4.919 -0.1245  0.2449  0.4411
 4258TIP3   OH234188   3.406   6.680   5.875  0.5657  0.4743 -0.2540
 4258TIP3    H134189   3.479   6.736   5.850 -0.2237  1.6714  0.0495
 4258TIP3    H234190   3.438   6.631   5.951  1.0456  0.9762 -0.1288
 4259TIP3   OH234191   2.151   1.195   1.299  0.2539  0.2124  0.3171
 4259TIP3    H134192   2.074   1.241   1.267  0.9880  0.6535 -0.8972
 4259TIP3    H234193   2.208   1.187   1.222  0.4235 -2.1856  0.6378
 4260TIP3   OH234194   3.766   3.187   1.244 -0.0888 -0.5297 -0.2768
 4260TIP3    H134195   3.677   3.153   1.251 -1.3577  2.5595 -0.2343
 4260TIP3    H234196   3.789   3.173   1.152 -1.1159 -0.2272 -0.5900
 4261TIP3   OH234197   3.959   0.435  10.925  0.2256  0.7063 -0.6743
 4261TIP3    H134198   3.992   0.352  10.890  2.3119  0.1837  2.1791
 4261TIP3    H234199   3.878   0.412  10.969  0.8927  0.0694  0.2712
 4262TIP3   OH234200   4.519   3.453   1.255 -0.3207  0.0661  0.1814
 4262TIP3    H134201   4.500   3.479   1.345 -3.1449 -0.9907 -0.0274
 4262TIP3    H234202   4.470   3.516   1.201  2.2896  1.4544 -0.7704
 4263TIP3   OH234203   1.223   1.246   4.431  0.2008  0.2030  0.0051
 4263TIP3    H134204   1.192   1.331   4.400 -2.3416 -1.1096 -1.3290
 4263TIP3    H234205   1.206   1.247   4.525 -3.2951 -0.0895 -0.5179
 4264TIP3   OH234206   2.432   5.655   4.524 -0.1875  0.5145  0.4088
 4264TIP3    H134207   2.474   5.670   4.609  2.3787  0.3252 -0.7293
 4264TIP3    H234208   2.415   5.743   4.490  1.5432  0.6806 -0.1107
 4265TIP3   OH234209   1.629   1.281  16.014 -0.1143  0.3721  0.0220
 4265TIP3    H134210   1.647   1.259  15.923  0.7355  2.4622 -0.3741
 4265TIP3    H234211   1.537   1.260  16.027  0.0555 -1.0324 -0.9637
 4266TIP3   OH234212   6.118   4.421   4.048 -0.4941  0.0444  0.4517
 4266TIP3    H134213   6.140   4.336   4.086  1.2288 -0.1320 -0.7870
 4266TIP3    H234214   6.176   4.483   4.092  0.1457  0.1345 -0.4827
 4267TIP3   OH234215   1.437   0.785  16.547  0.0988  0.1866  0.3644
 4267TIP3    H134216   1.483   0.835  16.479  0.1082  0.0191  0.2442
 4267TIP3    H234217   1.487   0.801  16.627 -0.0662  0.5989  0.3897
 4268TIP3   OH234218   0.122   2.248  13.104 -0.6625  0.3919 -0.4679
 4268TIP3    H134219   0.047   2.198  13.137 -0.5202 -0.1174 -0.9024
 4268TIP3    H234220   0.195   2.223  13.162 -0.3198 -0.8052 -1.3751
 4269TIP3   OH234221   5.201   2.859   3.016 -0.1451 -0.4537  0.3801
 4269TIP3    H134222   5.185   2.831   2.926 -1.0976  2.0249 -0.2880
 4269TIP3    H234223   5.202   2.954   3.012  1.3629 -0.2877  2.7643
 4270TIP3   OH234224   3.788   4.463   6.044 -0.0059  0.3699 -0.4118
 4270TIP3    H134225   3.859   4.407   6.014  0.6737  1.4671 -0.9282
 4270TIP3    H234226   3.822   4.552   6.036 -1.6508  0.9736 -1.2823
 4271TIP3   OH234227   1.771   6.045   3.083 -0.5756 -0.3856 -0.3385
 4271TIP3    H134228   1.748   6.134   3.056 -0.2968 -0.4639 -0.8564
 4271TIP3    H234229   1.746   6.040   3.175 -0.1924  0.3717 -0.1817
 4272TIP3   OH234230   5.988   5.109   3.945 -0.7645  0.3299 -0.0497
 4272TIP3    H134231   5.964   5.189   3.990  1.1021  0.1332  1.4100
 4272TIP3    H234232   6.000   5.044   4.015  2.4167  0.0656 -0.6824
 4273TIP3   OH234233   4.634   1.335  13.857 -0.2841 -0.0746  0.0850
 4273TIP3    H134234   4.683   1.410  13.823  0.8512 -0.7893  0.0801
 4273TIP3    H234235   4.702   1.276  13.891 -0.9104 -2.2514 -2.1731
 4274TIP3   OH234236   1.915   1.441  15.448 -0.2460 -0.4228 -0.1891
 4274TIP3    H134237   1.846   1.465  15.509 -0.7094 -1.2434 -0.3822
 4274TIP3    H234238   1.946   1.525  15.413 -0.4120  0.0113  0.6827
 4275TIP3   OH234239   5.860   1.518   6.178  0.3606  0.3729  0.0594
 4275TIP3    H134240   5.842   1.589   6.116 -1.6480 -1.1387 -1.2174
 4275TIP3    H234241   5.923   1.555   6.239  2.9169  1.8189 -3.1325
 4276TIP3   OH234242   1.905   4.383  15.781  0.7664 -0.2416 -0.3296
 4276TIP3    H134243   1.928   4.416  15.694  4.1514 -0.7646  0.2202
 4276TIP3    H234244   1.989   4.357  15.819 -0.7303 -1.0260  2.7097
 4277TIP3   OH234245   4.455   4.376  15.530 -0.1394 -0.0177  0.0139
 4277TIP3    H134246   4.496   4.404  15.448 -1.5868  0.8497 -0.4512
 4277TIP3    H234247   4.509   4.417  15.598  1.1055 -0.7802 -0.4804
 4278TIP3   OH234248   6.097   4.160  15.847 -0.0075 -0.0203 -0.5273
 4278TIP3    H134249   6.005   4.184  15.852  0.0355  0.0527 -0.0678
 4278TIP3    H234250   6.106   4.116  15.763 -0.5498 -0.4055 -0.3835
 4279TIP3   OH234251   4.235   2.946  11.253  0.1671 -0.2026 -0.6293
 4279TIP3    H134252   4.238   3.025  11.199  0.4677 -1.5479 -2.6858
 4279TIP3    H234253   4.302   2.889  11.215  0.1713 -1.3540  1.0020
 4280TIP3   OH234254   3.524   1.960  11.434 -0.0830  0.0698 -0.4161
 4280TIP3    H134255   3.526   2.040  11.383 -2.9727  0.3367 -0.2822
 4280TIP3    H234256   3.431   1.941  11.446  0.4744 -1.5945  2.2206
 4281TIP3   OH234257   5.380   3.651  12.896 -0.0105 -0.4312  0.1417
 4281TIP3    H134258   5.368   3.676  12.988 -0.3409  0.5099 -0.1497
 4281TIP3    H234259   5.381   3.555  12.897  0.1932 -0.4272  1.1489
 4282TIP3   OH234260   2.131   1.311   5.745  0.6028 -0.3157  0.3124
 4282TIP3    H134261   2.101   1.316   5.836  0.6805 -1.5192  0.4117
 4282TIP3    H234262   2.112   1.398   5.710  0.5277  0.1561  1.4576
 4283TIP3   OH234263   4.977   3.778   4.679 -0.1155  0.0306 -0.1038
 4283TIP3    H134264   4.905   3.826   4.638  0.2412 -0.6221 -1.5773
 4283TIP3    H234265   5.021   3.842   4.734 -0.1396  1.1932 -1.3869
 4284TIP3   OH234266   2.907   0.942  11.781  0.2375 -0.1074  0.1419
 4284TIP3    H134267   2.885   0.855  11.749  0.9673  0.2457 -1.4239
 4284TIP3    H234268   2.921   0.994  11.702  2.6650  0.6899  0.9945
 4285TIP3   OH234269   0.801   5.701   4.988 -0.6414 -0.0218  0.1257
 4285TIP3    H134270   0.748   5.661   4.919 -1.4340  1.7635 -0.3307
 4285TIP3    H234271   0.790   5.795   4.976  0.7577  0.3550  1.5025
 4286TIP3   OH234272   0.446   4.201  14.898 -0.3382  0.6715 -0.1745
 4286TIP3    H134273   0.519   4.191  14.960  0.8883  1.7510 -1.3724
 4286TIP3    H234274   0.485   4.246  14.823 -1.7958 -0.5202 -1.7084
 4287TIP3   OH234275   4.954   5.326  12.983  0.8866 -0.2106  0.0275
 4287TIP3    H134276   5.001   5.358  13.061 -1.9942  0.1473  1.7529
 4287TIP3    H234277   4.930   5.405  12.935  0.6238 -0.2850  0.0369
 4288TIP3   OH234278   6.807   4.599   3.068  0.2621  0.1933  0.0500
 4288TIP3    H134279   6.875   4.601   3.135 -0.2253  0.0496  0.5589
 4288TIP3    H234280   6.741   4.662   3.100  0.3127  0.5822 -0.6026
 4289TIP3   OH234281   0.020   3.669   0.412  0.0732  0.6347 -0.4520
 4289TIP3    H134282   0.045   3.681   0.321 -0.1858  0.3493 -0.5630
 4289TIP3    H234283   0.041   3.577   0.431  0.2471  0.7287 -0.1864
 4290TIP3   OH234284   3.618   5.139   3.081 -0.2779  0.4127  0.3934
 4290TIP3    H134285   3.533   5.168   3.115  0.3085  1.3794  1.0883
 4290TIP3    H234286   3.670   5.219   3.074  0.2789 -0.0276 -0.9573
 4291TIP3   OH234287   2.034   6.332  13.832  0.4963 -0.2322 -0.1724
 4291TIP3    H134288   2.122   6.339  13.794  0.9191  0.0084  0.8229
 4291TIP3    H234289   1.980   6.299  13.760  0.8817  1.8725 -1.5436
 4292TIP3   OH234290   2.613   0.164   2.773 -0.1269 -0.3222 -0.4772
 4292TIP3    H134291   2.561   0.157   2.693 -1.4030 -0.3380  0.3266
 4292TIP3    H234292   2.587   0.248   2.810 -0.9712 -1.1396  0.8591
 4293TIP3   OH234293   6.378   5.863   6.137 -0.1093 -0.0654  0.1772
 4293TIP3    H134294   6.414   5.892   6.221 -1.4085 -0.6812  0.9928
 4293TIP3    H234295   6.292   5.906   6.131  0.2040  0.4117 -1.1170
 4294TIP3   OH234296   4.262   2.062  11.277 -0.2323  0.3899  0.0453
 4294TIP3    H134297   4.295   2.045  11.189  0.6804 -2.3966  0.8222
 4294TIP3    H234298   4.304   1.996  11.332  0.3311  2.8862  2.8771
 4295TIP3   OH234299   4.025   1.723  14.960  0.4038  0.8443 -0.1987
 4295TIP3    H134300   4.036   1.684  14.873  0.4033  0.0829  0.1378
 4295TIP3    H234301   4.101   1.780  14.970  1.0380  0.0274 -0.2297
 4296TIP3   OH234302   4.377   2.164   1.787  0.2028 -0.6564 -0.3466
 4296TIP3    H134303   4.370   2.108   1.864  0.5880 -1.1257 -0.6453
 4296TIP3    H234304   4.291   2.206   1.780  0.5046  0.2688  0.9885
 4297TIP3   OH234305   4.110   0.242  16.152 -0.2436  0.2946  0.1812
 4297TIP3    H134306   4.084   0.165  16.203 -1.3324  1.0068  0.7284
 4297TIP3    H234307   4.108   0.212  16.061 -0.9120 -0.2691  0.3698
 4298TIP3   OH234308   1.774   1.517   1.755  0.2426 -0.3211  0.3330
 4298TIP3    H134309   1.727   1.481   1.830  0.3800  0.3837  0.7660
 4298TIP3    H234310   1.810   1.440   1.711  1.7531 -0.6704  2.0402
 4299TIP3   OH234311   4.547   4.424  15.262 -0.1546  0.5159 -0.4502
 4299TIP3    H134312   4.544   4.328  15.259 -0.1224  0.4840 -3.9730
 4299TIP3    H234313   4.634   4.446  15.227  0.6487  1.9015  2.1858
 4300TIP3   OH234314   1.374   2.230   2.099 -0.3224  0.3503  0.0584
 4300TIP3    H134315   1.361   2.298   2.032  1.0539 -0.5853 -1.2003
 4300TIP3    H234316   1.463   2.245   2.131 -0.1208 -0.6696 -0.0151
 4301TIP3   OH234317   4.028   1.347   6.081  0.4155  0.2479  0.1554
 4301TIP3    H134318   4.046   1.422   6.138  0.3534 -0.3673  0.9945
 4301TIP3    H234319   4.114   1.307   6.066  0.6763  1.3318 -1.5284
 4302TIP3   OH234320   1.028   5.114  12.161  0.1408  0.1012  0.0671
 4302TIP3    H134321   1.111   5.153  12.135  1.7509 -2.7386  0.5444
 4302TIP3    H234322   0.977   5.110  12.079  2.0112 -1.5154 -1.1089
 4303TIP3   OH234323   4.156   4.555   3.133  0.2291  0.0457  0.1642
 4303TIP3    H134324   4.174   4.522   3.044  1.3604 -0.4021  0.5380
 4303TIP3    H234325   4.216   4.506   3.189 -0.2159  0.5894  1.1390
 4304TIP3   OH234326   2.502   0.282  16.804  0.3013  0.0006 -0.2701
 4304TIP3    H134327   2.454   0.204  16.775 -0.1716  0.3088 -0.3337
 4304TIP3    H234328   2.594   0.256  16.801  0.2365 -0.1666 -1.5224
 4305TIP3   OH234329   0.733   6.168   2.003 -0.0416  0.7386 -0.2260
 4305TIP3    H134330   0.789   6.240   2.032  1.0792 -0.8310  1.8570
 4305TIP3    H234331   0.676   6.151   2.078 -0.0376 -0.7181 -0.5275
 4306TIP3   OH234332   1.708   6.222  11.760  0.2830  0.3216  0.2834
 4306TIP3    H134333   1.655   6.155  11.803 -1.0587  0.0705 -1.6069
 4306TIP3    H234334   1.663   6.304  11.780  0.7302  0.4244  0.8807
 4307TIP3   OH234335   5.644   4.962  14.542  0.2352 -0.0410 -0.9481
 4307TIP3    H134336   5.602   4.895  14.488 -0.1522 -0.7301  0.1784
 4307TIP3    H234337   5.620   5.045  14.500 -2.6398 -0.3646 -0.1746
 4308TIP3   OH234338   1.145   3.988  13.083  0.4248  0.1706 -0.4737
 4308TIP3    H134339   1.196   3.925  13.031 -1.1029  0.0768 -1.9600
 4308TIP3    H234340   1.173   4.074  13.051 -0.1781  0.1230 -1.1616
 4309TIP3   OH234341   1.815   5.133   5.519  0.5726  0.0147  1.0346
 4309TIP3    H134342   1.851   5.183   5.592 -0.5784  0.8654  1.0516
 4309TIP3    H234343   1.740   5.185   5.490  2.1287  0.7414 -2.0571
 4310TIP3   OH234344   1.606   1.149  10.762  0.2225 -0.2219 -0.1154
 4310TIP3    H134345   1.682   1.104  10.723  0.2807  0.8054 -1.2279
 4310TIP3    H234346   1.635   1.174  10.849  0.6773 -1.0805 -0.0112
 4311TIP3   OH234347   0.676   0.122  16.595 -0.1357  0.1286  0.1171
 4311TIP3    H134348   0.640   0.204  16.563  1.2655  0.5793 -0.3975
 4311TIP3    H234349   0.636   0.055  16.541  0.5009  0.6982 -1.1003
 4312TIP3   OH234350   2.790   2.066  12.145 -0.4602  0.2794  0.1074
 4312TIP3    H134351   2.827   2.019  12.219  1.1776  1.9762  0.4475
 4312TIP3    H234352   2.810   2.010  12.069  2.2780  0.7236  0.3762
 4313TIP3   OH234353   1.391   4.006   3.417 -0.4929  0.1466  0.2785
 4313TIP3    H134354   1.355   3.932   3.466 -0.0611 -0.0137  0.3589
 4313TIP3    H234355   1.470   3.971   3.375 -0.5708  0.4239 -0.1063
 4314TIP3   OH234356   4.850   1.771   0.006  0.3047  0.2977 -0.7718
 4314TIP3    H134357   4.914   1.706   0.035  1.8500  2.5194  1.1752
 4314TIP3    H234358   4.810   1.803   0.087 -1.6395  0.6159 -1.7923
 4315TIP3   OH234359   2.308   1.169   4.865  0.1999  0.3748 -0.0234
 4315TIP3    H134360   2.324   1.240   4.927 -1.9235 -0.9317  2.2220
 4315TIP3    H234361   2.260   1.210   4.794 -0.1014  1.3888  0.7378
 4316TIP3   OH234362   2.255   0.443   5.516 -0.0931  0.5876  0.1524
 4316TIP3    H134363   2.256   0.538   5.528  0.5989  0.5949  0.0355
 4316TIP3    H234364   2.230   0.409   5.602 -2.7167  0.9529 -0.3844
 4317TIP3   OH234365   1.221   1.750  16.444 -0.2416 -0.0712  0.1300
 4317TIP3    H134366   1.165   1.781  16.373 -1.6186 -0.9216  0.8038
 4317TIP3    H234367   1.309   1.782  16.421 -0.4777 -1.0168 -2.3819
 4318TIP3   OH234368   4.356   4.723  15.633 -0.0020  0.1180  0.0006
 4318TIP3    H134369   4.332   4.632  15.652 -0.6819  0.0478 -1.0885
 4318TIP3    H234370   4.391   4.757  15.716 -0.4601 -0.8985  0.6304
 4319TIP3   OH234371   1.910   4.913  15.089 -0.1226  0.1543  0.7961
 4319TIP3    H134372   1.909   5.009  15.088 -1.6972  0.1498 -0.2657
 4319TIP3    H234373   1.846   4.889  15.156 -1.1319 -0.1474 -0.2571
 4320TIP3   OH234374   5.085   4.015  15.899 -0.1571 -0.4194 -0.1596
 4320TIP3    H134375   5.123   3.929  15.919 -0.4900 -0.7562 -0.9713
 4320TIP3    H234376   4.992   3.999  15.888 -0.2707  0.1032  0.0054
 4321TIP3   OH234377   6.183   4.720   3.989 -0.1605 -0.0783 -0.1608
 4321TIP3    H134378   6.113   4.775   4.024 -0.2010 -0.3601  0.2063
 4321TIP3    H234379   6.151   4.691   3.903 -1.0078 -1.1696  0.4997
 4322TIP3   OH234380   4.909   4.926  16.465 -0.2088  0.2514 -0.2744
 4322TIP3    H134381   4.993   4.968  16.479 -0.0790  0.1187 -0.6169
 4322TIP3    H234382   4.845   4.980  16.511  0.3455 -0.9018  1.9727
 4323TIP3   OH234383   6.468   3.735  12.321  0.8843  0.3048  0.5314
 4323TIP3    H134384   6.551   3.783  12.314  0.6816  0.8796  1.8604
 4323TIP3    H234385   6.402   3.803  12.332  0.5313 -0.2357  1.9499
 4324TIP3   OH234386   4.633   0.078   5.516  0.4742  0.0564 -0.3070
 4324TIP3    H134387   4.583   0.125   5.583  0.5402 -1.2808  0.7303
 4324TIP3    H234388   4.717   0.060   5.558  0.6247 -0.5427 -0.8553
 4325TIP3   OH234389   2.485   2.703   4.691 -0.4392  0.2667 -0.1423
 4325TIP3    H134390   2.498   2.787   4.734  0.5009 -0.3333  0.7898
 4325TIP3    H234391   2.564   2.690   4.639 -0.1910 -0.4067  0.3780
 4326TIP3   OH234392   1.940   0.206  16.350 -0.4142 -0.2088  0.3864
 4326TIP3    H134393   2.015   0.162  16.390 -1.6621 -0.9055  2.0866
 4326TIP3    H234394   1.936   0.170  16.261  0.7345 -0.7976  0.5487
 4327TIP3   OH234395   4.709   0.643  11.559  0.0049 -0.2376 -0.0711
 4327TIP3    H134396   4.649   0.712  11.530 -0.7166 -0.7011  0.2820
 4327TIP3    H234397   4.698   0.573  11.495  0.6519 -0.0697 -0.3653
 4328TIP3   OH234398   4.079   6.358   4.491 -0.3310 -0.2795  0.1301
 4328TIP3    H134399   4.021   6.307   4.434  1.4211 -0.1446 -1.9342
 4328TIP3    H234400   4.061   6.450   4.467 -0.6935 -0.1293  0.9624
 4329TIP3   OH234401   3.918   2.776   6.575  0.2903 -0.5714 -0.3702
 4329TIP3    H134402   3.978   2.802   6.506  0.4915  1.5931  0.5522
 4329TIP3    H234403   3.964   2.798   6.656 -1.1269 -0.2624  0.3845
 4330TIP3   OH234404   6.041   5.694  14.781  0.5082 -0.2007 -0.1317
 4330TIP3    H134405   5.960   5.665  14.823  0.3987  0.0362 -0.1749
 4330TIP3    H234406   6.031   5.789  14.773  0.8313 -0.1587 -0.0527
 4331TIP3   OH234407   1.895   6.073  11.598 -0.3908 -0.1631  0.1819
 4331TIP3    H134408   1.886   6.142  11.533 -0.5444  1.2555  1.6696
 4331TIP3    H234409   1.850   6.106  11.675  0.9489 -1.2105  1.4772
 4332TIP3   OH234410   2.066   6.087   0.712 -0.2292 -0.3720  0.0597
 4332TIP3    H134411   1.998   6.153   0.700 -0.2984 -0.4920 -0.2062
 4332TIP3    H234412   2.037   6.012   0.659 -0.3940 -0.7970  0.7351
 4333TIP3   OH234413   5.329   6.793   0.059  0.4474 -0.2158  0.6683
 4333TIP3    H134414   5.278   6.849   0.001 -1.4502  0.6720  3.0395
 4333TIP3    H234415   5.270   6.720   0.079  1.5475 -1.1775  0.5372
 4334TIP3   OH234416   1.845   6.578  14.517  0.4994 -0.1294  0.0931
 4334TIP3    H134417   1.897   6.498  14.520 -0.0363 -0.5459 -1.1182
 4334TIP3    H234418   1.904   6.644  14.481  0.1164 -0.6785 -1.5877
 4335TIP3   OH234419   4.322   3.187   3.163  0.1864 -0.2845 -0.4399
 4335TIP3    H134420   4.364   3.267   3.132  0.8712  0.4098  2.0788
 4335TIP3    H234421   4.258   3.217   3.228  1.7733 -1.7751  1.9807
 4336TIP3   OH234422   6.259   4.014   1.917  0.7416 -0.5512  0.5674
 4336TIP3    H134423   6.202   3.966   1.977 -0.4554 -0.4771 -0.4708
 4336TIP3    H234424   6.347   3.995   1.948  0.1707 -0.4969  2.3568
 4337TIP3   OH234425   4.751   5.769  10.525  0.1595 -0.6291  0.8866
 4337TIP3    H134426   4.787   5.685  10.554  1.4092 -0.4893 -0.2114
 4337TIP3    H234427   4.660   5.768  10.557  0.4814 -1.9128  1.8353
 4338TIP3   OH234428   3.264   3.693   6.018  0.0578  0.3512 -0.1855
 4338TIP3    H134429   3.290   3.698   6.110  2.0203  0.3246 -0.7011
 4338TIP3    H234430   3.299   3.610   5.987 -0.2913  0.5111 -1.0490
 4339TIP3   OH234431   4.753   4.555   0.075 -0.7542  0.2456 -0.0398
 4339TIP3    H134432   4.688   4.496   0.037 -2.1678  1.6684  0.0296
 4339TIP3    H234433   4.790   4.507   0.148 -1.8622 -0.5620  0.0112
 4340TIP3   OH234434   3.620   2.412  16.954  0.3285  0.0578 -0.1940
 4340TIP3    H134435   3.697   2.410  16.898 -0.5200  1.9656 -1.5550
 4340TIP3    H234436   3.547   2.395  16.895 -0.3144 -1.9824  1.1155
 4341TIP3   OH234437   3.751   0.947  12.669 -0.1888 -0.0343  0.1068
 4341TIP3    H134438   3.681   1.012  12.672 -1.1810 -1.0887  1.4262
 4341TIP3    H234439   3.800   0.961  12.750  0.5482  0.0557 -0.3432
 4342TIP3   OH234440   6.154   0.651  10.947 -0.1624 -0.0565  0.1835
 4342TIP3    H134441   6.204   0.585  10.898 -0.9174 -1.4630  1.2450
 4342TIP3    H234442   6.077   0.668  10.892 -0.7236 -1.2089  0.5904
 4343TIP3   OH234443   4.983   0.436   5.447 -0.7281  0.5225 -0.3505
 4343TIP3    H134444   4.961   0.529   5.452 -0.7951  0.6036 -1.7204
 4343TIP3    H234445   4.936   0.396   5.520  0.2856  1.7327  1.0008
 4344TIP3   OH234446   1.924   3.456   5.856 -0.1085 -0.1356 -0.4525
 4344TIP3    H134447   1.993   3.493   5.800 -0.2585 -0.3029 -0.7542
 4344TIP3    H234448   1.967   3.382   5.900 -0.3576 -0.8832 -1.4209
 4345TIP3   OH234449   2.344   3.157  13.354 -0.3290 -0.1161  0.0256
 4345TIP3    H134450   2.268   3.213  13.343 -0.8475 -0.6900  0.6250
 4345TIP3    H234451   2.419   3.212  13.328 -0.8302  0.8021  0.4878
 4346TIP3   OH234452   3.041   5.622  15.787 -0.0616  0.5913 -0.0416
 4346TIP3    H134453   2.966   5.625  15.846 -0.2359  0.3396 -0.2508
 4346TIP3    H234454   3.018   5.679  15.715  0.6308  1.8283  0.6857
 4347TIP3   OH234455   0.692   0.830   1.134 -0.9011  0.2792 -0.4426
 4347TIP3    H134456   0.610   0.828   1.085  0.5932 -1.2441 -3.1507
 4347TIP3    H234457   0.679   0.767   1.204 -2.7239  1.6560  0.5506
 4348TIP3   OH234458   4.693   1.035   5.149 -0.6006 -0.0531 -0.4649
 4348TIP3    H134459   4.637   0.962   5.174  0.4751 -0.1765  1.8306
 4348TIP3    H234460   4.718   1.076   5.232  2.3103  0.2714 -1.3855
 4349TIP3   OH234461   2.120   1.808   5.567 -0.1844  0.1388 -0.2692
 4349TIP3    H134462   2.192   1.814   5.504 -0.8010 -1.7061 -1.2332
 4349TIP3    H234463   2.041   1.813   5.514 -0.7274 -0.5631  0.4392
 4350TIP3   OH234464   0.124   0.818   2.267  0.4255  0.2379 -0.4216
 4350TIP3    H134465   0.108   0.837   2.360 -0.6868  0.5208 -0.6512
 4350TIP3    H234466   0.206   0.862   2.247  0.2419  0.8962  0.2236
 4351TIP3   OH234467   2.946   1.607  15.042 -0.4136 -0.0385  0.0656
 4351TIP3    H134468   3.032   1.646  15.062 -0.7412 -0.3037  2.2080
 4351TIP3    H234469   2.964   1.547  14.970  0.9993  0.6482 -0.2083
 4352TIP3   OH234470   3.238   1.697  11.385  0.2661 -0.1083 -0.1422
 4352TIP3    H134471   3.266   1.757  11.454 -2.1735  1.0732 -0.0829
 4352TIP3    H234472   3.195   1.625  11.430 -0.3741  0.1175 -0.3916
 4353TIP3   OH234473   1.925   1.236   1.836 -0.0943 -0.3152 -0.4312
 4353TIP3    H134474   1.972   1.319   1.826 -0.2335 -0.0024  1.2016
 4353TIP3    H234475   1.885   1.242   1.923  0.3223 -2.3144 -0.0627
 4354TIP3   OH234476   4.524   4.788   2.338 -0.3102 -0.3442  0.0338
 4354TIP3    H134477   4.496   4.776   2.428 -1.5845 -0.1045 -0.3175
 4354TIP3    H234478   4.489   4.713   2.291  0.7404 -0.7144 -0.1997
 4355TIP3   OH234479   2.588   6.734   0.129  0.1093 -0.7782  0.1946
 4355TIP3    H134480   2.588   6.801   0.198  0.6362 -0.5743  0.0012
 4355TIP3    H234481   2.532   6.665   0.163 -0.3298 -0.2976  0.4590
 4356TIP3   OH234482   0.575   5.872  14.307  0.3847 -0.2326  0.0181
 4356TIP3    H134483   0.645   5.842  14.365  0.3924 -0.8063 -0.2875
 4356TIP3    H234484   0.499   5.879  14.364  0.2395 -1.3867 -0.0119
 4357TIP3   OH234485   3.934   3.005   5.357  0.1660  0.2154 -0.0830
 4357TIP3    H134486   4.007   3.010   5.296  1.5604  0.7298  1.5456
 4357TIP3    H234487   3.972   2.967   5.436 -1.3185  0.5743  0.8370
 4358TIP3   OH234488   4.490   1.893   1.366 -0.2083  0.9659 -0.2640
 4358TIP3    H134489   4.421   1.869   1.427  0.5894 -0.8483 -0.0041
 4358TIP3    H234490   4.456   1.867   1.280  0.9025 -2.0989  0.0708
 4359TIP3   OH234491   2.442   6.617  13.562  0.3768  0.5212  0.2570
 4359TIP3    H134492   2.529   6.658  13.566  0.2001  1.0560 -0.8849
 4359TIP3    H234493   2.384   6.682  13.602  0.1147  1.3813 -1.4460
 4360TIP3   OH234494   0.793   5.605   2.369 -0.2940  0.1472 -0.1734
 4360TIP3    H134495   0.884   5.603   2.399 -0.0388  0.1938 -0.9422
 4360TIP3    H234496   0.792   5.552   2.290 -0.5391  1.6965 -1.2543
 4361TIP3   OH234497   4.103   2.621   3.938 -0.1437  0.0598 -0.2167
 4361TIP3    H134498   4.199   2.623   3.937 -0.0597 -1.6444  0.1381
 4361TIP3    H234499   4.079   2.614   3.846  0.0081  1.4403 -0.3801
 4362TIP3   OH234500   6.419   3.455  14.161  0.2435 -0.2819  0.0275
 4362TIP3    H134501   6.400   3.388  14.094  0.4067 -1.1449  0.8251
 4362TIP3    H234502   6.343   3.513  14.158  0.0385 -0.5630 -0.6017
 4363TIP3   OH234503   2.580   0.750   1.064  0.0001 -0.1056 -0.2334
 4363TIP3    H134504   2.542   0.670   1.029 -0.2846 -0.7724  1.4988
 4363TIP3    H234505   2.526   0.821   1.027 -0.2864 -0.7568 -1.0932
 4364TIP3   OH234506   1.574   4.075  10.367 -0.5890 -0.1746  0.2529
 4364TIP3    H134507   1.513   4.145  10.341 -1.2847 -0.6230  0.6341
 4364TIP3    H234508   1.602   4.035  10.285 -1.8261 -0.7985  0.1164
 4365TIP3   OH234509   5.317   4.649   4.172  0.0260 -0.2238  0.3684
 4365TIP3    H134510   5.293   4.575   4.228  0.2880 -1.3392 -0.9324
 4365TIP3    H234511   5.283   4.625   4.085  0.6252  0.9222 -0.2068
 4366TIP3   OH234512   1.347   2.922   4.806 -0.3254 -0.4127  0.3760
 4366TIP3    H134513   1.411   2.987   4.836 -0.6770 -0.1609  0.5929
 4366TIP3    H234514   1.398   2.842   4.796  0.4560  0.2737 -1.5006
 4367TIP3   OH234515   2.871   5.601  11.431 -0.2811 -0.3433 -0.3561
 4367TIP3    H134516   2.853   5.651  11.511  1.5552 -0.4347  0.1576
 4367TIP3    H234517   2.908   5.518  11.462 -0.7842 -0.9408 -1.2882
 4368TIP3   OH234518   5.259   4.741   6.294  0.0289  0.6733 -0.5295
 4368TIP3    H134519   5.204   4.681   6.344  0.1371 -1.1191 -2.4115
 4368TIP3    H234520   5.343   4.741   6.339 -0.2030 -0.0196 -0.0968
 4369TIP3   OH234521   0.059   5.808   5.547 -0.0085  0.0286  0.3405
 4369TIP3    H134522   0.080   5.849   5.463 -1.8117  0.7102  0.1762
 4369TIP3    H234523  -0.013   5.749   5.528  1.8458 -2.5525  0.7898
 4370TIP3   OH234524   0.419   6.464  14.581 -0.1874 -0.3343 -0.0614
 4370TIP3    H134525   0.419   6.557  14.602 -1.6923 -0.4649  0.6815
 4370TIP3    H234526   0.489   6.427  14.635  0.1135  0.2830 -0.0210
 4371TIP3   OH234527   6.103   1.494  14.993 -0.3466 -0.0300 -0.4628
 4371TIP3    H134528   6.032   1.558  14.985  0.4835  0.9647 -0.0011
 4371TIP3    H234529   6.067   1.424  15.047 -0.1734  1.6824  1.9818
 4372TIP3   OH234530   5.377   3.441  14.605  0.6824  0.0524  0.0063
 4372TIP3    H134531   5.453   3.430  14.547  0.3827  0.7158 -0.5255
 4372TIP3    H234532   5.301   3.437  14.547  0.4639  3.4067 -0.1353
 4373TIP3   OH234533   1.547   0.058   2.328 -0.4854 -0.0563  0.7723
 4373TIP3    H134534   1.576   0.098   2.410 -2.0728 -3.1636  3.0832
 4373TIP3    H234535   1.456   0.033   2.344 -0.6633 -1.3666 -1.7016
 4374TIP3   OH234536   0.921   4.387  11.536  0.4785  0.8924  0.0830
 4374TIP3    H134537   1.016   4.378  11.540  0.4321 -0.0764 -0.6791
 4374TIP3    H234538   0.891   4.304  11.500 -0.6775  1.1060  0.5285
 4375TIP3   OH234539   5.478   0.296   3.223 -0.2973 -0.1493  0.3157
 4375TIP3    H134540   5.434   0.285   3.308 -0.3322  0.3394  0.3612
 4375TIP3    H234541   5.500   0.207   3.196 -0.4573 -0.3221  0.7493
 4376TIP3   OH234542   5.427   3.812   5.782  0.4316  0.2233 -0.1412
 4376TIP3    H134543   5.369   3.887   5.794  0.9037  0.4306  1.0145
 4376TIP3    H234544   5.384   3.758   5.716 -1.3110  0.1438  0.9869
 4377TIP3   OH234545   6.639   6.115   0.890  0.2027 -0.3297  0.2174
 4377TIP3    H134546   6.557   6.076   0.919  0.3815 -0.1050  1.0447
 4377TIP3    H234547   6.706   6.076   0.947  0.5744  0.0482  0.0476
 4378TIP3   OH234548   0.288   1.499   1.964 -0.0883  0.0824  0.1744
 4378TIP3    H134549   0.320   1.476   1.877  0.4946  0.1992  0.3503
 4378TIP3    H234550   0.289   1.595   1.966 -1.2490  0.1087 -0.1017
 4379TIP3   OH234551   0.241   5.893  11.129  0.1912  0.4657 -0.2025
 4379TIP3    H134552   0.280   5.896  11.042 -1.2008  2.3193 -0.8270
 4379TIP3    H234553   0.150   5.868  11.114 -0.1045  0.9246  0.7041
 4380TIP3   OH234554   5.017   5.654   5.404 -0.1442  0.2224 -0.3109
 4380TIP3    H134555   5.013   5.731   5.348 -0.3694 -0.4301 -1.2238
 4380TIP3    H234556   5.108   5.650   5.434 -0.2451  1.0938  0.1200
 4381TIP3   OH234557   0.791   4.165  11.397  0.0744  0.1468 -0.3879
 4381TIP3    H134558   0.833   4.101  11.340  0.3990  0.8647 -0.9616
 4381TIP3    H234559   0.763   4.114  11.473  1.0422 -0.5328 -0.4710
 4382TIP3   OH234560   0.486   4.320  12.587 -0.2765  0.0483  0.2100
 4382TIP3    H134561   0.509   4.292  12.498  0.0481  2.7343 -0.6223
 4382TIP3    H234562   0.394   4.295  12.597 -0.4939  0.2417 -1.1247
 4383TIP3   OH234563   1.835   3.373   2.953 -0.0753 -0.3789  0.1131
 4383TIP3    H134564   1.847   3.468   2.955 -0.3610 -0.3352  2.0280
 4383TIP3    H234565   1.876   3.342   3.034 -3.4430 -1.4040  1.5987
 4384TIP3   OH234566   5.920   0.252   2.445  0.3548 -0.8812 -0.5647
 4384TIP3    H134567   5.873   0.277   2.524  0.7399  2.0724 -1.1494
 4384TIP3    H234568   5.872   0.294   2.374  2.6146  0.5160 -1.3878
 4385TIP3   OH234569   5.923   6.263  15.858  0.0067 -0.0094  0.1300
 4385TIP3    H134570   5.898   6.239  15.768  1.3336  0.5565 -0.4207
 4385TIP3    H234571   5.964   6.349  15.848 -0.0499  0.1616  1.3270
 4386TIP3   OH234572   4.849   2.725   2.220 -0.2138  0.0218 -0.0439
 4386TIP3    H134573   4.795   2.788   2.173 -1.7255 -2.0399 -1.2572
 4386TIP3    H234574   4.886   2.669   2.151  1.2667 -0.2947  0.9594
 4387TIP3   OH234575   4.716   5.312  11.676 -0.4908  0.3490  0.3239
 4387TIP3    H134576   4.788   5.342  11.731 -2.3672  2.7492  1.6883
 4387TIP3    H234577   4.675   5.242  11.727 -1.1369  1.3347  1.2004
 4388TIP3   OH234578   4.926   6.473  16.321 -0.2699  0.2518  0.2181
 4388TIP3    H134579   4.931   6.384  16.354  1.9192 -0.0005 -0.6624
 4388TIP3    H234580   4.834   6.484  16.297 -1.2325 -0.7051  3.0515
 4389TIP3   OH234581   4.287   1.373   6.058 -0.2631 -0.1731  0.2341
 4389TIP3    H134582   4.373   1.349   6.092  0.1151  2.7714  1.7154
 4389TIP3    H234583   4.305   1.420   5.977 -0.7728 -2.0830 -1.0612
 4390TIP3   OH234584   0.543   4.637   6.013 -0.8772  0.8077  0.2807
 4390TIP3    H134585   0.457   4.660   6.047 -1.4083  0.6122 -0.8730
 4390TIP3    H234586   0.525   4.576   5.941  0.2190  0.8421 -0.0496
 4391TIP3   OH234587   2.035   2.297   2.177 -0.2399  0.3901  0.0363
 4391TIP3    H134588   2.104   2.232   2.162 -2.3895 -1.6697 -1.5462
 4391TIP3    H234589   2.002   2.317   2.089 -1.3336  1.7140  0.7138
 4392TIP3   OH234590   3.833   6.176  12.580  0.3924  0.1302  0.2791
 4392TIP3    H134591   3.759   6.140  12.530  0.5093  0.7691 -0.3765
 4392TIP3    H234592   3.878   6.099  12.614 -0.6086 -0.2742  0.7449
 4393TIP3   OH234593   1.575   2.001   3.608  0.2044 -0.4964  0.0452
 4393TIP3    H134594   1.604   2.032   3.522  0.3863 -1.0194 -0.0897
 4393TIP3    H234595   1.575   2.079   3.664  2.1505 -0.5046  0.1197
 4394TIP3   OH234596   6.813   2.202   4.415  0.2530  0.7727 -0.6806
 4394TIP3    H134597   6.880   2.177   4.478  0.1281  1.3461 -0.3188
 4394TIP3    H234598   6.862   2.224   4.335  0.3882 -0.2823 -0.9137
 4395TIP3   OH234599   3.976   0.675   1.813  0.2255 -0.0522 -0.8397
 4395TIP3    H134600   4.063   0.683   1.852  0.0269  0.7623 -0.5580
 4395TIP3    H234601   3.985   0.713   1.725  0.2703 -0.4335 -1.0064
 4396TIP3   OH234602   4.993   5.260  14.796 -0.1337 -0.3684  0.4471
 4396TIP3    H134603   5.024   5.345  14.764 -1.0652  0.1723  0.9365
 4396TIP3    H234604   4.920   5.282  14.853 -0.5819 -1.5299  0.3314
 4397TIP3   OH234605   1.448   6.184   4.998 -0.0474  0.4270  0.3369
 4397TIP3    H134606   1.357   6.158   5.014 -0.5481  0.4589 -2.0607
 4397TIP3    H234607   1.449   6.279   5.009 -0.2426  0.4021  0.5733
 4398TIP3   OH234608   6.138   1.349  16.265 -0.1082 -0.1986  0.8861
 4398TIP3    H134609   6.085   1.300  16.328 -0.7801 -1.4773 -0.5822
 4398TIP3    H234610   6.198   1.283  16.228 -0.0259  0.3999 -0.1006
 4399TIP3   OH234611   2.815   6.503   2.359 -0.4754 -0.0923  0.0596
 4399TIP3    H134612   2.747   6.529   2.421  1.2069 -0.3143  2.1041
 4399TIP3    H234613   2.818   6.408   2.364  1.6982 -0.0275  2.0962
 4400TIP3   OH234614   5.269   2.609   3.500 -0.2010  0.1344 -0.8696
 4400TIP3    H134615   5.203   2.665   3.459  1.3483  1.3818 -1.7524
 4400TIP3    H234616   5.352   2.649   3.477  0.9566 -2.1007 -0.8267
 4401TIP3   OH234617   0.023   0.443  15.206 -0.5097 -0.0216 -0.5969
 4401TIP3    H134618   0.001   0.350  15.212 -2.2432  0.4261  0.8400
 4401TIP3    H234619  -0.031   0.475  15.133 -0.2532 -0.0396 -0.7979
 4402TIP3   OH234620   1.477   2.229   0.092  0.2320  0.1410  0.0492
 4402TIP3    H134621   1.521   2.274   0.164  0.0620 -1.1938  1.0396
 4402TIP3    H234622   1.386   2.221   0.121  0.5270 -2.0593  0.6057
 4403TIP3   OH234623   0.583   5.333   1.571  0.3288  0.1431 -0.1370
 4403TIP3    H134624   0.583   5.283   1.489 -0.3428  1.5070 -0.9957
 4403TIP3    H234625   0.675   5.333   1.598  0.3754 -1.4264 -0.1621
 4404TIP3   OH234626   6.481   0.607  10.663 -0.2226  0.1305 -0.3066
 4404TIP3    H134627   6.387   0.622  10.650 -0.3221 -0.4707 -0.2788
 4404TIP3    H234628   6.487   0.539  10.729  0.1814 -1.3124 -1.7574
 4405TIP3   OH234629   0.820   5.851   0.992  0.6207  0.3611 -0.5520
 4405TIP3    H134630   0.760   5.926   0.988  0.0326 -0.0363  0.4679
 4405TIP3    H234631   0.867   5.854   0.908  0.0244  1.3802 -0.8737
 4406TIP3   OH234632   2.598   6.507  15.674  0.0014 -0.0990  0.0357
 4406TIP3    H134633   2.577   6.448  15.746  0.3530 -0.7684 -0.3987
 4406TIP3    H234634   2.673   6.558  15.706  0.5681 -0.8373 -0.0736
 4407TIP3   OH234635   5.214   0.008   0.331 -0.3136 -0.4227 -0.5867
 4407TIP3    H134636   5.248  -0.081   0.333 -1.4797 -0.8971 -1.1559
 4407TIP3    H234637   5.244   0.043   0.247  1.5080  0.3151  0.3067
 4408TIP3   OH234638   4.944   1.397  12.845  0.6197 -0.2745  0.5075
 4408TIP3    H134639   4.963   1.389  12.938 -0.0132 -0.2254  0.6423
 4408TIP3    H234640   4.863   1.348  12.832 -0.6303  1.7137  0.4279
 4409TIP3   OH234641   4.494   1.835  16.928  0.0979 -0.1239 -0.4236
 4409TIP3    H134642   4.506   1.748  16.890 -1.5464  0.0365 -1.4259
 4409TIP3    H234643   4.503   1.822  17.022 -0.9870 -1.5772 -0.4808
 4410TIP3   OH234644   5.022   2.894   5.754 -0.1070 -0.7424  0.0147
 4410TIP3    H134645   5.103   2.930   5.790 -0.6566  0.9659 -0.3479
 4410TIP3    H234646   5.018   2.805   5.789  1.4448 -0.5542  0.7895
 4411TIP3   OH234647   6.239   1.563  12.507 -0.2904  0.3285  0.6208
 4411TIP3    H134648   6.323   1.518  12.515 -0.3883  0.4351  2.6259
 4411TIP3    H234649   6.260   1.656  12.513 -0.3184  0.5308 -1.4992
 4412TIP3   OH234650   6.518   5.543   3.646  0.2554  0.6422 -0.0924
 4412TIP3    H134651   6.455   5.565   3.578  0.8055  3.6775  0.2821
 4412TIP3    H234652   6.564   5.466   3.613 -3.1002 -1.3127 -0.6720
 4413TIP3   OH234653   4.291   0.057  12.755 -0.0853 -0.0442  0.3342
 4413TIP3    H134654   4.374   0.015  12.731  0.4086 -0.4034  2.4820
 4413TIP3    H234655   4.238   0.052  12.675  2.1941  0.9018 -1.3734
 4414TIP3   OH234656   0.201   2.218  12.695 -0.6733  0.1245 -0.0580
 4414TIP3    H134657   0.217   2.146  12.633  0.7984 -0.1035  0.5415
 4414TIP3    H234658   0.170   2.290  12.641  0.3492 -0.1504 -1.0387
 4415TIP3   OH234659   5.020   5.445  17.076  0.5875 -0.1689 -0.2744
 4415TIP3    H134660   4.987   5.482  17.158 -1.6285 -3.6264  0.5686
 4415TIP3    H234661   5.087   5.383  17.103 -1.1553 -2.3994 -0.8278
 4416TIP3   OH234662   1.552   5.979  15.535 -0.1998  0.5167 -0.3418
 4416TIP3    H134663   1.562   6.040  15.609  1.2929  0.6289 -0.6226
 4416TIP3    H234664   1.458   5.981  15.516 -0.5337  0.9071  1.1913
 4417TIP3   OH234665   4.517   6.479  13.692 -0.8348  0.2779 -0.0610
 4417TIP3    H134666   4.605   6.464  13.657 -0.0382 -1.5033  2.4662
 4417TIP3    H234667   4.481   6.549  13.637  1.2852 -0.4722 -2.5934
 4418TIP3   OH234668   5.962   4.443  13.277  0.1161 -0.1245  0.6789
 4418TIP3    H134669   5.907   4.501  13.225  0.1171 -0.5125  0.2436
 4418TIP3    H234670   6.005   4.386  13.214 -0.5736 -1.2006  1.1378
 4419TIP3   OH234671   1.325   3.683  13.855 -0.1554 -0.2926 -0.3233
 4419TIP3    H134672   1.244   3.659  13.899 -0.1411 -0.8466 -0.6012
 4419TIP3    H234673   1.343   3.611  13.795 -0.1183  0.3918 -1.1663
 4420TIP3   OH234674   2.218   2.498   0.681  0.2566  0.3883  0.0090
 4420TIP3    H134675   2.301   2.452   0.694  0.2095  0.6813  1.6065
 4420TIP3    H234676   2.157   2.430   0.652  1.0317  0.1698 -1.1748
 4421TIP3   OH234677   6.540   3.184   5.902 -0.0891 -0.8521 -0.1379
 4421TIP3    H134678   6.592   3.259   5.876 -0.2642 -0.7481 -0.1864
 4421TIP3    H234679   6.491   3.214   5.979 -3.0392  0.3215 -2.3075
 4422TIP3   OH234680   0.094   5.223   0.030 -0.2929 -0.0325  0.0170
 4422TIP3    H134681   0.089   5.214  -0.066 -0.8820  1.3505 -0.0977
 4422TIP3    H234682   0.163   5.161   0.056 -0.2072 -0.5145 -1.2835
 4423TIP3   OH234683   2.426   5.028   0.233  0.8266  0.1750 -0.4189
 4423TIP3    H134684   2.449   5.120   0.219  0.8093  0.0344 -1.5211
 4423TIP3    H234685   2.507   4.987   0.263  1.1943  0.3017 -1.2074
 4424TIP3   OH234686   2.635   4.711  14.443 -0.2173  0.0228  0.5372
 4424TIP3    H134687   2.603   4.777  14.505  1.2222  0.7526  0.5457
 4424TIP3    H234688   2.687   4.651  14.497 -0.0408 -0.0867  0.2476
 4425TIP3   OH234689   1.996   0.652   2.965 -0.2808 -0.2976 -0.1902
 4425TIP3    H134690   1.925   0.621   3.020 -0.5259  1.3490  0.4940
 4425TIP3    H234691   2.075   0.643   3.018 -0.2981 -0.1134 -0.1322
 4426TIP3   OH234692   3.570   4.266   5.456  0.3531  0.0079 -0.2503
 4426TIP3    H134693   3.659   4.293   5.479  0.1230 -0.4058  1.2468
 4426TIP3    H234694   3.581   4.192   5.398  0.9777  0.8131 -1.1895
 4427TIP3   OH234695   0.862   0.208   0.813  0.5510 -0.7041  0.0223
 4427TIP3    H134696   0.907   0.206   0.898 -0.6333 -0.0828  0.6783
 4427TIP3    H234697   0.769   0.207   0.834  0.2020 -2.8365 -1.3426
 4428TIP3   OH234698   4.408   1.149  15.755  0.4817  0.1739 -0.3816
 4428TIP3    H134699   4.437   1.058  15.759  0.1171  0.0307 -0.9189
 4428TIP3    H234700   4.429   1.176  15.666  2.0073  1.0965  0.2076
 4429TIP3   OH234701   6.679   2.086   1.436  0.2309 -0.0043  0.1369
 4429TIP3    H134702   6.753   2.104   1.378 -1.1274  0.4211 -1.5607
 4429TIP3    H234703   6.650   2.173   1.465  0.6509 -0.1937  1.1704
 4430TIP3   OH234704   3.672   4.578  11.854 -0.3434 -0.1336 -0.1218
 4430TIP3    H134705   3.739   4.516  11.826 -0.7661 -0.2333 -0.9187
 4430TIP3    H234706   3.675   4.648  11.790 -0.2866  0.3800  0.4334
 4431TIP3   OH234707   0.547   1.729  13.754 -0.0947 -0.3321  0.1493
 4431TIP3    H134708   0.521   1.806  13.704 -1.2380 -0.2327  0.8657
 4431TIP3    H234709   0.465   1.685  13.776  0.5647 -2.2161 -0.9239
 4432TIP3   OH234710   4.653   0.630   3.983 -0.2637  0.0377 -0.3472
 4432TIP3    H134711   4.746   0.636   4.005 -0.0797 -0.3813 -0.9727
 4432TIP3    H234712   4.652   0.618   3.888 -0.8576 -2.1467 -0.1197
 4433TIP3   OH234713   6.490   2.694  14.938  0.0653  0.2154  0.2997
 4433TIP3    H134714   6.501   2.647  14.856  1.1274 -2.6015  1.8888
 4433TIP3    H234715   6.454   2.629  14.998 -0.7766  2.1914  2.0746
 4434TIP3   OH234716   2.822   1.054  10.684 -0.1784  0.0610 -0.0099
 4434TIP3    H134717   2.889   1.121  10.699  0.0553  0.1740 -1.3640
 4434TIP3    H234718   2.871   0.975  10.660 -0.4636  0.5426 -2.5358
 4435TIP3   OH234719   1.873   6.609   1.487  0.3717  0.2155  0.2857
 4435TIP3    H134720   1.838   6.615   1.576  0.0031 -0.9695  0.2376
 4435TIP3    H234721   1.855   6.519   1.460  2.8359 -0.2789 -0.0063
 4436TIP3   OH234722   3.359   1.830   0.729  0.5645  0.2566  0.1076
 4436TIP3    H134723   3.379   1.814   0.821 -4.1323 -0.5076  1.2702
 4436TIP3    H234724   3.375   1.747   0.685 -0.9790 -0.6787  1.1985
 4437TIP3   OH234725   5.387   4.650  14.540 -0.1811 -0.4287 -0.2894
 4437TIP3    H134726   5.400   4.734  14.497 -1.1436 -1.2138 -2.2080
 4437TIP3    H234727   5.473   4.608  14.540 -0.0455 -0.1455 -0.8517
 4438TIP3   OH234728   0.812   2.516   1.863  0.4381  0.0513  0.3433
 4438TIP3    H134729   0.882   2.456   1.837 -0.0921 -0.2631 -0.3847
 4438TIP3    H234730   0.778   2.480   1.944  0.1335 -0.6403 -0.0791
 4439TIP3   OH234731   6.050   0.705  14.272 -0.2979  0.1635  0.3431
 4439TIP3    H134732   6.057   0.667  14.184  1.4191 -0.9976  0.9179
 4439TIP3    H234733   6.076   0.797  14.260 -0.2145  0.0578 -0.3849
 4440TIP3   OH234734   0.619   4.236  12.345  0.1625 -0.2262 -0.1273
 4440TIP3    H134735   0.681   4.264  12.278 -1.6405  0.4837 -1.5853
 4440TIP3    H234736   0.652   4.151  12.374  1.7858  0.1211 -0.8680
 4441TIP3   OH234737   2.175   5.267  11.277 -0.0440  0.0747 -0.9452
 4441TIP3    H134738   2.242   5.204  11.249 -1.0255 -0.7554 -1.5132
 4441TIP3    H234739   2.106   5.212  11.314  0.1459  1.0007  0.8862
 4442TIP3   OH234740   3.712   5.717  16.726  0.2572  0.1147 -0.7940
 4442TIP3    H134741   3.716   5.722  16.822  0.3523  1.6764 -0.8556
 4442TIP3    H234742   3.796   5.678  16.700  0.5120  0.3173 -0.2809
 4443TIP3   OH234743   5.883   2.696   1.178 -0.3056  0.0914 -0.0689
 4443TIP3    H134744   5.853   2.786   1.167  1.0363  0.5826  0.1616
 4443TIP3    H234745   5.821   2.644   1.126 -0.4366  1.2529 -1.1265
 4444TIP3   OH234746   3.884   4.202   3.204  0.2213  0.4467  0.0051
 4444TIP3    H134747   3.979   4.208   3.196  0.3530 -0.2674  0.8328
 4444TIP3    H234748   3.855   4.158   3.124  0.9486 -2.1607  1.0450
 4445TIP3   OH234749   0.877   5.152   4.379  0.2409  0.6743  0.0737
 4445TIP3    H134750   0.825   5.073   4.391  2.6798 -1.0526 -0.0374
 4445TIP3    H234751   0.822   5.209   4.325 -1.0348 -1.5480 -1.1126
 4446TIP3   OH234752   6.281   3.434  10.877 -0.0970  0.3137 -0.0351
 4446TIP3    H134753   6.351   3.386  10.921 -0.7611 -0.5757  0.0803
 4446TIP3    H234754   6.318   3.455  10.791  1.5757  2.9454  1.2185
 4447TIP3   OH234755   3.256   4.082   5.139 -0.2464  0.5485  0.1376
 4447TIP3    H134756   3.347   4.075   5.167  0.4166 -1.1716 -2.1254
 4447TIP3    H234757   3.211   4.009   5.180 -0.6835  1.4944  1.3879
 4448TIP3   OH234758   1.885   1.039  16.722 -0.3573  0.0229 -0.0984
 4448TIP3    H134759   1.817   1.078  16.667 -1.3121 -0.7186  0.5389
 4448TIP3    H234760   1.933   0.981  16.662 -0.6240  0.1358 -0.4291
 4449TIP3   OH234761   4.545   0.001  10.254  0.4440 -0.0828 -0.3405
 4449TIP3    H134762   4.621  -0.031  10.206  1.6233  1.5396  0.3418
 4449TIP3    H234763   4.582   0.056  10.323 -1.3166 -0.1447  0.7097
 4450TIP3   OH234764   3.263   3.108   4.882  0.3046 -0.3726 -0.3985
 4450TIP3    H134765   3.237   3.200   4.871 -1.4357 -0.7041  0.5969
 4450TIP3    H234766   3.181   3.061   4.894  1.2176 -1.9670 -0.1224
 4451TIP3   OH234767   4.707   3.392  16.468 -0.6376  0.3873  0.1334
 4451TIP3    H134768   4.695   3.486  16.454  0.7412  0.3343 -1.8248
 4451TIP3    H234769   4.787   3.386  16.520 -0.2101  0.2794 -0.5313
 4452TIP3   OH234770   5.756   6.761  12.485  0.3595 -0.1006 -0.6981
 4452TIP3    H134771   5.752   6.689  12.422 -0.8793 -0.4995 -0.1909
 4452TIP3    H234772   5.698   6.828  12.448  0.2329 -0.0276 -0.3658
 4453TIP3   OH234773   0.524   0.448   4.297  0.2712  0.2079 -0.2581
 4453TIP3    H134774   0.497   0.381   4.234  0.2395 -2.1775  2.0674
 4453TIP3    H234775   0.478   0.527   4.270 -0.4320 -0.9302 -2.6584
 4454TIP3   OH234776   4.564   6.498   0.389  0.2391  0.2258 -0.2671
 4454TIP3    H134777   4.539   6.407   0.401 -2.2618  0.7877 -0.5346
 4454TIP3    H234778   4.504   6.547   0.447 -1.4822  1.9315 -3.2230
 4455TIP3   OH234779   6.340   3.617   3.590  0.4140 -0.0147 -0.1034
 4455TIP3    H134780   6.409   3.572   3.542  0.9409 -0.0822  0.6949
 4455TIP3    H234781   6.376   3.704   3.608  0.1762  0.0505  0.0643
 4456TIP3   OH234782   2.556   0.776  12.696  0.4378  0.4455  0.1120
 4456TIP3    H134783   2.642   0.774  12.738  0.3921  0.1877  0.1994
 4456TIP3    H234784   2.494   0.761  12.767  0.3365  0.3770  0.0104
 4457TIP3   OH234785   0.887   3.727   2.337  0.1123 -0.6098  0.6421
 4457TIP3    H134786   0.890   3.633   2.352 -0.7300 -0.6464  0.6234
 4457TIP3    H234787   0.890   3.737   2.242 -0.6194 -0.6631  0.6077
 4458TIP3   OH234788   5.905   6.450   5.407 -0.9092  0.0045 -0.0324
 4458TIP3    H134789   5.980   6.470   5.351  0.8333 -1.0603  1.7918
 4458TIP3    H234790   5.912   6.355   5.422 -0.6523  0.4139  2.8358
 4459TIP3   OH234791   6.018   6.075  16.040 -0.2155  0.4628  0.3046
 4459TIP3    H134792   5.988   6.144  15.981 -0.4946  1.2565  1.3356
 4459TIP3    H234793   6.019   5.996  15.986  2.1179  1.6007 -1.4992
 4460TIP3   OH234794   0.612   5.401   4.943  0.1204 -0.3921 -0.1902
 4460TIP3    H134795   0.568   5.465   5.000  0.1503 -1.2728  0.8681
 4460TIP3    H234796   0.560   5.322   4.953  0.2764 -0.6319 -1.2278
 4461TIP3   OH234797   4.968   5.990   3.077  0.4254  0.3303 -0.6168
 4461TIP3    H134798   5.013   6.059   3.125 -1.0042  0.6070  0.3599
 4461TIP3    H234799   5.039   5.941   3.034  1.6359  0.9156  0.6420
 4462TIP3   OH234800   6.410   0.489   2.856 -0.2139  0.0222 -0.4243
 4462TIP3    H134801   6.440   0.572   2.819 -1.3476  0.3176 -0.7414
 4462TIP3    H234802   6.360   0.513   2.934  1.0242 -0.5106  0.5703
 4463TIP3   OH234803   5.486   2.422   0.129 -0.1515  0.7019 -0.2041
 4463TIP3    H134804   5.577   2.449   0.118  0.5982 -0.1848  2.8637
 4463TIP3    H234805   5.460   2.456   0.215 -2.4259  0.1543 -0.5969
 4464TIP3   OH234806   1.788   4.938  10.919  0.4575 -0.0677 -0.1215
 4464TIP3    H134807   1.853   4.902  10.980  0.2937  0.2610  0.2561
 4464TIP3    H234808   1.831   5.015  10.881  0.1179  0.4365  0.4956
 4465TIP3   OH234809   0.461   3.102   5.237  0.7372  0.4059 -0.0647
 4465TIP3    H134810   0.510   3.022   5.220  0.3859  0.4060 -1.1335
 4465TIP3    H234811   0.475   3.120   5.330  1.7594 -0.2531 -0.0839
 4466TIP3   OH234812   2.588   1.260  11.339 -0.7865 -0.1116  0.5581
 4466TIP3    H134813   2.567   1.319  11.267 -2.0116  1.1539  1.9029
 4466TIP3    H234814   2.571   1.172  11.303  0.5563  0.3190 -1.2952
 4467TIP3   OH234815   4.892   4.434   2.617  0.0302 -0.2483 -0.2710
 4467TIP3    H134816   4.928   4.382   2.689 -1.2244 -0.6570  0.0813
 4467TIP3    H234817   4.851   4.370   2.559  0.3806  0.1532 -0.9759
 4468TIP3   OH234818   0.097   4.510   2.165 -0.3187 -0.5353 -0.3567
 4468TIP3    H134819   0.122   4.470   2.082 -0.4864  0.6585 -1.0132
 4468TIP3    H234820   0.169   4.568   2.187 -0.9240  0.2866 -0.4632
 4469TIP3   OH234821   6.010   1.810   1.450 -0.6508 -0.3357 -0.9071
 4469TIP3    H134822   6.020   1.738   1.389  0.3722  1.4710 -3.0163
 4469TIP3    H234823   5.917   1.834   1.444 -0.6432 -0.4354 -1.4445
 4470TIP3   OH234824   2.240   1.514   3.126 -0.2764  0.0430 -0.6608
 4470TIP3    H134825   2.247   1.438   3.183 -1.4687  0.6887  0.4171
 4470TIP3    H234826   2.285   1.584   3.174 -1.3417  0.6094 -0.4466
 4471TIP3   OH234827   0.790   1.896   5.452 -0.3250  0.8232 -0.6031
 4471TIP3    H134828   0.786   1.858   5.541  0.8045 -0.3663 -1.0208
 4471TIP3    H234829   0.703   1.932   5.438 -1.0984 -0.5562  0.3305
 4472TIP3   OH234830   1.381   4.834   3.856  0.3434 -0.0614 -0.5737
 4472TIP3    H134831   1.415   4.811   3.770  1.7521 -1.8155  0.3721
 4472TIP3    H234832   1.316   4.767   3.875 -1.0869  1.1905 -0.8518
 4473TIP3   OH234833   6.215   1.901  13.109 -0.1658  0.3324 -0.2026
 4473TIP3    H134834   6.137   1.930  13.061  1.4412  2.3993 -1.7254
 4473TIP3    H234835   6.224   1.808  13.084 -1.6003  0.3056 -0.7266
 4474TIP3   OH234836   3.216   5.807  11.424  0.7556  0.6197  0.2187
 4474TIP3    H134837   3.135   5.841  11.463 -1.3542 -3.4136 -0.0610
 4474TIP3    H234838   3.220   5.847  11.337 -2.5839 -0.9239 -0.8336
 4475TIP3   OH234839   1.991   2.815  13.079  0.4236  0.8362  0.2429
 4475TIP3    H134840   2.004   2.909  13.074  0.0209  0.8266 -2.1134
 4475TIP3    H234841   2.044   2.787  13.153  1.0341  2.8200  0.6043
 4476TIP3   OH234842   2.440   0.211  14.405 -0.0558  0.8183  0.4884
 4476TIP3    H134843   2.359   0.162  14.399  0.0453  0.8431 -2.0017
 4476TIP3    H234844   2.462   0.234  14.314  2.3048  1.5050  1.1451
 4477TIP3   OH234845   2.612   1.322  12.431 -0.0980  0.2758 -0.2554
 4477TIP3    H134846   2.595   1.332  12.337 -0.8983  1.3766 -0.0077
 4477TIP3    H234847   2.673   1.393  12.452  1.1025 -0.7373 -0.1711
 4478TIP3   OH234848   6.621   6.372  15.247 -0.1023  0.1674 -0.5608
 4478TIP3    H134849   6.651   6.360  15.337  0.2776  0.5532 -0.6340
 4478TIP3    H234850   6.525   6.373  15.254 -0.0840 -0.2175 -0.2152
 4479TIP3   OH234851   2.595   1.057   0.556 -0.4658 -0.6674 -0.0142
 4479TIP3    H134852   2.589   1.148   0.588  0.4589 -0.7987  0.5835
 4479TIP3    H234853   2.596   1.004   0.636  0.9008 -1.0743 -0.2861
 4480TIP3   OH234854   3.800   6.297  13.178 -0.1911 -0.1936  0.3707
 4480TIP3    H134855   3.741   6.267  13.247 -1.6994 -2.2750 -1.7090
 4480TIP3    H234856   3.794   6.231  13.110  2.3407  1.0436 -1.2057
 4481TIP3   OH234857   6.002   1.111  12.696  0.0433 -0.4815  0.7585
 4481TIP3    H134858   6.014   1.203  12.671 -0.7282 -0.6017 -0.1045
 4481TIP3    H234859   6.002   1.112  12.791  0.5423  0.3483  0.7596
 4482TIP3   OH234860   5.615   2.800   0.881  0.5090  0.4618  0.1159
 4482TIP3    H134861   5.579   2.829   0.798  0.8208 -1.0752 -0.5917
 4482TIP3    H234862   5.710   2.799   0.867  0.6183  0.8986  0.7457
 4483TIP3   OH234863   5.325   2.447  16.077  0.2325 -0.1150  0.3449
 4483TIP3    H134864   5.390   2.489  16.021 -0.3999 -0.0248 -0.3352
 4483TIP3    H234865   5.360   2.359  16.092 -1.2213 -1.4674 -3.1873
 4484TIP3   OH234866   2.858   0.551  15.555 -0.0478 -0.2640 -0.2855
 4484TIP3    H134867   2.947   0.516  15.549  0.0357 -0.4075  1.4403
 4484TIP3    H234868   2.802   0.474  15.565 -0.6653 -0.3510 -3.2703
 4485TIP3   OH234869   2.043   2.087   0.286  1.1456  0.7542 -0.5796
 4485TIP3    H134870   2.069   2.000   0.254  0.8387  0.5602 -0.3088
 4485TIP3    H234871   2.125   2.127   0.314  1.3585  0.7467 -1.1704
 4486TIP3   OH234872   0.839   0.629   1.425  0.2020  0.2257  0.0624
 4486TIP3    H134873   0.830   0.634   1.520 -2.7648  0.4807 -0.1432
 4486TIP3    H234874   0.866   0.538   1.408  0.1959  0.0181  1.1140
 4487TIP3   OH234875   0.072   5.705  15.673 -0.7059 -0.0717  0.1122
 4487TIP3    H134876   0.115   5.771  15.728 -1.6013  0.7494 -0.1422
 4487TIP3    H234877   0.109   5.622  15.702 -0.2548  0.4515  1.1007
 4488TIP3   OH234878   1.598   4.118  11.768  0.2168 -0.3828  0.2354
 4488TIP3    H134879   1.624   4.042  11.820 -1.3379 -1.2005 -0.1050
 4488TIP3    H234880   1.679   4.149  11.728  0.7890 -2.3649 -0.2460
 4489TIP3   OH234881   1.970   3.966  16.444  0.0303 -0.4859 -0.3659
 4489TIP3    H134882   1.966   3.923  16.359 -1.0138 -1.9442  0.3688
 4489TIP3    H234883   1.892   4.022  16.446 -0.6020 -1.3608  0.0665
 4490TIP3   OH234884   4.537   2.050   3.252  0.0581 -0.1316  0.3175
 4490TIP3    H134885   4.495   2.021   3.172  0.6491 -1.0253  0.3179
 4490TIP3    H234886   4.547   1.971   3.305  0.8905  0.2060  0.6951
 4491TIP3   OH234887   6.177   6.402   0.254 -0.5957 -0.1594  0.4544
 4491TIP3    H134888   6.238   6.468   0.223 -0.2856 -0.7879 -0.3008
 4491TIP3    H234889   6.113   6.451   0.306 -1.0949  0.9315 -1.1101
 4492TIP3   OH234890   6.171   2.169  15.245 -0.6531  0.0443  0.2458
 4492TIP3    H134891   6.259   2.197  15.217 -1.0957 -0.4108 -1.7978
 4492TIP3    H234892   6.112   2.223  15.192 -1.5512 -1.4233 -0.3070
 4493TIP3   OH234893   2.960   1.891  12.305 -0.4761 -0.0741  0.1235
 4493TIP3    H134894   2.944   1.872  12.397 -0.4716 -2.6863 -0.3433
 4493TIP3    H234895   2.958   1.806  12.262  3.6157  0.4849 -1.6920
 4494TIP3   OH234896   2.303   3.321   1.379 -0.1258  0.0883 -0.0629
 4494TIP3    H134897   2.377   3.294   1.433  0.6900 -2.1203 -2.0889
 4494TIP3    H234898   2.248   3.371   1.438  1.2271 -1.2017  2.5002
 4495TIP3   OH234899   0.935   5.756  12.799  0.0435 -0.1412 -0.0900
 4495TIP3    H134900   0.936   5.851  12.789 -1.8437 -0.3192 -3.3418
 4495TIP3    H234901   0.968   5.722  12.716 -1.8630 -2.2757 -0.0786
 4496TIP3   OH234902   5.277   1.995   0.246  0.2656 -0.5333 -0.1149
 4496TIP3    H134903   5.369   1.985   0.220 -0.1371  1.1335 -2.5112
 4496TIP3    H234904   5.228   1.980   0.165 -1.4240  0.5830  0.6626
 4497TIP3   OH234905   1.297   4.756   4.611  0.1024  0.4550  0.3485
 4497TIP3    H134906   1.345   4.764   4.528  0.8961 -0.6655  0.6793
 4497TIP3    H234907   1.276   4.846   4.635  0.3410  0.8335 -0.7910
 4498TIP3   OH234908   0.361   2.786   5.884 -0.7725 -0.1798 -0.1038
 4498TIP3    H134909   0.337   2.843   5.811 -0.9865  2.0981  1.6292
 4498TIP3    H234910   0.278   2.770   5.930 -0.2962  0.6623  1.1124
 4499TIP3   OH234911   5.225   5.518   1.825 -0.1851 -0.4321 -0.2080
 4499TIP3    H134912   5.191   5.468   1.750 -2.7349 -0.7263  1.0713
 4499TIP3    H234913   5.227   5.609   1.794 -1.1827 -0.5505 -0.6416
 4500TIP3   OH234914   3.350   2.796  13.703  0.5939 -0.1291  0.1421
 4500TIP3    H134915   3.429   2.806  13.756  1.1776 -0.3753 -0.6596
 4500TIP3    H234916   3.369   2.721  13.646 -0.3100 -0.3408  0.1043
 4501TIP3   OH234917   4.410   5.467  16.407  0.2445  0.0200 -0.3616
 4501TIP3    H134918   4.350   5.393  16.415 -1.1475  1.3006  2.2398
 4501TIP3    H234919   4.353   5.544  16.409  1.8671  1.2603  0.9148
 4502TIP3   OH234920   5.628   0.444  14.840 -0.0647  0.3280 -0.4507
 4502TIP3    H134921   5.701   0.387  14.863 -1.8830 -1.6696  0.7407
 4502TIP3    H234922   5.563   0.429  14.909 -1.8151  1.5966 -1.7361
 4503TIP3   OH234923   1.159   4.299   0.876  0.0806  0.0554 -0.1131
 4503TIP3    H134924   1.196   4.382   0.905  1.8246 -1.0052  0.8724
 4503TIP3    H234925   1.164   4.303   0.780  1.9481  0.3552 -0.0460
 4504TIP3   OH234926   2.772   5.791   5.777 -0.1325  0.0215  0.3095
 4504TIP3    H134927   2.721   5.870   5.758  0.1819 -0.1020 -1.1755
 4504TIP3    H234928   2.821   5.812   5.856  0.5658  1.6128 -0.5181
 4505TIP3   OH234929   5.598   2.975  15.579 -0.1482 -0.3091 -0.5346
 4505TIP3    H134930   5.668   3.034  15.608 -0.5482  0.4952 -1.1460
 4505TIP3    H234931   5.576   3.007  15.491 -0.0271 -1.6989 -1.0828
 4506TIP3   OH234932   2.106   0.860   4.422  0.0628  0.5507 -0.2144
 4506TIP3    H134933   2.040   0.902   4.367  0.9024  2.3701  0.0946
 4506TIP3    H234934   2.161   0.811   4.361 -0.1043  1.0556 -0.7845
 4507TIP3   OH234935   0.953   6.800   4.158 -0.4154  0.5332 -0.4721
 4507TIP3    H134936   0.975   6.707   4.163  1.4201  0.9976  2.0414
 4507TIP3    H234937   1.000   6.833   4.081  1.6504 -0.0277  0.4923
 4508TIP3   OH234938   6.513   4.250   1.555 -0.0387  0.3607  0.4325
 4508TIP3    H134939   6.506   4.265   1.649  0.0016  1.8270  0.2115
 4508TIP3    H234940   6.422   4.241   1.526 -0.2030  2.3814  0.2405
 4509TIP3   OH234941   1.375   3.827  15.935  0.1249  0.3970  0.1708
 4509TIP3    H134942   1.444   3.833  16.001  1.2431 -0.9897 -0.8022
 4509TIP3    H234943   1.416   3.781  15.862 -2.0303 -1.1278 -0.1692
 4510TIP3   OH234944   0.870   1.850   4.057 -0.1100 -0.4052  0.4875
 4510TIP3    H134945   0.885   1.943   4.037 -0.2888 -0.5405 -0.2907
 4510TIP3    H234946   0.951   1.807   4.031 -0.2127 -0.5394  0.3951
 4511TIP3   OH234947   6.437   3.459   1.856  0.1194  0.1376  0.0466
 4511TIP3    H134948   6.373   3.392   1.830  0.5754  0.2825 -1.5547
 4511TIP3    H234949   6.499   3.413   1.912 -0.0377 -0.5848 -0.3620
 4512TIP3   OH234950   4.825   5.284   5.016  0.3416  0.0514 -0.7662
 4512TIP3    H134951   4.776   5.359   4.982  1.1803  1.3175  0.7137
 4512TIP3    H234952   4.885   5.260   4.945 -0.3668  0.3534 -1.4893
 4513TIP3   OH234953   2.374   6.293   3.899 -0.3388 -0.0250  0.5502
 4513TIP3    H134954   2.430   6.366   3.926 -1.1047  1.0535 -0.6540
 4513TIP3    H234955   2.435   6.224   3.872  0.4066 -0.1162  2.3543
 4514TIP3   OH234956   2.384   4.094   2.868  0.6807 -0.1119 -0.1530
 4514TIP3    H134957   2.416   4.008   2.844  4.2758  0.9442  0.2912
 4514TIP3    H234958   2.404   4.150   2.793 -3.4976  0.1674 -1.3514
 4515TIP3   OH234959   3.367   6.258  13.282  0.0780  0.0929  0.5257
 4515TIP3    H134960   3.304   6.199  13.324 -0.2487 -0.3445 -0.5221
 4515TIP3    H234961   3.378   6.221  13.194  1.3051  0.5494  0.4752
 4516TIP3   OH234962   3.129   4.382  11.638  0.5805  0.4012 -0.7212
 4516TIP3    H134963   3.182   4.323  11.693  1.2482  0.4402 -1.2979
 4516TIP3    H234964   3.194   4.433  11.590  0.0641 -0.6363 -2.6340
 4517TIP3   OH234965   1.236   6.555  14.325  0.8601  0.3121 -1.0957
 4517TIP3    H134966   1.224   6.462  14.307  1.4603  0.0252 -0.0714
 4517TIP3    H234967   1.223   6.564  14.419 -0.8203  1.5442 -1.3983
 4518TIP3   OH234968   3.969   4.205  16.332  0.8699 -0.1599  0.3496
 4518TIP3    H134969   3.939   4.186  16.243 -1.6338  1.1829  0.8273
 4518TIP3    H234970   3.910   4.154  16.388  1.1537  0.5299  1.2817
 4519TIP3   OH234971   4.274   5.177  16.693  0.0117  0.1593  0.0636
 4519TIP3    H134972   4.359   5.214  16.717  0.5207  0.7122 -2.3229
 4519TIP3    H234973   4.212   5.216  16.754  1.2353  1.0904  0.7484
 4520TIP3   OH234974   1.411   1.267  14.210 -0.3415 -0.1448  0.0482
 4520TIP3    H134975   1.361   1.204  14.262 -0.7177 -0.5710 -0.8219
 4520TIP3    H234976   1.451   1.215  14.140  2.7892 -0.1704  1.6458
 4521TIP3   OH234977   2.089   0.871  14.769  0.4535 -0.3745 -0.5859
 4521TIP3    H134978   2.091   0.809  14.696 -0.6912 -0.8578 -0.2253
 4521TIP3    H234979   2.062   0.818  14.844 -0.4547  0.5411 -0.2492
 4522TIP3   OH234980   1.898   3.322  13.744 -0.0995 -0.0004 -0.1923
 4522TIP3    H134981   1.885   3.259  13.816 -1.1754  1.8995  1.3759
 4522TIP3    H234982   1.993   3.327  13.734  0.0533 -0.7134  0.7266
 4523TIP3   OH234983   3.423   5.427  13.986  0.2024  0.2111 -0.7946
 4523TIP3    H134984   3.374   5.482  14.046  0.8266  0.4794 -0.5162
 4523TIP3    H234985   3.441   5.484  13.911 -0.4055 -0.0619 -1.1505
 4524TIP3   OH234986   5.835   5.316   5.182 -0.2756 -0.3239 -0.3103
 4524TIP3    H134987   5.810   5.358   5.265  0.2406  0.5436 -0.5807
 4524TIP3    H234988   5.778   5.356   5.117 -0.3084 -0.6155 -0.4647
 4525TIP3   OH234989   2.993   2.541   4.892 -0.1378 -0.2785 -0.0849
 4525TIP3    H134990   3.056   2.478   4.927  0.3312  0.6777  0.8291
 4525TIP3    H234991   3.040   2.624   4.891 -1.0459  0.2439 -0.4146
 4526TIP3   OH234992   0.486   0.537   2.389  0.2075  0.0667  0.5138
 4526TIP3    H134993   0.511   0.457   2.345 -0.1267  0.5901 -0.6640
 4526TIP3    H234994   0.562   0.560   2.442  0.1401 -1.2503  1.2223
 4527TIP3   OH234995   2.841   5.799  16.622 -0.2004 -0.3878 -0.2444
 4527TIP3    H134996   2.877   5.883  16.595  0.3858 -0.5290  0.0724
 4527TIP3    H234997   2.759   5.791  16.574  0.0469  0.0778 -0.7513
 4528TIP3   OH234998   3.881   5.960   1.999 -0.1103  0.3361  0.2531
 4528TIP3    H134999   3.881   5.865   2.013 -1.1410  0.2352 -0.3061
 4528TIP3    H235000   3.794   5.988   2.027  1.0980  1.5797  3.1844
 4529TIP3   OH235001   4.977   0.140  13.878  0.1696 -0.3473  0.2993
 4529TIP3    H135002   5.002   0.198  13.950 -4.6539  0.7089  1.5190
 4529TIP3    H235003   4.971   0.199  13.802 -2.2966  0.3783  0.9704
 4530TIP3   OH235004   0.443   6.018   5.041  0.4304  0.1327 -0.3520
 4530TIP3    H135005   0.472   6.105   5.068  1.1151  0.1151 -0.9961
 4530TIP3    H235006   0.348   6.019   5.053  0.2377  1.4508 -1.6496
 4531TIP3   OH235007   4.700   1.510  14.073  0.0613 -0.1817  0.5186
 4531TIP3    H135008   4.622   1.454  14.076  0.4377 -0.6943  1.0687
 4531TIP3    H235009   4.689   1.569  14.147 -0.2734  0.3978  0.0130
 4532TIP3   OH235010   5.681   0.461   5.859  0.0240  0.2637  0.3356
 4532TIP3    H135011   5.750   0.526   5.874 -0.6606  1.4185 -1.3387
 4532TIP3    H235012   5.608   0.510   5.823 -0.7703 -1.3453 -0.3642
 4533TIP3   OH235013   1.008   3.611   0.540  0.0263 -0.0505 -0.3802
 4533TIP3    H135014   1.070   3.679   0.569 -1.3287  1.2592 -0.3949
 4533TIP3    H235015   1.062   3.543   0.502  1.4609  1.0362 -0.3548
 4534TIP3   OH235016   2.508   5.066   4.806  0.4817 -0.0600  0.0088
 4534TIP3    H135017   2.426   5.026   4.779 -0.0472 -0.4399  2.0172
 4534TIP3    H235018   2.530   5.024   4.889  1.3342  1.8482  0.8293
 4535TIP3   OH235019   5.933   1.223  15.033  0.0482  0.1502  0.2001
 4535TIP3    H135020   5.840   1.243  15.028 -0.1366 -0.8760 -0.8216
 4535TIP3    H235021   5.941   1.164  15.108 -0.3349 -0.8068 -0.5008
 4536TIP3   OH235022   2.249   0.308   4.220  0.8430  0.0738  0.0857
 4536TIP3    H135023   2.330   0.265   4.249  0.4311 -0.3074  0.6988
 4536TIP3    H235024   2.222   0.361   4.295  0.6071  0.3224 -0.1745
 4537TIP3   OH235025   3.444   5.309  16.329 -0.3988 -0.5517  1.1085
 4537TIP3    H135026   3.435   5.357  16.247 -1.1925 -1.7341  0.4606
 4537TIP3    H235027   3.433   5.375  16.397  1.4013  0.6595  0.3057
 4538TIP3   OH235028   1.196   3.824  14.842  0.3942  0.0690 -0.1799
 4538TIP3    H135029   1.196   3.854  14.934  0.6324 -1.1312  0.2275
 4538TIP3    H235030   1.113   3.855  14.807 -1.4473 -2.5401  1.5270
 4539TIP3   OH235031   2.807   4.840   3.620 -0.3120  0.4472 -0.5392
 4539TIP3    H135032   2.818   4.867   3.711  1.5775  1.2164 -0.9348
 4539TIP3    H235033   2.895   4.849   3.582 -0.9744 -0.2292 -2.3342
 4540TIP3   OH235034   4.029   6.723   2.973 -0.3325  0.0620 -0.4571
 4540TIP3    H135035   4.037   6.763   3.060  0.2264 -1.8499  0.4370
 4540TIP3    H235036   3.960   6.774   2.930  1.1883  2.7567  0.0615
 4541TIP3   OH235037   4.868   1.131  11.044  0.3996 -0.1330 -0.3947
 4541TIP3    H135038   4.939   1.196  11.053  0.5457 -0.3699  0.2079
 4541TIP3    H235039   4.854   1.099  11.133 -2.2524  1.7792 -0.0239
 4542TIP3   OH235040   0.208   3.784   2.293 -0.1283  0.6099  0.1685
 4542TIP3    H135041   0.147   3.842   2.248 -0.8000 -0.0394  0.2207
 4542TIP3    H235042   0.155   3.709   2.318  0.3481  0.7065  1.5571
 4543TIP3   OH235043   5.843   5.883   6.049 -0.0873  0.0910  0.1017
 4543TIP3    H135044   5.811   5.801   6.088 -0.8125  0.4309  0.2311
 4543TIP3    H235045   5.764   5.926   6.015  0.5032 -0.1253 -1.6484
 4544TIP3   OH235046   4.715   0.892   2.250  0.3725 -0.0009  0.1718
 4544TIP3    H135047   4.679   0.857   2.168 -2.3436 -1.3379  1.7783
 4544TIP3    H235048   4.723   0.986   2.235 -2.3537  0.1427 -0.9275
 4545TIP3   OH235049   6.748   4.665  13.232 -0.2211  0.0194 -0.0114
 4545TIP3    H135050   6.734   4.758  13.213  0.7366 -0.2328 -2.2428
 4545TIP3    H235051   6.819   4.639  13.173 -2.0554 -2.6840 -1.2011
 4546TIP3   OH235052   3.911   6.700  13.309  0.6113 -0.2982 -0.8726
 4546TIP3    H135053   3.976   6.632  13.326  0.2572 -0.3484  0.3672
 4546TIP3    H235054   3.834   6.652  13.278  1.2322 -0.2126 -2.6683
 4547TIP3   OH235055   4.900   2.082   1.557  0.4801 -0.5982  0.1460
 4547TIP3    H135056   4.838   2.148   1.524  1.6516  0.8075  0.6331
 4547TIP3    H235057   4.905   2.098   1.651 -0.3782 -2.4485  0.5542
 4548TIP3   OH235058   0.052   2.879   1.786 -0.2451  0.5424  0.2885
 4548TIP3    H135059   0.070   2.826   1.708 -1.6061 -0.1945  0.4468
 4548TIP3    H235060   0.127   2.937   1.793  0.1818  0.2215 -1.2388
 4549TIP3   OH235061   1.211   2.164   0.175  0.0247 -0.5044  0.0645
 4549TIP3    H135062   1.167   2.234   0.224 -0.6151 -0.1899 -0.9291
 4549TIP3    H235063   1.157   2.087   0.190  0.8391 -0.8613  1.3232
 4550TIP3   OH235064   3.364   6.518   2.669 -0.3658 -0.3605  0.0127
 4550TIP3    H135065   3.291   6.488   2.615  0.2925 -0.0148 -1.1178
 4550TIP3    H235066   3.376   6.609   2.644  0.5970 -0.4775 -0.0045
 4551TIP3   OH235067   4.721   3.986   0.628  0.1235  0.2304 -0.0688
 4551TIP3    H135068   4.723   4.077   0.597 -0.8119 -0.4603 -2.4181
 4551TIP3    H235069   4.796   3.945   0.585 -0.8569 -0.6249 -1.0308
 4552TIP3   OH235070   6.043   1.537  14.351  0.0928 -0.3488  0.5185
 4552TIP3    H135071   5.950   1.515  14.348 -0.6090  2.3729 -0.8290
 4552TIP3    H235072   6.059   1.559  14.443 -1.1580  1.1317  0.4224
 4553TIP3   OH235073   5.900   5.897  12.132  0.1018 -0.0292  0.0169
 4553TIP3    H135074   5.931   5.984  12.109  1.3678 -0.1882  0.9798
 4553TIP3    H235075   5.805   5.906  12.138  0.0282  0.8010 -1.7680
 4554TIP3   OH235076   0.361   4.949  10.916  0.0007 -0.5194  0.1998
 4554TIP3    H135077   0.394   4.933  10.827  1.3337  2.9363 -0.0960
 4554TIP3    H235078   0.267   4.956  10.905  0.2516  1.7562 -1.4773
 4555TIP3   OH235079   3.845   0.821  14.546 -0.1532  0.0242  0.3688
 4555TIP3    H135080   3.761   0.842  14.505  0.9777  0.8852 -1.6459
 4555TIP3    H235081   3.906   0.885  14.510  1.7333 -1.6203  0.4758
 4556TIP3   OH235082   4.641   1.659  14.926 -0.1451 -0.1793 -0.1735
 4556TIP3    H135083   4.610   1.570  14.939 -0.0151 -0.1988  0.0089
 4556TIP3    H235084   4.736   1.650  14.917  0.3085  0.2536  3.0958
 4557TIP3   OH235085   3.959   5.222   5.902  0.1007 -0.2690  0.6937
 4557TIP3    H135086   3.909   5.232   5.983  0.3873  1.4117  0.7088
 4557TIP3    H235087   3.895   5.193   5.837 -0.5646  0.2901  1.0844
 4558TIP3   OH235088   3.996   6.807   5.704  0.7131 -0.2059 -0.2508
 4558TIP3    H135089   3.948   6.828   5.623  1.0050  0.5012 -0.2513
 4558TIP3    H235090   3.928   6.781   5.765  0.6338 -2.5129 -1.2287
 4559TIP3   OH235091   5.450   6.546   1.381  0.1651  0.6362  0.0562
 4559TIP3    H135092   5.493   6.500   1.453 -1.8821 -0.7592  0.4816
 4559TIP3    H235093   5.499   6.519   1.303  0.0174 -1.0509  0.4978
 4560TIP3   OH235094   2.752   4.637  15.278 -0.2958 -0.4235  0.0175
 4560TIP3    H135095   2.774   4.722  15.239 -2.8948  0.1170 -0.4679
 4560TIP3    H235096   2.669   4.652  15.323  0.6101 -2.0390  2.4740
 4561TIP3   OH235097   1.189   6.619   1.212 -0.2092 -0.4707 -0.3012
 4561TIP3    H135098   1.252   6.688   1.229 -0.2974 -0.4646 -0.0052
 4561TIP3    H235099   1.229   6.568   1.141  0.5915 -1.0414  0.5266
 4562TIP3   OH235100   5.149   2.925  15.612  0.4910  0.3933  0.5149
 4562TIP3    H135101   5.191   2.912  15.697  2.3396  1.3641 -0.2079
 4562TIP3    H235102   5.201   2.873  15.551 -1.1085 -0.6849  0.0032
 4563TIP3   OH235103   3.024   6.010  13.701  0.3740  0.2520  0.6635
 4563TIP3    H135104   3.090   6.001  13.632  1.6137  0.2067  1.8240
 4563TIP3    H235105   2.984   5.923  13.707  0.5072  0.1584  0.2709
 4564TIP3   OH235106   1.962   1.053   3.528 -0.3377  0.3691  0.1682
 4564TIP3    H135107   2.011   0.971   3.536 -1.4332 -0.5863 -1.9749
 4564TIP3    H235108   2.026   1.121   3.548  0.9559 -0.9496  0.7248
 4565TIP3   OH235109   4.627   1.737   3.947  0.1964  0.4828  0.0840
 4565TIP3    H135110   4.569   1.796   3.995 -0.8412 -0.6394  0.2731
 4565TIP3    H235111   4.716   1.768   3.966 -0.2614  0.9744  1.5118
 4566TIP3   OH235112   6.642   2.131  15.286  0.4444  0.7616  0.1647
 4566TIP3    H135113   6.571   2.178  15.242  1.2091  1.3907 -0.4288
 4566TIP3    H235114   6.642   2.045  15.244  0.4891  1.0029 -0.3393
 4567TIP3   OH235115   5.953   2.311   0.274 -0.0506 -0.1071  0.3693
 4567TIP3    H135116   5.915   2.261   0.201  2.3333 -0.3934 -0.7765
 4567TIP3    H235117   6.047   2.303   0.261  0.4520  0.3149  3.2067
 4568TIP3   OH235118   4.774   3.608   0.058  0.2132 -0.3626  0.2396
 4568TIP3    H135119   4.804   3.563  -0.021 -0.5771  0.3097 -0.4624
 4568TIP3    H235120   4.700   3.662   0.029 -0.9713 -1.1239  1.6918
 4569TIP3   OH235121   4.520   1.151  14.645  0.1927 -0.0301 -0.0207
 4569TIP3    H135122   4.577   1.225  14.663 -0.5571  0.5384  0.0671
 4569TIP3    H235123   4.434   1.190  14.629 -0.2805 -0.8899  0.3217
 4570TIP3   OH235124   0.163   4.940  12.307 -0.2744 -0.1131 -0.1460
 4570TIP3    H135125   0.193   4.947  12.397  2.8680 -2.7657 -0.8190
 4570TIP3    H235126   0.112   4.859  12.304 -2.3514  1.1201 -0.3816
 4571TIP3   OH235127   4.671   5.121   3.868  0.2360 -0.0925  0.1204
 4571TIP3    H135128   4.698   5.058   3.802  0.9861 -0.6814  0.9639
 4571TIP3    H235129   4.709   5.088   3.950 -2.0024 -0.3136  1.1641
 4572TIP3   OH235130   1.718   6.243  16.198 -0.3403  0.0451  0.2711
 4572TIP3    H135131   1.743   6.162  16.153 -2.5470 -0.4937 -0.0812
 4572TIP3    H235132   1.658   6.214  16.267  0.7465  1.1685  1.7489
 4573TIP3   OH235133   0.606   6.637  13.381  0.0160  0.2845 -0.1328
 4573TIP3    H135134   0.572   6.659  13.295 -1.2696 -1.5757 -0.1507
 4573TIP3    H235135   0.532   6.648  13.440  0.2801 -0.5805  0.3771
 4574TIP3   OH235136   0.945   0.886  12.405  0.0999  0.7266  0.1511
 4574TIP3    H135137   1.028   0.916  12.441 -0.5485 -0.9659  3.4809
 4574TIP3    H235138   0.968   0.844  12.323  2.0513  2.8742 -0.4974
 4575TIP3   OH235139   1.374   4.751   0.401 -0.0100  0.7238  0.7498
 4575TIP3    H135140   1.298   4.746   0.460  1.6344  0.4733  2.9965
 4575TIP3    H235141   1.388   4.661   0.372  0.7981  0.3410  2.2445
 4576TIP3   OH235142   6.367   1.266  13.235 -0.0767  0.1280  0.2703
 4576TIP3    H135143   6.369   1.288  13.328  1.6737 -0.6814  0.4698
 4576TIP3    H235144   6.294   1.204  13.227  0.4395 -0.6627  1.3473
 4577TIP3   OH235145   5.109   6.187   4.730  0.0967  0.6397  0.5723
 4577TIP3    H135146   5.171   6.256   4.753  1.1319 -0.0142 -0.1588
 4577TIP3    H235147   5.158   6.105   4.742  0.0956  0.1816 -1.9798
 4578TIP3   OH235148   2.329   6.521  16.136 -0.0615  0.4347 -0.4985
 4578TIP3    H135149   2.420   6.523  16.107  0.7796 -2.4761  1.4418
 4578TIP3    H235150   2.331   6.557  16.225 -0.2366 -1.7764  0.4912
 4579TIP3   OH235151   0.569   5.659  14.784  0.0453 -0.3881 -0.1093
 4579TIP3    H135152   0.605   5.626  14.866 -0.0797  1.1156  0.5845
 4579TIP3    H235153   0.476   5.638  14.789 -0.0860  0.2713  0.4578
 4580TIP3   OH235154   6.687   2.840  12.267  0.1500 -0.6425 -0.0515
 4580TIP3    H135155   6.770   2.799  12.241 -0.6439 -1.0891 -2.1136
 4580TIP3    H235156   6.696   2.931  12.241 -0.6827 -1.1109 -2.2005
 4581TIP3   OH235157   4.010   6.036  13.194  0.0451  0.1657  0.0833
 4581TIP3    H135158   4.092   5.987  13.187  0.1914  0.2352  1.1275
 4581TIP3    H235159   4.038   6.128  13.196  0.0043  0.1686  1.0535
 4582TIP3   OH235160   0.289   2.104  10.942  0.1413 -0.2348  0.0514
 4582TIP3    H135161   0.264   2.183  10.991 -0.6112 -0.5101  0.1242
 4582TIP3    H235162   0.248   2.115  10.856 -0.2610 -0.7093  0.1791
 4583TIP3   OH235163   3.810   5.539   5.925  0.1748  0.1378 -0.1273
 4583TIP3    H135164   3.789   5.620   5.877  1.0403  0.5874  0.2347
 4583TIP3    H235165   3.897   5.554   5.961  0.2727 -0.8961  0.1024
 4584TIP3   OH235166   2.360   6.754  12.018  0.1108 -0.0435  0.2639
 4584TIP3    H135167   2.420   6.722  12.085 -1.6090 -0.0205  1.9173
 4584TIP3    H235168   2.357   6.849  12.033 -2.7408 -0.3421  2.4796
 4585TIP3   OH235169   1.564   3.917   5.418  0.4884 -0.3302  0.2673
 4585TIP3    H135170   1.478   3.957   5.403  0.5414 -0.3938 -0.2468
 4585TIP3    H235171   1.625   3.972   5.369  0.7903 -0.0856  0.9143
 4586TIP3   OH235172   2.910   0.909   5.674 -0.4502 -0.2820  0.4479
 4586TIP3    H135173   2.999   0.914   5.709  1.0213 -0.5881 -2.8086
 4586TIP3    H235174   2.888   0.816   5.676 -0.1032 -0.3794  0.0636
 4587TIP3   OH235175   2.355   6.371   2.069  0.1238  0.4235 -0.7051
 4587TIP3    H135176   2.435   6.421   2.084 -0.3760  1.6243 -1.8408
 4587TIP3    H235177   2.333   6.388   1.978  0.8675 -3.3264 -1.7317
 4588TIP3   OH235178   0.749   4.616   4.667  0.0905  0.9691  0.0370
 4588TIP3    H135179   0.817   4.631   4.733  0.4071 -2.3480  0.6639
 4588TIP3    H235180   0.797   4.579   4.592 -0.9380 -1.9316  0.6877
 4589TIP3   OH235181   5.512   6.407  10.357 -0.7651  0.2242  0.4803
 4589TIP3    H135182   5.568   6.416  10.279 -0.7272  1.5918  0.6429
 4589TIP3    H235183   5.520   6.315  10.381 -1.0226 -0.2997 -1.3151
 4590TIP3   OH235184   2.641   0.862   0.094  0.0788  0.1088 -0.9554
 4590TIP3    H135185   2.580   0.814   0.039  0.1183  0.1123 -1.0027
 4590TIP3    H235186   2.611   0.953   0.090  0.8694  0.3474 -2.0686
 4591TIP3   OH235187   0.997   2.705  14.000 -0.0596 -0.4976 -0.0047
 4591TIP3    H135188   1.085   2.690  13.965 -0.7961 -1.7186 -1.4407
 4591TIP3    H235189   0.998   2.663  14.087  1.7560  2.4747  1.5584
 4592TIP3   OH235190   2.150   6.448  10.926 -0.3812  0.0515 -0.2567
 4592TIP3    H135191   2.186   6.537  10.924  1.6817 -0.7203 -1.5706
 4592TIP3    H235192   2.109   6.440  11.012  2.2767  1.2475  1.2642
 4593TIP3   OH235193   6.624   0.056  11.938  0.0872 -0.5492 -0.0650
 4593TIP3    H135194   6.648   0.100  12.020 -0.2912 -0.9888  0.2871
 4593TIP3    H235195   6.700   0.003  11.915 -0.0151 -0.8706  0.3164
 4594TIP3   OH235196   4.911   1.556   0.994  0.5106 -0.1751  0.5600
 4594TIP3    H135197   4.994   1.519   1.023  0.5073 -0.4869  0.1859
 4594TIP3    H235198   4.870   1.486   0.942  0.8110  0.5808 -0.7375
 4595TIP3   OH235199   0.702   3.282  14.196  0.2326 -0.3509 -0.8270
 4595TIP3    H135200   0.694   3.354  14.133  1.3830 -0.4684 -1.1323
 4595TIP3    H235201   0.795   3.279  14.217 -0.3615  1.2566  2.7488
 4596TIP3   OH235202   4.121   4.127  12.634 -0.1175 -0.3168 -0.0707
 4596TIP3    H135203   4.213   4.140  12.657  0.0174 -0.7838 -0.3287
 4596TIP3    H235204   4.080   4.212  12.650  0.2520 -0.2472  0.5460
 4597TIP3   OH235205   0.067   2.557  10.564  0.0732 -0.1126  0.1680
 4597TIP3    H135206   0.002   2.576  10.497  0.1530  0.7831  0.3298
 4597TIP3    H235207   0.063   2.632  10.624  2.2698  0.7247 -0.6344
 4598TIP3   OH235208   5.881   4.093  16.872  0.0417  0.3003  0.2245
 4598TIP3    H135209   5.826   4.147  16.816  2.7832  2.9837 -0.1218
 4598TIP3    H235210   5.885   4.142  16.955  0.6999 -0.6103  0.7432
 4599TIP3   OH235211   1.902   3.883  14.372 -0.0992  0.4391 -0.3197
 4599TIP3    H135212   1.884   3.976  14.382  0.5601  0.6541 -1.0269
 4599TIP3    H235213   1.887   3.865  14.279  0.4610  0.0011 -0.3338
 4600TIP3   OH235214   6.085   1.111   1.399  0.0326  0.4516  0.3714
 4600TIP3    H135215   6.082   1.140   1.490  0.4902 -2.0035  1.2394
 4600TIP3    H235216   6.097   1.016   1.404 -1.7873 -0.0132 -2.2596
 4601TIP3   OH235217   1.187   0.242  11.396 -0.3401  0.0881 -0.5515
 4601TIP3    H135218   1.273   0.273  11.422 -0.4255  0.7408 -1.0168
 4601TIP3    H235219   1.129   0.270  11.466 -0.2966  0.3164 -0.6077
 4602TIP3   OH235220   3.504   5.860  11.351 -0.4774  0.1195  0.2231
 4602TIP3    H135221   3.409   5.863  11.349 -0.4573  1.2405 -2.0418
 4602TIP3    H235222   3.526   5.768  11.334 -1.1240 -0.1839  0.9611
 4603TIP3   OH235223   2.589   3.674  13.223  0.0241 -0.8063 -0.0993
 4603TIP3    H135224   2.591   3.758  13.177  1.5634 -2.0145 -2.5026
 4603TIP3    H235225   2.670   3.630  13.195 -1.1901 -3.4787  0.2592
 4604TIP3   OH235226   0.728   4.218   4.701 -0.3412 -0.1145 -0.2089
 4604TIP3    H135227   0.686   4.298   4.735  1.6352  0.0611  2.0629
 4604TIP3    H235228   0.683   4.201   4.619 -1.3453  2.9283 -0.4150
 4605TIP3   OH235229   0.264   1.212   3.017 -0.2925  0.0914 -0.1290
 4605TIP3    H135230   0.352   1.195   3.048  0.3219  0.1843 -1.7062
 4605TIP3    H235231   0.209   1.147   3.061  0.5299  0.1096  0.9553
 4606TIP3   OH235232   0.384   3.518  13.886 -0.5038 -0.3143 -0.1776
 4606TIP3    H135233   0.457   3.578  13.899 -0.6701 -0.0647 -0.3844
 4606TIP3    H235234   0.329   3.530  13.964  0.7157 -2.0193  1.0143
 4607TIP3   OH235235   1.632   1.883  16.112  0.1517 -0.5164 -0.4056
 4607TIP3    H135236   1.717   1.920  16.135  0.6790 -2.1501  0.4016
 4607TIP3    H235237   1.598   1.942  16.045  0.8766  1.4726  0.8802
 4608TIP3   OH235238   1.314   5.675   6.216  0.5097  0.0992  0.7431
 4608TIP3    H135239   1.372   5.604   6.242 -0.2508 -0.3696  1.1836
 4608TIP3    H235240   1.336   5.746   6.277 -2.1785 -1.4104  3.8059
 4609TIP3   OH235241   6.127   4.922  15.068 -0.1724  0.4030  0.1741
 4609TIP3    H135242   6.126   4.827  15.068 -1.4550  0.3172 -2.6958
 4609TIP3    H235243   6.194   4.946  15.005 -0.5208  1.3805  0.1461
 4610TIP3   OH235244   4.969   5.328   1.514 -0.4658 -0.0398 -0.3346
 4610TIP3    H135245   4.999   5.250   1.467  1.5872  0.9008 -0.7012
 4610TIP3    H235246   4.880   5.306   1.543 -1.0679 -1.4042 -2.8997
 4611TIP3   OH235247   3.195   4.730   1.116  0.1155 -0.6745  0.0995
 4611TIP3    H135248   3.182   4.823   1.098  0.6531 -0.0173  2.6458
 4611TIP3    H235249   3.108   4.698   1.141 -0.4974 -1.4289 -2.6951
 4612TIP3   OH235250   1.149   0.431  11.162  0.5963  0.2105 -0.1345
 4612TIP3    H135251   1.173   0.489  11.234 -1.0903 -1.4405  1.9015
 4612TIP3    H235252   1.133   0.346  11.203  0.7593 -1.1589 -2.6557
 4613TIP3   OH235253   6.631   6.436   1.823  0.4624 -0.2089  0.2253
 4613TIP3    H135254   6.563   6.471   1.880  0.3022 -1.5806  0.9219
 4613TIP3    H235255   6.597   6.352   1.793  0.5014  0.5089 -2.0071
 4614TIP3   OH235256   0.290   5.269  11.255  0.0961  0.4901  0.2563
 4614TIP3    H135257   0.358   5.288  11.320 -0.1852  0.4933  0.5552
 4614TIP3    H235258   0.333   5.281  11.171  0.2387  1.3379  0.4380
 4615TIP3   OH235259   1.803   3.054   3.180  0.2539 -0.6944  0.1375
 4615TIP3    H135260   1.758   3.027   3.260  0.1784  0.5963  0.5586
 4615TIP3    H235261   1.892   3.075   3.209 -0.4681  2.3737  0.4689
 4616TIP3   OH235262   0.459   4.540  14.344 -0.9734  0.0795 -0.0350
 4616TIP3    H135263   0.528   4.519  14.407 -1.5051  0.3424  0.6547
 4616TIP3    H235264   0.415   4.617  14.381 -0.7084  0.8142 -1.2019
 4617TIP3   OH235265   5.508   4.909  16.001 -0.3679  0.3069  0.2332
 4617TIP3    H135266   5.601   4.885  16.007 -0.6263 -0.4038  1.7974
 4617TIP3    H235267   5.465   4.831  15.966 -0.5880  0.0449  1.0673
 4618TIP3   OH235268   0.992   6.735  12.165  0.3161 -0.4263  0.2711
 4618TIP3    H135269   0.986   6.647  12.202  3.6621 -0.9131  0.0267
 4618TIP3    H235270   1.053   6.725  12.092 -2.2382  1.4322 -2.3330
 4619TIP3   OH235271   5.233   1.230   6.129  0.0799  0.0092 -0.8740
 4619TIP3    H135272   5.255   1.148   6.084  0.7277 -0.9277  1.0373
 4619TIP3    H235273   5.181   1.202   6.204  1.5685  1.1727  0.6586
 4620TIP3   OH235274   0.169   6.174  11.004  0.0125  0.1349 -0.6872
 4620TIP3    H135275   0.258   6.156  10.973  0.4249 -0.3990  0.7509
 4620TIP3    H235276   0.147   6.099  11.059 -1.6717 -0.1527 -1.6750
 4621TIP3   OH235277   4.900   4.689  11.352  0.3107  0.0974  0.4378
 4621TIP3    H135278   4.947   4.658  11.275  2.4823  1.2438  1.1915
 4621TIP3    H235279   4.808   4.686  11.327  0.7737 -1.7748 -1.3361
 4622TIP3   OH235280   2.459   6.273   2.330  0.2876 -0.2807  0.3559
 4622TIP3    H135281   2.475   6.183   2.300 -0.1152  0.4005 -2.1371
 4622TIP3    H235282   2.432   6.320   2.251 -0.1425  1.9028  1.7171
 4623TIP3   OH235283   2.826   2.431  15.954  0.2416  0.0863 -0.0272
 4623TIP3    H135284   2.876   2.446  15.874  1.4733  0.9137  0.8708
 4623TIP3    H235285   2.887   2.385  16.013 -0.0206  1.1077  1.0832
 4624TIP3   OH235286   3.175   3.953   6.739  0.0071  0.0509  0.0749
 4624TIP3    H135287   3.240   4.016   6.709  0.5867 -0.1743  0.8318
 4624TIP3    H235288   3.092   4.001   6.738  0.3329  0.6148  0.0057
 4625TIP3   OH235289   5.436   4.728  16.487  0.3145  0.0981 -0.8913
 4625TIP3    H135290   5.378   4.692  16.420  2.3886 -0.1273 -2.6955
 4625TIP3    H235291   5.452   4.818  16.460  0.9986  0.0782 -0.5796
 4626TIP3   OH235292   6.490   4.661   3.599  0.1111  0.3292  0.1014
 4626TIP3    H135293   6.454   4.604   3.667  1.1000  1.0607  1.2909
 4626TIP3    H235294   6.558   4.608   3.558  1.0593  0.6178  1.2367
 4627TIP3   OH235295   2.318   4.535  12.194  0.3173  0.0996  0.3848
 4627TIP3    H135296   2.411   4.515  12.185  1.0460  1.5690  3.1787
 4627TIP3    H235297   2.294   4.579  12.112  2.2385  0.1372 -0.1912
 4628TIP3   OH235298   1.597   2.334   2.836 -0.0429  0.1732 -0.4681
 4628TIP3    H135299   1.657   2.320   2.909 -0.1711 -0.4771 -0.4776
 4628TIP3    H235300   1.530   2.267   2.848 -1.0351  1.1963 -0.1886
 4629TIP3   OH235301   3.368   1.782  13.906 -0.0540 -0.9034 -0.0204
 4629TIP3    H135302   3.424   1.837  13.850 -0.3186 -1.9515 -1.3758
 4629TIP3    H235303   3.424   1.709  13.931 -1.1420 -2.8365 -2.7338
 4630TIP3   OH235304   5.619   5.951  16.208  0.1101 -0.2062  0.1394
 4630TIP3    H135305   5.624   6.023  16.145 -0.2861 -0.0538  0.2766
 4630TIP3    H235306   5.693   5.896  16.187  1.7981  1.4203  1.4796
 4631TIP3   OH235307   2.679   0.118  11.461 -0.4403  0.3224 -0.7032
 4631TIP3    H135308   2.680   0.038  11.408  0.9003 -0.7478  0.8312
 4631TIP3    H235309   2.694   0.189  11.398 -0.2903 -0.7562 -1.9231
 4632TIP3   OH235310   3.532   4.330   5.905 -0.2113  0.2322 -0.0298
 4632TIP3    H135311   3.589   4.360   5.976  1.2775 -0.9735 -0.6552
 4632TIP3    H235312   3.532   4.402   5.842  1.4466 -0.1157 -0.4636
 4633TIP3   OH235313   0.689   1.674   5.196 -0.2501  0.3907 -0.3846
 4633TIP3    H135314   0.740   1.755   5.191 -2.0025  1.5488 -0.7618
 4633TIP3    H235315   0.624   1.683   5.126 -1.0564 -0.9392  0.1600
 4634TIP3   OH235316   4.021   4.795  16.548  0.8008  0.2614 -0.2986
 4634TIP3    H135317   4.104   4.768  16.509  1.3847 -1.9517  2.1179
 4634TIP3    H235318   3.955   4.743  16.502  1.1686 -0.4040 -0.0963
 4635TIP3   OH235319   5.782   1.684  13.159  0.1171 -0.6229  0.0971
 4635TIP3    H135320   5.746   1.734  13.085  1.6318 -0.7370 -0.7481
 4635TIP3    H235321   5.845   1.625  13.119 -0.2117 -1.8511  1.3196
 4636TIP3   OH235322   3.313   3.726   2.580  0.2604  0.7209 -0.1032
 4636TIP3    H135323   3.396   3.678   2.580 -0.9841 -1.5971 -1.1265
 4636TIP3    H235324   3.306   3.760   2.491 -0.5627 -0.4211 -0.4933
 4637TIP3   OH235325   0.910   3.603  14.126  0.2779 -0.3860  0.4500
 4637TIP3    H135326   0.841   3.586  14.190 -0.2935  2.8741  0.8545
 4637TIP3    H235327   0.973   3.657  14.173 -0.1296  2.0577 -1.6284
 4638TIP3   OH235328   2.190   0.340   0.113 -0.2016  0.0034 -0.5670
 4638TIP3    H135329   2.137   0.262   0.096 -0.2891 -0.1955  0.5623
 4638TIP3    H235330   2.160   0.372   0.198  0.0449  1.1022 -0.8826
 4639TIP3   OH235331   2.072   1.311  11.161  0.4139 -0.6471 -0.0106
 4639TIP3    H135332   1.992   1.317  11.110  0.3745  1.0024  0.2046
 4639TIP3    H235333   2.044   1.275  11.246  0.1182 -1.2169 -0.3402
 4640TIP3   OH235334   5.938   1.269   5.453  0.3343 -0.3310  0.4120
 4640TIP3    H135335   5.978   1.221   5.525 -1.0756 -0.1363  1.3619
 4640TIP3    H235336   5.961   1.219   5.375 -0.5703 -2.2497  1.3058
 4641TIP3   OH235337   6.722   6.720  12.245 -0.2156 -0.5959  0.3107
 4641TIP3    H135338   6.787   6.735  12.177 -1.0403 -0.9650 -0.5730
 4641TIP3    H235339   6.671   6.646  12.214 -1.2692 -0.1163  0.8342
 4642TIP3   OH235340   4.563   3.388   3.056  0.0012  0.0037 -0.2410
 4642TIP3    H135341   4.519   3.473   3.060  0.0563 -0.0001  0.8091
 4642TIP3    H235342   4.631   3.399   2.990  0.8963  1.2140  0.8452
 4643TIP3   OH235343   5.888   4.822  13.357 -0.3862  0.2498  0.7329
 4643TIP3    H135344   5.877   4.911  13.324  1.9862 -0.3402 -2.0173
 4643TIP3    H235345   5.970   4.825  13.406 -0.2543 -0.4718  0.5606
 4644TIP3   OH235346   1.907   5.259   5.163 -0.1900  0.7257 -0.0225
 4644TIP3    H135347   1.924   5.213   5.080  2.1436  0.6887  0.4138
 4644TIP3    H235348   1.854   5.334   5.138  1.9125  1.7130 -1.9090
 4645TIP3   OH235349   0.274   5.099  14.610  0.0160  0.2144 -0.4294
 4645TIP3    H135350   0.183   5.082  14.588 -0.9138  3.6287  0.2319
 4645TIP3    H235351   0.311   5.141  14.532  0.6126  0.1894 -0.1683
 4646TIP3   OH235352   5.807   3.436   2.954 -0.2357  0.1082 -0.0696
 4646TIP3    H135353   5.865   3.442   2.878 -0.5685  1.0987 -0.2636
 4646TIP3    H235354   5.805   3.525   2.989 -0.4211 -0.2499  0.8567
 4647TIP3   OH235355   5.627   1.820   1.947  0.3467 -0.1782 -0.2729
 4647TIP3    H135356   5.661   1.734   1.971  0.4876 -0.2150 -0.6014
 4647TIP3    H235357   5.698   1.861   1.897 -0.1271 -0.3009 -1.0687
 4648TIP3   OH235358   2.998   1.127   4.607  0.0875  0.4629  0.4321
 4648TIP3    H135359   2.954   1.104   4.525  0.5186  0.0102  0.3259
 4648TIP3    H235360   3.083   1.084   4.602 -0.6219 -1.2459  1.9608
 4649TIP3   OH235361   1.552   6.360  15.911  0.0284  0.2549  0.0905
 4649TIP3    H135362   1.609   6.351  15.987  0.5063  2.4140  0.0643
 4649TIP3    H235363   1.530   6.454  15.908 -2.2524 -0.2354 -0.8211
 4650TIP3   OH235364   1.455   1.839  16.856  0.2144 -0.1679  0.0381
 4650TIP3    H135365   1.499   1.890  16.923  0.1077 -1.1793  0.9108
 4650TIP3    H235366   1.372   1.813  16.896 -0.6832  0.7374 -1.1583
 4651TIP3   OH235367   2.076   6.227  11.320 -0.3877  0.2370 -0.1388
 4651TIP3    H135368   2.002   6.219  11.259 -0.5830 -1.2074  0.2549
 4651TIP3    H235369   2.137   6.158  11.293 -1.1125 -1.4086  2.1136
 4652TIP3   OH235370   4.788   2.568   4.294 -0.0475  0.0651 -0.2783
 4652TIP3    H135371   4.806   2.475   4.309  1.2927 -0.2449 -3.2337
 4652TIP3    H235372   4.759   2.573   4.203 -0.2108  2.5268 -0.1501
 4653TIP3   OH235373   1.391   6.579  11.252  0.3365  0.0680 -0.4052
 4653TIP3    H135374   1.460   6.540  11.307 -0.5478  0.2479  0.8662
 4653TIP3    H235375   1.357   6.651  11.304 -2.2232 -1.2548 -0.0680
 4654TIP3   OH235376   2.573   0.687  16.103 -0.0495 -0.2074  0.1979
 4654TIP3    H135377   2.591   0.606  16.057 -3.5164 -0.8937 -0.2227
 4654TIP3    H235378   2.607   0.674  16.191  1.1699 -1.3183 -0.4236
 4655TIP3   OH235379   5.451   1.528  13.579  0.4418  0.2273 -0.0214
 4655TIP3    H135380   5.427   1.620  13.590 -0.3652  0.1467 -1.0279
 4655TIP3    H235381   5.521   1.529  13.514  1.6944  0.2567  1.2606
 4656TIP3   OH235382   2.677   6.045   6.461 -0.4619 -0.4979 -0.0026
 4656TIP3    H135383   2.745   6.103   6.495  0.1600 -0.4310 -1.2900
 4656TIP3    H235384   2.610   6.104   6.427 -0.4010 -0.5506 -0.2124
 4657TIP3   OH235385   5.047   4.086  16.214  0.3467  0.4973 -0.0737
 4657TIP3    H135386   4.977   4.147  16.187  0.9362  0.8515 -0.8318
 4657TIP3    H235387   5.049   4.094  16.310 -1.0064  0.0786  0.0130
 4658TIP3   OH235388   1.458   2.736   2.644 -0.5917 -0.5660 -0.2435
 4658TIP3    H135389   1.390   2.684   2.687 -0.9450  0.2057  0.1273
 4658TIP3    H235390   1.444   2.720   2.550 -1.9837  0.4305 -0.2306
 4659TIP3   OH235391   1.185   2.515   2.031 -0.7442  0.2238  0.1446
 4659TIP3    H135392   1.131   2.473   1.964 -2.6174 -1.0833  2.3579
 4659TIP3    H235393   1.271   2.472   2.022 -1.1086 -0.3137 -1.0246
 4660TIP3   OH235394   5.761   3.472   5.312 -0.4906  0.1585  0.4917
 4660TIP3    H135395   5.739   3.536   5.245 -1.0038 -0.7929 -0.2837
 4660TIP3    H235396   5.676   3.439   5.342 -0.2335 -0.5249  0.4916
 4661TIP3   OH235397   1.980   1.193   6.348  0.0181 -0.7101 -0.1632
 4661TIP3    H135398   1.903   1.231   6.389  0.3163 -0.1711 -0.0944
 4661TIP3    H235399   1.971   1.213   6.255  1.0779  1.1920  0.0883
 4662TIP3   OH235400   4.773   0.538  11.986  0.0878  0.2008 -1.0524
 4662TIP3    H135401   4.783   0.565  12.078 -0.8060  0.8232 -1.1308
 4662TIP3    H235402   4.682   0.556  11.965  0.1855 -0.3010 -1.9575
 4663TIP3   OH235403   3.996   2.167  15.185  0.1038  0.3617 -0.7948
 4663TIP3    H135404   4.025   2.138  15.099  2.9133 -2.6891  0.9733
 4663TIP3    H235405   3.919   2.113  15.204  0.6781 -0.3954 -0.6082
 4664TIP3   OH235406   1.591   6.616   5.178  0.3173 -0.4478 -0.2044
 4664TIP3    H135407   1.511   6.585   5.136 -0.0859 -1.4644  1.2255
 4664TIP3    H235408   1.662   6.581   5.124 -0.1928 -0.3657 -0.9378
 4665TIP3   OH235409   5.412   0.221  14.395  0.6116  0.3323 -0.8899
 4665TIP3    H135410   5.444   0.246  14.481 -0.7902  2.6290 -0.9596
 4665TIP3    H235411   5.370   0.136  14.408  3.2930 -0.9778 -0.0714
 4666TIP3   OH235412   3.368   4.025  10.775 -0.4339  0.3540  0.6531
 4666TIP3    H135413   3.345   4.038  10.867 -0.1462 -3.4660  1.4002
 4666TIP3    H235414   3.286   4.001  10.733 -0.1549 -0.1807  0.4133
 4667TIP3   OH235415   2.075   6.783   3.396  0.8283 -1.3026  0.5472
 4667TIP3    H135416   2.033   6.843   3.458  3.7814 -0.4528  1.8953
 4667TIP3    H235417   2.110   6.841   3.328  0.0789 -1.9824 -0.4566
 4668TIP3   OH235418   2.516   1.019  13.964 -0.0091 -0.3103  0.5185
 4668TIP3    H135419   2.561   0.986  13.886  0.4585  1.7921 -0.1835
 4668TIP3    H235420   2.425   1.029  13.936 -0.0101 -0.3510  0.5069
 4669TIP3   OH235421   3.928   6.607  12.614 -0.0262 -0.4235  0.5975
 4669TIP3    H135422   3.869   6.678  12.640  2.7606  2.1527  0.3904
 4669TIP3    H235423   3.930   6.612  12.519  0.4749 -0.5311  0.6024
 4670TIP3   OH235424   0.147   0.877  14.364 -0.6153  0.0012 -0.1879
 4670TIP3    H135425   0.238   0.852  14.349 -0.6373 -1.0927  1.2626
 4670TIP3    H235426   0.097   0.796  14.356 -1.3108  0.3882  0.1136
 4671TIP3   OH235427   5.517   5.189  10.606 -0.3710  0.3336  0.1670
 4671TIP3    H135428   5.563   5.105  10.609  1.5631  1.0622 -3.6721
 4671TIP3    H235429   5.582   5.252  10.636 -0.4759  0.8426 -0.6501
 4672TIP3   OH235430   4.239   0.221   0.632 -0.1595  0.1581 -0.5743
 4672TIP3    H135431   4.225   0.305   0.677 -0.4153  1.1252 -2.3522
 4672TIP3    H235432   4.210   0.155   0.695 -0.7893  1.4398  0.5538
 4673TIP3   OH235433   2.522   3.128   3.348  0.5112  0.0151 -0.4401
 4673TIP3    H135434   2.600   3.153   3.397  0.2713  0.4375 -0.2704
 4673TIP3    H235435   2.457   3.195   3.370 -0.3640 -1.1205  0.5620
 4674TIP3   OH235436   3.461   1.826  16.665  0.4419 -0.5313  0.1780
 4674TIP3    H135437   3.517   1.827  16.587  3.7263 -2.4078  2.2677
 4674TIP3    H235438   3.490   1.901  16.716 -1.4958  0.5263 -0.2114
 4675TIP3   OH235439   0.559   0.693   0.534  0.1151  0.2447  0.2148
 4675TIP3    H135440   0.544   0.606   0.570 -1.3862  0.1079 -0.6650
 4675TIP3    H235441   0.629   0.729   0.588  2.3521 -2.2969 -0.7502
 4676TIP3   OH235442   4.566   2.951   5.566 -0.0712  0.4919 -0.0761
 4676TIP3    H135443   4.532   2.983   5.649  1.0828  3.0142 -0.4962
 4676TIP3    H235444   4.639   2.893   5.591 -1.0368 -0.4559  0.6606
 4677TIP3   OH235445   1.377   0.999  12.280 -0.2048  0.3469 -0.6145
 4677TIP3    H135446   1.334   1.049  12.210  0.3686 -1.6380 -2.5058
 4677TIP3    H235447   1.403   1.064  12.344 -3.1648  1.9905 -0.9145
 4678TIP3   OH235448   2.329   1.524  15.457 -0.6660  0.3327 -0.4769
 4678TIP3    H135449   2.249   1.570  15.433 -0.6197 -0.7007 -2.8642
 4678TIP3    H235450   2.400   1.576  15.419 -0.3886 -0.0926 -0.5508
 4679TIP3   OH235451   2.536   2.686  16.686  0.2609  0.2475 -0.3904
 4679TIP3    H135452   2.609   2.747  16.690  0.6513 -0.1002 -1.7624
 4679TIP3    H235453   2.572   2.603  16.716  0.5432 -0.0140 -1.4300
 4680TIP3   OH235454   5.230   3.566   0.557 -0.0536  0.1549  0.2266
 4680TIP3    H135455   5.234   3.585   0.651 -1.1082 -0.1764  0.3532
 4680TIP3    H235456   5.321   3.567   0.528  0.1659  2.4624  0.7946
 4681TIP3   OH235457   4.753   5.145  16.574 -0.7673 -0.2626  0.4051
 4681TIP3    H135458   4.695   5.218  16.553 -2.6674 -1.4371  1.3106
 4681TIP3    H235459   4.812   5.180  16.641  0.1692  1.1884 -1.1056
 4682TIP3   OH235460   4.465   2.409   1.057 -0.0150  0.2443  0.1743
 4682TIP3    H135461   4.421   2.450   0.982  0.5460  0.0878 -0.2517
 4682TIP3    H235462   4.480   2.480   1.119  1.3930  0.8062 -0.7628
 4683TIP3   OH235463   1.021   2.319   0.291 -0.5522  0.0505 -0.3907
 4683TIP3    H135464   0.931   2.305   0.321 -0.8712  0.7492 -0.9771
 4683TIP3    H235465   1.050   2.396   0.339 -0.3424 -0.0523 -0.3536
 4684TIP3   OH235466   5.717   0.668   1.715  0.2885  0.0466  0.4630
 4684TIP3    H135467   5.622   0.657   1.725  0.4084 -0.2054  1.3698
 4684TIP3    H235468   5.727   0.715   1.632 -0.6568  0.5150  0.6016
 4685TIP3   OH235469   4.809   1.762   2.792  0.3999 -0.4667 -0.2299
 4685TIP3    H135470   4.714   1.765   2.783  0.5364 -1.0345 -2.2177
 4685TIP3    H235471   4.825   1.693   2.857 -0.5448 -0.0858  0.4189
 4686TIP3   OH235472   0.235   3.740   1.666  0.0980 -0.2817  0.1625
 4686TIP3    H135473   0.220   3.808   1.733  1.0251  0.2901 -0.1950
 4686TIP3    H235474   0.149   3.700   1.653 -0.3567  0.4724  0.7635
 4687TIP3   OH235475   0.224   4.024   1.077 -0.2570  0.6559  0.1755
 4687TIP3    H135476   0.317   4.006   1.066 -0.1891  0.1108  1.5053
 4687TIP3    H235477   0.187   4.010   0.989  0.8421  0.5185 -0.2832
 4688TIP3   OH235478   3.027   5.455   1.780  0.2350  0.0805  0.2134
 4688TIP3    H135479   3.056   5.475   1.691  0.5899 -0.0951  0.2897
 4688TIP3    H235480   3.073   5.518   1.836 -0.8540  0.9482  0.1685
 4689TIP3   OH235481   2.593   6.511  13.132  0.1325 -0.3716 -0.7492
 4689TIP3    H135482   2.521   6.572  13.123 -0.1747 -0.2083  2.0901
 4689TIP3    H235483   2.672   6.565  13.129 -0.0495 -0.0711 -0.1675
 4690TIP3   OH235484   1.090   4.760  13.908  0.3167  0.7405 -0.5768
 4690TIP3    H135485   1.122   4.812  13.981 -1.2885 -2.9231  3.1209
 4690TIP3    H235486   1.162   4.703  13.885 -0.2654 -0.6549  0.8662
 4691TIP3   OH235487   5.742   4.116   1.137 -0.2760  0.0774 -0.3451
 4691TIP3    H135488   5.705   4.204   1.143  0.5808  0.4125  0.4749
 4691TIP3    H235489   5.749   4.087   1.228  2.0766  0.3279 -0.3782
 4692TIP3   OH235490   4.925   1.726  14.968 -0.4618 -0.7306  0.3619
 4692TIP3    H135491   4.913   1.729  15.063 -1.2821  0.1140  0.2435
 4692TIP3    H235492   4.912   1.816  14.939 -1.1678 -1.1384 -0.6536
 4693TIP3   OH235493   5.680   0.220   5.059  0.0948  0.1938  0.1551
 4693TIP3    H135494   5.684   0.248   5.150 -2.6253  0.4734  0.2807
 4693TIP3    H235495   5.765   0.179   5.043  0.9747  0.8975  2.5326
 4694TIP3   OH235496   3.845   4.424  15.382 -0.2562 -0.5549 -0.9606
 4694TIP3    H135497   3.777   4.366  15.349 -0.3302 -0.7573 -0.4695
 4694TIP3    H235498   3.927   4.380  15.359 -0.3053 -0.6333 -0.9887
 4695TIP3   OH235499   3.635   3.268  13.549  0.6574 -0.4195  0.9387
 4695TIP3    H135500   3.579   3.226  13.483  3.5223 -0.0046 -2.0417
 4695TIP3    H235501   3.663   3.196  13.606 -0.6436 -1.0949  0.7672
 4696TIP3   OH235502   5.425   0.663   1.743  0.1879  0.0981 -0.1059
 4696TIP3    H135503   5.340   0.620   1.755  1.0250 -1.7261 -0.5428
 4696TIP3    H235504   5.459   0.675   1.831 -0.1240  0.0542  0.0221
 4697TIP3   OH235505   1.062   0.955   2.546 -0.1257  0.3482  0.8005
 4697TIP3    H135506   1.036   1.025   2.487  0.4540  0.8914  1.1817
 4697TIP3    H235507   0.979   0.921   2.581 -0.4958 -0.2610 -0.6153
 4698TIP3   OH235508   4.035   2.870  12.833  0.3609  0.3315 -0.1156
 4698TIP3    H135509   4.109   2.878  12.893  0.4415 -1.2994  0.0507
 4698TIP3    H235510   4.071   2.829  12.755 -0.3381 -0.4090 -0.0659
 4699TIP3   OH235511   2.376   1.451  14.258 -0.2783 -0.0846  0.5919
 4699TIP3    H135512   2.437   1.425  14.326 -0.8111  2.4353  2.1479
 4699TIP3    H235513   2.423   1.435  14.176  1.6597 -0.1239  1.6584
 4700TIP3   OH235514   2.597   0.071   4.145  0.4109  0.0896 -0.1404
 4700TIP3    H135515   2.665   0.057   4.080  3.5377 -0.2409  2.8899
 4700TIP3    H235516   2.570  -0.017   4.171 -0.6418  0.2132 -0.7685
 4701TIP3   OH235517   0.906   1.032  11.589 -0.5377 -0.7880 -0.2277
 4701TIP3    H135518   0.935   1.033  11.680 -2.0261  1.0644  0.2772
 4701TIP3    H235519   0.818   1.070  11.591  0.0865  1.0192 -2.6214
 4702TIP3   OH235520   2.396   1.840   3.905 -0.3006 -0.9549  0.3470
 4702TIP3    H135521   2.303   1.838   3.882 -0.3356 -2.8669  0.4799
 4702TIP3    H235522   2.432   1.759   3.869  1.3894 -0.1406  0.0755
 4703TIP3   OH235523   4.520   1.046   2.413  0.3311 -0.5696  0.2912
 4703TIP3    H135524   4.467   1.101   2.355 -0.5693  0.2403  1.8190
 4703TIP3    H235525   4.550   0.974   2.357 -4.2732 -2.4334 -0.2553
 4704TIP3   OH235526   2.286   4.759   5.363 -0.0421  0.5395 -0.8422
 4704TIP3    H135527   2.263   4.671   5.393 -1.2954  1.1243  0.0017
 4704TIP3    H235528   2.231   4.773   5.286 -0.3827  0.8462 -0.5472
 4705TIP3   OH235529   3.140   3.721   3.070 -0.1305  0.1568 -0.3048
 4705TIP3    H135530   3.159   3.737   2.977 -1.2997 -1.0244 -0.7743
 4705TIP3    H235531   3.115   3.628   3.074  0.7383 -0.0468  1.3409
 4706TIP3   OH235532   0.636   6.703   5.522  0.3013 -0.0441 -0.8186
 4706TIP3    H135533   0.730   6.693   5.503  0.2602  1.6849 -2.2610
 4706TIP3    H235534   0.597   6.621   5.493  1.3774 -0.8890  0.0294
 4707TIP3   OH235535   5.007   2.660  16.739  0.0833 -0.0993 -0.3985
 4707TIP3    H135536   4.914   2.674  16.757 -0.0086 -1.1649  0.0687
 4707TIP3    H235537   5.022   2.570  16.766  1.4833  0.3779  0.5078
 4708TIP3   OH235538   1.595   3.542   2.971 -0.9314 -0.5661 -0.1374
 4708TIP3    H135539   1.577   3.578   3.059 -0.8410 -0.5959 -0.1070
 4708TIP3    H235540   1.673   3.588   2.942 -0.9557 -0.5639 -0.1991
 4709TIP3   OH235541   5.682   5.644   0.260  0.2946  0.1145 -0.7548
 4709TIP3    H135542   5.740   5.715   0.288 -1.0696  0.1550  2.3966
 4709TIP3    H235543   5.609   5.689   0.217 -0.2226  0.6548  0.6087
 4710TIP3   OH235544   4.489   2.760  11.760  0.5474 -0.3699  0.0586
 4710TIP3    H135545   4.506   2.669  11.784 -1.1020 -0.5034  0.8837
 4710TIP3    H235546   4.425   2.754  11.689  0.8428  0.1447 -0.2544
 4711TIP3   OH235547   2.375   3.851  11.508 -0.2980 -0.3264 -0.0884
 4711TIP3    H135548   2.425   3.797  11.446  1.0432  1.6731 -0.8409
 4711TIP3    H235549   2.421   3.842  11.591  0.0040 -0.2319 -0.2457
 4712TIP3   OH235550   6.337   1.694  14.507 -0.3508  0.2550 -0.0874
 4712TIP3    H135551   6.253   1.658  14.538 -0.2456  0.9442  1.0547
 4712TIP3    H235552   6.313   1.769  14.454 -0.5773 -1.4507 -2.5501
 4713TIP3   OH235553   1.511   3.332   0.537  0.0918 -0.1329 -0.2842
 4713TIP3    H135554   1.425   3.357   0.570  0.6587  0.3277  0.8928
 4713TIP3    H235555   1.537   3.405   0.481 -0.3169 -0.3169 -0.7186
 4714TIP3   OH235556   5.686   6.227   4.813  0.1983  0.0102 -0.1701
 4714TIP3    H135557   5.762   6.218   4.870  0.5484 -0.1455 -0.6516
 4714TIP3    H235558   5.663   6.320   4.819  2.3769  0.8191 -2.4132
 4715TIP3   OH235559   2.734   6.094  16.636  0.6565  0.1672  0.0559
 4715TIP3    H135560   2.675   6.019  16.649  0.5453  0.1241 -0.6390
 4715TIP3    H235561   2.686   6.169  16.670  0.3016  0.0938 -0.2780
 4716TIP3   OH235562   5.585   3.919   3.424  0.7056  0.8275  0.8370
 4716TIP3    H135563   5.547   3.847   3.374  0.0348  2.6853 -1.5013
 4716TIP3    H235564   5.678   3.896   3.431  0.7231  0.2332 -0.8608
 4717TIP3   OH235565   5.982   2.527   0.759  0.5639  0.3399  0.6265
 4717TIP3    H135566   6.033   2.477   0.695  0.3793  2.1992 -1.0730
 4717TIP3    H235567   5.903   2.475   0.773  0.8415 -0.3410 -0.2817
 4718TIP3   OH235568   3.363   1.410   1.105 -0.2915 -0.4245 -0.4084
 4718TIP3    H135569   3.319   1.325   1.109 -0.4845 -0.3070  0.0204
 4718TIP3    H235570   3.319   1.463   1.172  1.3398 -0.7037  0.9376
 4719TIP3   OH235571   1.975   5.131   4.931  0.0636  0.2171 -0.1711
 4719TIP3    H135572   2.061   5.169   4.952 -0.8815  1.8102  1.1395
 4719TIP3    H235573   1.994   5.043   4.900  2.0849 -0.1250  1.7809
 4720TIP3   OH235574   6.531   1.801  10.963 -0.2802  0.1463 -0.0483
 4720TIP3    H135575   6.473   1.844  10.901 -0.4235  0.9223  0.6184
 4720TIP3    H235576   6.595   1.755  10.907  0.0211  1.4065 -0.7736
 4721TIP3   OH235577   6.786   1.798   5.215 -0.3956  0.4078 -0.5137
 4721TIP3    H135578   6.788   1.792   5.311 -0.6629 -1.4386 -0.5932
 4721TIP3    H235579   6.756   1.887   5.197 -0.0224  0.8951  1.1061
 4722TIP3   OH235580   4.329   5.713   0.350 -0.5072  0.2622  0.0806
 4722TIP3    H135581   4.286   5.633   0.318  1.6550 -1.2643  0.7033
 4722TIP3    H235582   4.412   5.716   0.302 -0.8713  2.6266 -0.4905
 4723TIP3   OH235583   5.563   4.308  17.032 -0.0115  0.5811  0.0091
 4723TIP3    H135584   5.519   4.223  17.026  0.3343  0.0425  3.2583
 4723TIP3    H235585   5.496   4.366  17.069  0.1869  1.4153 -0.8955
 4724TIP3   OH235586   0.580   1.174   0.394  0.3171 -0.0861  0.9732
 4724TIP3    H135587   0.575   1.269   0.380  1.6074 -0.1376 -0.0410
 4724TIP3    H235588   0.611   1.165   0.484  1.1154  0.4832  0.7671
 4725TIP3   OH235589   1.411   4.875  16.725  0.0154 -0.4221 -0.0610
 4725TIP3    H135590   1.334   4.819  16.718  1.5686 -2.7297  0.5214
 4725TIP3    H235591   1.394   4.947  16.664 -1.6695 -1.9507 -1.4845
 4726TIP3   OH235592   0.611   2.610   1.537  0.5228 -0.1907 -0.2648
 4726TIP3    H135593   0.626   2.704   1.524  1.8302 -0.3686 -0.1905
 4726TIP3    H235594   0.527   2.594   1.495 -1.2715  1.5551  2.3264
 4727TIP3   OH235595   4.783   1.933   0.300  0.5740 -0.1048 -0.0412
 4727TIP3    H135596   4.744   1.995   0.363  1.2563  0.7550 -0.4398
 4727TIP3    H235597   4.816   1.989   0.229  0.7428 -0.9800 -0.6652
 4728TIP3   OH235598   5.728   3.045  14.410  0.0747  0.4827  0.3447
 4728TIP3    H135599   5.733   3.091  14.326  0.5638  1.5492  0.9333
 4728TIP3    H235600   5.694   2.959  14.388 -0.7625  1.0780 -0.8269
 4729TIP3   OH235601   2.293   4.990   2.481 -0.3906  0.1638 -0.4223
 4729TIP3    H135602   2.227   4.925   2.505  0.2839 -0.8418 -1.2552
 4729TIP3    H235603   2.367   4.939   2.448 -0.7027  1.4007 -3.2820
 4730TIP3   OH235604   6.292   6.527   5.655  0.2458 -0.1050  0.3270
 4730TIP3    H135605   6.352   6.600   5.669  0.9247 -0.2968 -1.3712
 4730TIP3    H235606   6.336   6.451   5.692  0.7911 -0.1325 -0.3619
 4731TIP3   OH235607   4.746   3.367   1.391 -0.1516  0.2536  0.0019
 4731TIP3    H135608   4.829   3.331   1.359  0.6023  1.2115  0.8146
 4731TIP3    H235609   4.691   3.374   1.313 -0.2247 -2.2685 -0.2579
 4732TIP3   OH235610   1.013   0.808   1.276 -0.3190 -0.3968  0.0503
 4732TIP3    H135611   0.969   0.890   1.253 -0.9176  0.5321  3.8773
 4732TIP3    H235612   0.942   0.749   1.302  0.3375 -0.8733  0.8023
 4733TIP3   OH235613   0.670   4.245  16.276  0.1538  0.2197 -0.4670
 4733TIP3    H135614   0.724   4.319  16.250  0.0424  0.2855 -0.5148
 4733TIP3    H235615   0.715   4.168  16.241 -0.6665  0.4025 -2.0436
 4734TIP3   OH235616   1.449   4.444   3.266 -0.1243  0.1840 -0.9670
 4734TIP3    H135617   1.427   4.412   3.353  2.7186 -2.1212 -0.9537
 4734TIP3    H235618   1.405   4.383   3.206 -0.9823  0.9765 -1.1772
 4735TIP3   OH235619   1.564   0.416  11.235 -0.3092  0.0293 -0.3280
 4735TIP3    H135620   1.537   0.504  11.260  0.6335  0.5862 -1.1957
 4735TIP3    H235621   1.526   0.404  11.147 -0.1194 -0.2782 -0.3683
 4736TIP3   OH235622   4.346   4.300   1.805  0.5916  0.5465  0.0654
 4736TIP3    H135623   4.424   4.327   1.758 -0.0565 -0.5493 -1.7503
 4736TIP3    H235624   4.285   4.373   1.796 -0.1387 -0.2582 -2.3899
 4737TIP3   OH235625   0.246   0.165  11.322  0.3513 -0.2107  0.7669
 4737TIP3    H135626   0.166   0.199  11.361 -0.1684  1.0543 -1.2650
 4737TIP3    H235627   0.308   0.161  11.394 -1.1761 -0.0961  2.1391
 4738TIP3   OH235628   4.963   2.350   2.278 -0.2296 -0.0490  0.2275
 4738TIP3    H135629   4.936   2.386   2.362 -2.1167  0.8015 -0.6949
 4738TIP3    H235630   4.916   2.267   2.270  2.3762 -1.7813  1.3333
 4739TIP3   OH235631   3.203   1.275  13.569  0.0087 -0.6174  0.1838
 4739TIP3    H135632   3.259   1.352  13.567  1.3711 -1.5883 -0.7351
 4739TIP3    H235633   3.140   1.289  13.499 -0.0781 -0.1118  0.3600
 4740TIP3   OH235634   2.821   2.688   5.195  0.1670 -0.6123 -0.0657
 4740TIP3    H135635   2.897   2.657   5.245 -1.4702 -0.7567  2.5020
 4740TIP3    H235636   2.817   2.782   5.212 -0.3704 -0.6498  0.0364
 4741TIP3   OH235637   2.036   3.806  11.856 -0.0222  0.3809 -0.4222
 4741TIP3    H135638   2.073   3.720  11.836  1.7296  1.5873 -2.9344
 4741TIP3    H235639   1.964   3.788  11.916  1.7611 -2.5883  1.0722
 4742TIP3   OH235640   2.541   2.772  15.483 -0.0014 -0.5799 -0.2947
 4742TIP3    H135641   2.628   2.753  15.517  0.0249  0.3310  0.1687
 4742TIP3    H235642   2.532   2.867  15.491 -1.7172 -0.8174  1.3407
 4743TIP3   OH235643   4.521   2.910   5.121  0.6156  0.2107 -0.1491
 4743TIP3    H135644   4.517   2.944   5.211  1.9437  0.1251 -0.0435
 4743TIP3    H235645   4.614   2.908   5.100  0.2880  1.4727 -2.0103
 4744TIP3   OH235646   1.982   1.790   0.754  0.4582 -0.4022 -0.9781
 4744TIP3    H135647   2.058   1.810   0.809  0.7151 -2.7901 -0.3499
 4744TIP3    H235648   1.907   1.797   0.813  0.5651 -1.3808 -0.7161
 4745TIP3   OH235649   1.493   1.729   5.746  0.0210  0.3111 -0.2321
 4745TIP3    H135650   1.525   1.736   5.656  2.7656  0.7068  0.6707
 4745TIP3    H235651   1.514   1.814   5.786 -2.4801  0.6877  0.4574
 4746TIP3   OH235652   3.260   5.676  13.844 -0.1789 -1.1257 -0.2577
 4746TIP3    H135653   3.342   5.649  13.802  0.9029  0.8865  0.4756
 4746TIP3    H235654   3.193   5.626  13.797  1.3466 -2.0616 -1.5640
 4747TIP3   OH235655   1.732   1.431   2.598 -0.4221 -0.8160  0.4852
 4747TIP3    H135656   1.759   1.350   2.555  0.4365  0.0755 -0.7180
 4747TIP3    H235657   1.802   1.450   2.661  1.3254  0.8447 -1.7757
 4748TIP3   OH235658   2.065   0.704  14.971 -0.4701 -0.3275 -0.5296
 4748TIP3    H135659   2.005   0.715  15.045  0.9139  0.3585  0.5430
 4748TIP3    H235660   2.152   0.698  15.011  0.4387  1.0580 -2.1472
 4749TIP3   OH235661   5.895   2.019  16.839  0.2945  0.2216 -0.8320
 4749TIP3    H135662   5.823   2.053  16.786  1.4125  1.0658 -1.8480
 4749TIP3    H235663   5.859   2.014  16.927 -0.4625  2.4740 -0.9471
 4750TIP3   OH235664   3.120   2.965  12.401  0.1822 -0.7108 -0.3487
 4750TIP3    H135665   3.072   2.888  12.432  1.0492 -0.4593  1.8236
 4750TIP3    H235666   3.182   2.930  12.336 -1.1365 -1.4098 -1.2710
 4751TIP3   OH235667   2.634   1.056  15.189  0.2744 -0.3771  0.2773
 4751TIP3    H135668   2.667   1.007  15.264  1.2848 -0.2043 -0.0378
 4751TIP3    H235669   2.539   1.053  15.198  0.3792 -0.5808  1.4123
 4752TIP3   OH235670   4.399   1.176   5.151 -0.6076  0.0376  0.1220
 4752TIP3    H135671   4.409   1.089   5.191  0.3381  0.1471  0.1596
 4752TIP3    H235672   4.338   1.222   5.208  1.0390  0.3403  1.7459
 4753TIP3   OH235673   0.476   6.122  16.726 -0.4558  0.5101 -0.1043
 4753TIP3    H135674   0.552   6.174  16.698  1.3368 -1.0139  1.6330
 4753TIP3    H235675   0.493   6.035  16.692 -0.9231 -0.0810  1.1317
 4754TIP3   OH235676   0.513   1.753   1.764 -0.4722 -0.3604 -0.3417
 4754TIP3    H135677   0.453   1.740   1.838  0.0135 -1.4558 -0.1311
 4754TIP3    H235678   0.455   1.774   1.691 -0.8677  3.7459  0.8714
 4755TIP3   OH235679   3.183   6.441  15.371  0.4507  0.6681  0.0084
 4755TIP3    H135680   3.189   6.386  15.449  2.0564  2.4514  1.2322
 4755TIP3    H235681   3.148   6.524  15.402  0.5696  1.2291 -1.2747
 4756TIP3   OH235682   2.909   4.937  12.876 -0.3633 -0.2224  0.2637
 4756TIP3    H135683   2.886   5.000  12.808 -2.0640  0.5271  1.4629
 4756TIP3    H235684   2.905   4.852  12.833 -3.2510  0.0591 -0.2015
 4757TIP3   OH235685   0.995   2.713  16.645  0.6323 -0.2519 -0.2717
 4757TIP3    H135686   0.955   2.642  16.595 -0.4127  0.7990 -0.9603
 4757TIP3    H235687   0.921   2.767  16.674  1.4114  0.5979  0.1929
 4758TIP3   OH235688   3.690   0.684  13.535  0.1438  0.7293  0.2999
 4758TIP3    H135689   3.675   0.609  13.477  2.8302  0.6424 -0.4204
 4758TIP3    H235690   3.628   0.672  13.607  0.2605 -2.0111  0.0318
 4759TIP3   OH235691   4.272   6.534   0.819  0.2470  0.3044  0.0609
 4759TIP3    H135692   4.301   6.514   0.908  0.3528 -1.0741 -0.2629
 4759TIP3    H235693   4.206   6.467   0.799  0.0807  0.7151 -0.8334
 4760TIP3   OH235694   3.546   4.651  11.404 -0.3379 -0.3508  0.2191
 4760TIP3    H135695   3.569   4.735  11.364  1.7070 -0.5976  0.7382
 4760TIP3    H235696   3.581   4.655  11.493 -1.4960 -1.2217  0.7465
 4761TIP3   OH235697   0.594   4.691  15.884 -0.0564 -0.4104  0.2286
 4761TIP3    H135698   0.619   4.668  15.794  2.1069  0.6798  0.4857
 4761TIP3    H235699   0.499   4.688  15.884 -0.0998 -0.7568 -2.0152
 4762TIP3   OH235700   5.070   3.717  15.568 -0.6775  0.1086 -0.3952
 4762TIP3    H135701   5.055   3.691  15.478 -0.5919  0.3136 -0.4691
 4762TIP3    H235702   5.166   3.720  15.576 -0.6862  0.2426 -0.3421
 4763TIP3   OH235703   3.020   5.935  15.154  0.2203  0.3532  0.6503
 4763TIP3    H135704   3.088   6.002  15.159  1.7736 -0.9438 -1.3296
 4763TIP3    H235705   3.055   5.861  15.205  0.0385 -0.1125  0.1103
 4764TIP3   OH235706   4.843   1.268   5.923  0.2452  0.2630  0.7233
 4764TIP3    H135707   4.907   1.338   5.933  2.0176 -1.4295  1.7566
 4764TIP3    H235708   4.845   1.221   6.006 -1.1059 -0.8826  0.1609
 4765TIP3   OH235709   1.799   5.804   4.327 -0.2850 -0.3038 -0.5309
 4765TIP3    H135710   1.867   5.822   4.392  0.0282 -0.1400 -0.9042
 4765TIP3    H235711   1.742   5.740   4.370  0.0360 -0.3572 -0.1739
 4766TIP3   OH235712   4.827   5.563   2.543 -0.1942  0.0902 -0.1743
 4766TIP3    H135713   4.792   5.476   2.562 -0.4155 -0.0526 -1.1588
 4766TIP3    H235714   4.772   5.622   2.594  0.7634 -0.4085  1.5152
 4767TIP3   OH235715   4.132   6.025  16.576 -0.1396 -0.1319 -0.4920
 4767TIP3    H135716   4.100   6.055  16.661  0.4621  2.1256 -0.9982
 4767TIP3    H235717   4.189   5.951  16.596  2.6140  2.3125  1.4720
 4768TIP3   OH235718   5.403   5.437  13.322  0.0050 -0.5555 -0.0864
 4768TIP3    H135719   5.367   5.491  13.251 -3.0535 -1.4614  0.6215
 4768TIP3    H235720   5.326   5.401  13.366  1.7473 -0.1360  3.6764
 4769TIP3   OH235721   4.200   1.433  12.375  0.2933 -0.6954  0.2599
 4769TIP3    H135722   4.175   1.373  12.444 -0.1253  0.3995  1.0956
 4769TIP3    H235723   4.230   1.377  12.303  0.7442 -1.8546  1.3177
 4770TIP3   OH235724   3.225   2.814   6.527  0.7614  0.6399 -0.2334
 4770TIP3    H135725   3.206   2.883   6.591  1.1665  1.5306 -1.0511
 4770TIP3    H235726   3.307   2.841   6.486  0.2366  0.3835 -1.5142
 4771TIP3   OH235727   0.540   0.404   1.380 -0.2176  0.2715 -0.0382
 4771TIP3    H135728   0.595   0.481   1.389 -0.5442  0.5695 -0.5358
 4771TIP3    H235729   0.554   0.355   1.461  3.6662 -1.5695 -1.5464
 4772TIP3   OH235730   1.765   5.509   5.996  0.5473  0.4364  0.7681
 4772TIP3    H135731   1.804   5.572   5.935 -0.0409  1.2750  1.2325
 4772TIP3    H235732   1.825   5.506   6.070  1.4203 -0.8140  0.0456
 4773TIP3   OH235733   4.647   6.277   0.223  0.1978  0.6122  0.0874
 4773TIP3    H135734   4.724   6.329   0.199  0.1258 -0.6149 -3.3420
 4773TIP3    H235735   4.574   6.339   0.215  0.3100  0.5405 -2.1628
 4774TIP3   OH235736   1.563   0.653  13.968 -0.0179  0.1490  0.1098
 4774TIP3    H135737   1.614   0.723  13.927  1.1230 -1.2808 -1.0154
 4774TIP3    H235738   1.472   0.674  13.946  0.4799 -0.0880 -2.5478
 4775TIP3   OH235739   3.799   0.561   0.766 -0.6995 -0.4871  0.0962
 4775TIP3    H135740   3.795   0.637   0.709 -0.9175 -0.1494  0.5532
 4775TIP3    H235741   3.710   0.526   0.766 -0.3784 -1.3573 -0.9197
 4776TIP3   OH235742   2.885   5.305   4.882  0.0957  0.1510 -0.1238
 4776TIP3    H135743   2.913   5.391   4.912 -1.0295  0.3123  0.5114
 4776TIP3    H235744   2.940   5.287   4.806  0.1667  1.5424 -0.4199
 4777TIP3   OH235745   3.714   1.589   2.061  0.1326 -0.0181 -0.3198
 4777TIP3    H135746   3.736   1.521   1.998  2.3344 -0.9121  1.2827
 4777TIP3    H235747   3.663   1.543   2.129 -0.6158  0.5303 -0.4955
 4778TIP3   OH235748   0.568   2.184   4.944 -0.2779 -0.2724 -0.4307
 4778TIP3    H135749   0.647   2.150   4.987  0.6764  1.3157 -0.8337
 4778TIP3    H235750   0.517   2.222   5.016  0.2027  0.3008 -0.3798
 4779TIP3   OH235751   0.233   3.798  11.046  0.7046  0.5817 -0.9605
 4779TIP3    H135752   0.312   3.798  10.993  1.8450  0.5194  0.6767
 4779TIP3    H235753   0.240   3.718  11.099 -1.2176 -0.2448 -1.8432
 4780TIP3   OH235754   5.640   0.308  14.031  0.5360 -0.1040 -0.7466
 4780TIP3    H135755   5.607   0.222  14.008  1.6574 -1.1420  1.2780
 4780TIP3    H235756   5.562   0.359  14.053 -0.0183 -1.3323  0.2580
 4781TIP3   OH235757   4.421   2.739  11.175  0.0325 -0.1583  0.2787
 4781TIP3    H135758   4.347   2.683  11.201 -0.0710 -0.4109 -0.5472
 4781TIP3    H235759   4.473   2.747  11.255 -1.3959  0.8544  1.1744
 4782TIP3   OH235760   6.517   1.497  14.577  0.7369  0.6606  0.0685
 4782TIP3    H135761   6.463   1.576  14.573  0.2349  0.3078 -0.1203
 4782TIP3    H235762   6.605   1.528  14.557  0.4022  1.0405 -0.8581
 4783TIP3   OH235763   4.502   1.564  11.140 -0.3335  0.6572  0.2458
 4783TIP3    H135764   4.446   1.513  11.082 -0.3710  2.5099 -1.4534
 4783TIP3    H235765   4.579   1.509  11.154 -1.5036 -0.9311  0.6670
 4784TIP3   OH235766   3.865   5.257  12.243 -0.4378  0.1611 -0.0409
 4784TIP3    H135767   3.815   5.186  12.202  0.1089 -1.0391  1.2605
 4784TIP3    H235768   3.800   5.309  12.290 -0.6796 -0.3596  0.2106
 4785TIP3   OH235769   0.554   3.702  10.446  0.4563  0.3297 -0.3724
 4785TIP3    H135770   0.482   3.706  10.383  2.0975  0.4760 -2.3128
 4785TIP3    H235771   0.545   3.784  10.496 -0.4505  0.5568 -0.8717
 4786TIP3   OH235772   0.892   4.402  13.786  0.1407 -0.0736 -0.3472
 4786TIP3    H135773   0.876   4.490  13.751  1.3538  0.8941  1.3795
 4786TIP3    H235774   0.816   4.383  13.841  0.0709  0.0817 -0.3922
 4787TIP3   OH235775   0.880   2.822  12.173  0.1568 -0.6878 -0.4011
 4787TIP3    H135776   0.862   2.731  12.196 -2.2345  0.3414  2.3422
 4787TIP3    H235777   0.963   2.841  12.217 -0.5532 -0.8916  1.0588
 4788TIP3   OH235778   5.067   1.568  11.360 -0.8096  0.3561 -0.3644
 4788TIP3    H135779   5.024   1.483  11.355 -1.6203  0.6514  0.9924
 4788TIP3    H235780   5.088   1.578  11.453  0.1496  1.2215 -0.6616
 4789TIP3   OH235781   3.357   3.552  12.035  0.3209  0.2158 -0.1075
 4789TIP3    H135782   3.386   3.472  11.989 -1.5467  0.0868 -1.1695
 4789TIP3    H235783   3.319   3.520  12.117  0.7235  0.1429  0.0536
 4790TIP3   OH235784   2.931   3.048  16.848 -0.0774  0.5092  0.0790
 4790TIP3    H135785   2.917   3.126  16.901  1.1734  0.6826  0.1975
 4790TIP3    H235786   3.026   3.044  16.836  0.3818 -2.8287  2.9788
 4791TIP3   OH235787   3.685   4.724  13.149  0.4075 -0.0845 -0.1759
 4791TIP3    H135788   3.765   4.736  13.098  0.2421 -1.7326 -0.8819
 4791TIP3    H235789   3.706   4.654  13.211 -0.6362 -0.9206 -0.7392
 4792TIP3   OH235790   2.459   3.047   5.073 -0.4408  0.2023 -0.1501
 4792TIP3    H135791   2.541   3.021   5.116 -0.3961 -0.6819 -0.7574
 4792TIP3    H235792   2.439   2.975   5.013 -0.4716  1.4448 -1.6794
 4793TIP3   OH235793   4.534   4.435  13.580  0.4021  0.4031 -0.4023
 4793TIP3    H135794   4.466   4.386  13.627 -0.0259  1.8488  0.5535
 4793TIP3    H235795   4.613   4.423  13.634 -0.0764  2.0175  0.7400
 4794TIP3   OH235796   2.608   3.953   6.007  0.6871 -0.2357 -0.5243
 4794TIP3    H135797   2.529   3.941   5.954 -0.6210  1.2025  0.9842
 4794TIP3    H235798   2.583   3.925   6.095  1.7883  0.3866  0.0152
 4795TIP3   OH235799   1.452   6.654   6.567 -0.0116  0.0482  0.5252
 4795TIP3    H135800   1.367   6.641   6.526  0.3604 -2.4030  0.3715
 4795TIP3    H235801   1.434   6.704   6.646 -1.9442 -2.0012  1.5006
 4796TIP3   OH235802   6.608   1.732   1.081 -0.6624  0.3954 -0.1703
 4796TIP3    H135803   6.621   1.671   1.153  0.4107  1.2410  0.3785
 4796TIP3    H235804   6.669   1.703   1.013  2.1961  2.5788  1.2555
 4797TIP3   OH235805   4.647   0.008  16.972 -0.4450  0.1215 -0.7698
 4797TIP3    H135806   4.736   0.043  16.984  0.0040 -0.5852 -1.9154
 4797TIP3    H235807   4.652  -0.081  17.005 -1.1235  0.5249  0.4816
 4798TIP3   OH235808   4.784   1.775   5.805  0.6733 -0.1687  0.1016
 4798TIP3    H135809   4.745   1.724   5.877  3.2607  3.1901  4.3593
 4798TIP3    H235810   4.712   1.828   5.772 -0.4808 -1.3529  0.6107
 4799TIP3   OH235811   6.407   5.348  12.046 -0.2968 -0.1019  0.1101
 4799TIP3    H135812   6.391   5.306  12.131 -2.2965  0.8664  0.2906
 4799TIP3    H235813   6.335   5.318  11.990  0.2496  0.3038 -0.8289
 4800TIP3   OH235814   0.957   4.677  17.005 -0.2792 -0.3407  0.2975
 4800TIP3    H135815   0.893   4.655  17.073  0.0855  0.7554  1.0272
 4800TIP3    H235816   1.042   4.658  17.044 -0.0507  0.5745  0.2658
 4801TIP3   OH235817   0.091   0.385   5.326  0.1294 -0.1749 -0.2272
 4801TIP3    H135818   0.034   0.410   5.254  0.6967 -0.4039 -0.7604
 4801TIP3    H235819   0.066   0.444   5.398 -2.2755 -1.6504  0.2718
 4802TIP3   OH235820   2.602   2.414  15.265  0.0016 -0.8333 -0.0789
 4802TIP3    H135821   2.520   2.459  15.286  0.7736  0.7790 -0.3392
 4802TIP3    H235822   2.625   2.367  15.344 -1.4109 -1.7122 -0.1565
 4803TIP3   OH235823   1.156   0.434  10.898 -0.4632 -0.0895 -0.5316
 4803TIP3    H135824   1.106   0.356  10.874 -3.8325  2.0316 -1.0952
 4803TIP3    H235825   1.163   0.430  10.994  1.4962 -2.0994 -0.6669
 4804TIP3   OH235826   3.685   4.047  16.818  0.2834 -0.0005  0.1321
 4804TIP3    H135827   3.657   4.138  16.830 -0.7251 -0.2929  0.0844
 4804TIP3    H235828   3.677   4.032  16.724 -2.0401 -0.8834  0.4092
 4805TIP3   OH235829   2.344   2.698   0.330 -0.1405 -0.2920  0.0023
 4805TIP3    H135830   2.401   2.758   0.282 -0.1140 -0.1661  0.1879
 4805TIP3    H235831   2.256   2.719   0.297 -0.3668  1.2023  1.4317
 4806TIP3   OH235832   1.612   4.651  13.997  0.3985 -0.3204 -0.0386
 4806TIP3    H135833   1.641   4.727  13.946 -0.3982 -0.6141 -0.9585
 4806TIP3    H235834   1.668   4.652  14.075  0.4783  1.1431 -0.0829
 4807TIP3   OH235835   0.397   3.209  13.754  0.0777  0.1488  0.0666
 4807TIP3    H135836   0.351   3.270  13.696 -1.2705 -0.0294  0.8930
 4807TIP3    H235837   0.391   3.125  13.710 -0.4469  0.1176  0.1910
 4808TIP3   OH235838   6.371   2.513  15.914  0.1437  0.7238  0.5637
 4808TIP3    H135839   6.336   2.589  15.962  0.4073  0.3537  1.3590
 4808TIP3    H235840   6.371   2.541  15.822 -1.8216  0.8927  0.5728
 4809TIP3   OH235841   5.990   1.453   5.225 -0.4242  0.0958 -0.4169
 4809TIP3    H135842   6.014   1.505   5.302  0.2845  1.2244 -1.3598
 4809TIP3    H235843   6.044   1.375   5.231 -0.5634  0.0448  0.3572
 4810TIP3   OH235844   5.462   4.774  12.831  0.0704 -0.2398 -0.1399
 4810TIP3    H135845   5.512   4.695  12.808  0.5336 -0.2270  0.7806
 4810TIP3    H235846   5.371   4.746  12.827  0.2522 -1.4979  2.3652
 4811TIP3   OH235847   1.679   0.408   2.636 -0.2466  0.0069  0.2751
 4811TIP3    H135848   1.684   0.503   2.649 -0.3192  0.0651 -0.1118
 4811TIP3    H235849   1.654   0.398   2.544 -0.1348 -0.3890  0.2879
 4812TIP3   OH235850   1.711   1.057  16.925  0.1163 -0.7107 -0.5312
 4812TIP3    H135851   1.719   1.142  16.969  2.2994 -1.0930 -0.0918
 4812TIP3    H235852   1.763   1.066  16.846  0.5482 -1.6854 -0.3754
 4813TIP3   OH235853   2.860   1.227   1.008  0.4458 -0.0968  0.0477
 4813TIP3    H135854   2.901   1.246   0.923 -0.5121 -1.5694 -0.7745
 4813TIP3    H235855   2.890   1.299   1.065  3.1620 -0.4211 -0.8128
 4814TIP3   OH235856   5.628   3.291  11.746  0.4061 -0.3932  0.4432
 4814TIP3    H135857   5.666   3.366  11.699 -0.0399 -0.9180 -0.8032
 4814TIP3    H235858   5.703   3.233  11.763  0.4747 -0.5202 -0.2586
 4815TIP3   OH235859   3.561   3.085   0.001  0.0764 -0.7297  0.2129
 4815TIP3    H135860   3.553   3.075  -0.094 -1.4742 -0.9845  0.3310
 4815TIP3    H235861   3.635   3.030   0.026  1.0194 -0.0316 -0.9289
 4816TIP3   OH235862   5.544   5.484  16.774  0.2740  0.1822 -0.5946
 4816TIP3    H135863   5.482   5.539  16.726 -2.0043 -1.6574  0.0520
 4816TIP3    H235864   5.562   5.411  16.714 -1.4123 -1.3485  0.6539
 4817TIP3   OH235865   0.164   0.638  13.551 -0.4492  0.0437  0.0179
 4817TIP3    H135866   0.206   0.719  13.523 -0.0136  0.3088  1.3342
 4817TIP3    H235867   0.128   0.659  13.638 -0.7908 -1.0144  0.1476
 4818TIP3   OH235868   3.727   4.952  15.012 -0.3893 -0.3039  0.3542
 4818TIP3    H135869   3.759   4.863  15.025 -0.0395 -0.1199  0.7690
 4818TIP3    H235870   3.740   4.995  15.096  0.2586  0.3915 -0.0901
 4819TIP3   OH235871   2.350   0.367   1.129  0.1829  0.2627 -0.0107
 4819TIP3    H135872   2.327   0.356   1.037  1.4220 -1.2446 -0.1925
 4819TIP3    H235873   2.270   0.345   1.177  0.3552 -2.1157 -0.6805
 4820TIP3   OH235874   5.465   4.506   2.861  0.1257  0.3782 -0.0985
 4820TIP3    H135875   5.381   4.480   2.900 -0.5678  1.7036 -0.6371
 4820TIP3    H235876   5.531   4.456   2.909 -0.8561  0.4540  1.3683
 4821TIP3   OH235877   3.183   1.504   0.931 -0.2003  0.3401 -0.0638
 4821TIP3    H135878   3.188   1.441   0.859  0.6622  2.1639 -1.7106
 4821TIP3    H235879   3.237   1.467   1.000 -1.7269 -1.8821  0.0636
 4822TIP3   OH235880   4.790   3.264  12.616 -0.5070 -0.4154 -0.0820
 4822TIP3    H135881   4.780   3.238  12.525  1.3711  0.5076 -0.5869
 4822TIP3    H235882   4.862   3.326  12.616 -0.4954 -0.3540  2.0393
 4823TIP3   OH235883   3.289   1.781  16.012 -0.1331  0.5883  0.2244
 4823TIP3    H135884   3.335   1.702  15.984 -1.7991 -0.1936 -0.3826
 4823TIP3    H235885   3.353   1.827  16.067  0.3692 -1.9778  1.9916
 4824TIP3   OH235886   3.732   3.620   4.029  0.6658  0.2452  0.2779
 4824TIP3    H135887   3.646   3.596   4.063  1.1325 -1.4802  0.3102
 4824TIP3    H235888   3.794   3.590   4.094  1.2976  3.6595  1.4833
 4825TIP3   OH235889   2.572   3.990  12.968  0.3106 -0.1948  0.3699
 4825TIP3    H135890   2.601   4.013  12.880  0.6411 -2.9379 -0.3338
 4825TIP3    H235891   2.651   3.962  13.013 -0.1457 -0.6866  0.8844
 4826TIP3   OH235892   4.774   0.855   4.422 -0.5917 -0.2454 -0.3765
 4826TIP3    H135893   4.767   0.765   4.454 -0.9428 -0.7980 -1.8990
 4826TIP3    H235894   4.866   0.878   4.434 -1.0755  0.4416  3.0437
 4827TIP3   OH235895   4.019   2.931  11.436 -0.0615 -0.1206  0.1659
 4827TIP3    H135896   4.101   2.903  11.395 -1.6592 -0.5891 -2.9288
 4827TIP3    H235897   3.992   3.008  11.387 -1.6993 -0.2148  0.8442
 4828TIP3   OH235898   2.566   5.892   3.965 -0.0045 -0.4415  0.5602
 4828TIP3    H135899   2.486   5.855   4.003 -0.2696  0.2005  0.6351
 4828TIP3    H235900   2.635   5.831   3.991 -0.5182 -1.2097  0.1781
 4829TIP3   OH235901   5.062   2.637   2.478  0.2704 -0.3062 -0.1119
 4829TIP3    H135902   5.077   2.646   2.383 -0.3086  1.4703 -0.0702
 4829TIP3    H235903   5.028   2.722   2.505 -0.0784 -0.9553  1.6186
 4830TIP3   OH235904   5.464   4.355   3.710  0.1663 -0.3706  0.2370
 4830TIP3    H135905   5.494   4.435   3.667 -2.1635 -0.4881 -1.8192
 4830TIP3    H235906   5.436   4.297   3.638 -3.1976 -0.8839  1.7336
 4831TIP3   OH235907   0.011   5.073   0.316 -0.1435  0.2684 -0.0102
 4831TIP3    H135908  -0.084   5.082   0.304 -0.3974 -0.2119  1.4609
 4831TIP3    H235909   0.042   5.038   0.232 -1.6225 -1.8082  0.2266
 4832TIP3   OH235910   3.194   4.018  11.940  0.4417  0.7335  0.5964
 4832TIP3    H135911   3.215   3.939  11.991  1.6488  1.2468  0.9248
 4832TIP3    H235912   3.265   4.079  11.959 -0.9588  2.2778  1.0925
 4833TIP3   OH235913   6.495   5.775  13.484 -0.0957  0.3558 -0.2703
 4833TIP3    H135914   6.466   5.845  13.542 -1.4935  0.8215 -1.4804
 4833TIP3    H235915   6.590   5.783  13.483 -0.0960  0.8248  1.3253
 4834TIP3   OH235916   6.423   0.891   6.256 -0.3265  0.2551 -0.0369
 4834TIP3    H135917   6.424   0.945   6.335 -0.7991  0.7063 -0.3369
 4834TIP3    H235918   6.448   0.804   6.287 -1.1310  0.2738  0.7310
 4835TIP3   OH235919   6.485   2.526  10.601 -0.6373 -0.4435  0.4084
 4835TIP3    H135920   6.556   2.488  10.653 -0.8143 -0.8688  0.3492
 4835TIP3    H235921   6.419   2.457  10.597 -0.3449 -0.6802 -0.9482
 4836TIP3   OH235922   1.234   2.004  13.571  0.2641 -0.2366 -0.1356
 4836TIP3    H135923   1.296   2.021  13.501  0.5195 -0.1440  0.1141
 4836TIP3    H235924   1.148   2.024  13.533  0.6016  3.1022  0.5718
 4837TIP3   OH235925   0.503   2.583  17.006 -0.5198  0.4025  0.3732
 4837TIP3    H135926   0.470   2.662  17.049 -0.6644  1.0154 -0.7963
 4837TIP3    H235927   0.597   2.583  17.022 -0.2152  1.8429 -1.1356
 4838TIP3   OH235928   6.293   0.407   1.219  0.2917 -0.5614 -0.5016
 4838TIP3    H135929   6.258   0.483   1.172  1.6059  0.1942 -0.3161
 4838TIP3    H235930   6.243   0.333   1.185 -0.4995  0.2875 -1.2568
 4839TIP3   OH235931   4.089   2.085   3.011 -0.3033  0.3178 -0.7254
 4839TIP3    H135932   4.063   2.163   2.963  1.6187  1.7985  0.4471
 4839TIP3    H235933   4.104   2.116   3.101  2.7715 -0.8131 -0.7186
 4840TIP3   OH235934   2.631   1.802  12.457 -0.4582 -0.1595  0.2070
 4840TIP3    H135935   2.552   1.819  12.507 -1.8850  0.7372 -2.2066
 4840TIP3    H235936   2.629   1.865  12.386  1.5429 -1.2641 -0.9335
 4841TIP3   OH235937   0.778   2.260  13.185 -0.0160  0.3604  0.6660
 4841TIP3    H135938   0.810   2.171  13.199  3.8872  1.3657 -0.5988
 4841TIP3    H235939   0.794   2.276  13.092 -2.6304  1.7791  0.3577
 4842TIP3   OH235940   0.337   5.611   6.002 -0.1296  0.1751  0.3496
 4842TIP3    H135941   0.368   5.521   6.008 -0.8261 -0.0002  1.8648
 4842TIP3    H235942   0.253   5.610   6.048 -0.8756  1.2890 -0.9244
 4843TIP3   OH235943   2.083   4.761   4.019  0.5664 -0.0031  0.3644
 4843TIP3    H135944   2.080   4.846   3.974 -0.1791 -1.0679 -1.7036
 4843TIP3    H235945   1.994   4.747   4.051  0.4460 -0.4195 -0.1394
 4844TIP3   OH235946   2.287   2.096  16.804 -0.0835 -0.0686 -0.3372
 4844TIP3    H135947   2.334   2.150  16.741  0.2886 -0.6666 -0.5833
 4844TIP3    H235948   2.268   2.015  16.756 -1.4247  0.1815 -0.2700
 4845TIP3   OH235949   1.313   4.713  10.551 -0.1482 -0.1311 -0.2243
 4845TIP3    H135950   1.385   4.689  10.494 -0.0222 -1.7460  0.5621
 4845TIP3    H235951   1.353   4.763  10.622 -0.0397  0.2267 -0.5300
 4846TIP3   OH235952   1.785   5.354   0.047 -0.5456  1.1026  0.0451
 4846TIP3    H135953   1.795   5.260   0.065 -0.1283  0.4420 -2.9985
 4846TIP3    H235954   1.691   5.367   0.037 -0.5101  0.5379 -1.3194
 4847TIP3   OH235955   5.767   2.361  12.369  0.4620 -0.3651  0.6799
 4847TIP3    H135956   5.829   2.334  12.438  0.8856  0.8208  0.7753
 4847TIP3    H235957   5.692   2.302  12.380  1.3417 -1.4725  0.9033
 4848TIP3   OH235958   1.375   5.644  11.503 -0.0548 -0.2876  0.1913
 4848TIP3    H135959   1.347   5.647  11.594 -0.1430  1.9084  0.1447
 4848TIP3    H235960   1.299   5.611  11.455 -0.2676 -0.7221  0.8187
 4849TIP3   OH235961   3.998   1.995   3.659  0.1826  0.7967  0.1658
 4849TIP3    H135962   3.952   1.917   3.628  1.7749 -0.0147 -0.2947
 4849TIP3    H235963   3.934   2.041   3.714 -1.2520 -0.0718 -0.7188
 4850TIP3   OH235964   4.896   4.846   0.615  0.5499  0.0731  0.4649
 4850TIP3    H135965   4.865   4.820   0.528  1.3053  1.8512 -0.3744
 4850TIP3    H235966   4.854   4.931   0.631  0.5749 -0.1416  1.7729
 4851TIP3   OH235967   0.946   4.238  14.815  0.3397  0.0306 -0.1244
 4851TIP3    H135968   0.912   4.297  14.748  0.8044  0.0479 -0.3493
 4851TIP3    H235969   1.040   4.232  14.796  0.0760 -1.9376 -1.0018
 4852TIP3   OH235970   1.341   2.453  15.174  0.4168  0.3492 -0.0338
 4852TIP3    H135971   1.343   2.392  15.101  1.8040 -0.4080  0.6099
 4852TIP3    H235972   1.369   2.402  15.250 -0.6826  1.1986  0.9818
 4853TIP3   OH235973   4.563   6.141  13.177  0.7616 -0.1289  0.1282
 4853TIP3    H135974   4.610   6.223  13.190 -0.4095  0.9036 -1.6723
 4853TIP3    H235975   4.620   6.074  13.215  2.6837  1.2824 -0.1164
 4854TIP3   OH235976   0.919   3.473   1.650 -0.9250  0.0464 -0.0032
 4854TIP3    H135977   0.891   3.558   1.616 -1.8541  0.1293  0.8918
 4854TIP3    H235978   0.837   3.429   1.675 -0.4199 -0.8861  0.0606
 4855TIP3   OH235979   0.693   0.202  16.257  0.1040 -0.2239  0.4266
 4855TIP3    H135980   0.736   0.287  16.246 -1.6003  0.8775  1.7633
 4855TIP3    H235981   0.604   0.224  16.286 -0.3571 -2.4722  0.8685
 4856TIP3   OH235982   2.408   6.815   2.805  0.1236 -0.3440  0.2745
 4856TIP3    H135983   2.490   6.864   2.815  0.0677 -0.3384  0.7433
 4856TIP3    H235984   2.435   6.730   2.769  0.4645 -0.7360  1.4113
 4857TIP3   OH235985   5.709   2.399   0.775 -0.3826  0.7146 -0.1628
 4857TIP3    H135986   5.623   2.356   0.781  0.3112 -0.6323  0.6049
 4857TIP3    H235987   5.751   2.358   0.699 -0.9746  2.4837 -1.5056
 4858TIP3   OH235988   5.198   3.917   2.587  0.6768 -0.0081 -0.4941
 4858TIP3    H135989   5.148   3.958   2.658  1.2942  1.3812 -0.8366
 4858TIP3    H235990   5.281   3.965   2.585  1.0846 -0.7290 -1.4715
 4859TIP3   OH235991   2.461   4.327  10.906 -0.4068  0.5601 -0.3778
 4859TIP3    H135992   2.390   4.264  10.915 -0.1127  0.5207  2.2727
 4859TIP3    H235993   2.423   4.411  10.934  0.7361  0.3714  1.9830
 4860TIP3   OH235994   3.343   6.795  13.110  0.1608 -0.2711  0.4037
 4860TIP3    H135995   3.318   6.855  13.039 -1.6263  1.2527  2.2198
 4860TIP3    H235996   3.412   6.840  13.157  1.2571 -1.2251 -0.2490
 4861TIP3   OH235997   4.244   0.774   1.012  0.1030  0.8238 -0.3038
 4861TIP3    H135998   4.182   0.717   1.058  0.8009 -0.4523 -0.8965
 4861TIP3    H235999   4.325   0.766   1.062  0.4253  0.6528 -0.8425
 4862TIP3   OH236000   6.199   6.610  14.951  0.2956 -0.0915 -0.2110
 4862TIP3    H136001   6.243   6.673  14.894  0.8432  0.0927  0.4031
 4862TIP3    H236002   6.266   6.546  14.973 -0.2048 -0.7809 -0.6651
 4863TIP3   OH236003   2.877   5.995  12.862 -0.0668  0.2135 -0.1237
 4863TIP3    H136004   2.820   6.071  12.869 -0.2039  0.1101 -0.1342
 4863TIP3    H236005   2.851   5.952  12.780 -0.4609 -0.2351  0.2343
 4864TIP3   OH236006   0.007   3.113   5.030 -0.1000 -0.5785  0.0708
 4864TIP3    H136007  -0.021   3.091   4.941 -0.2759 -1.4789  0.3396
 4864TIP3    H236008   0.083   3.057   5.046  0.1528 -0.1570  0.3622
 4865TIP3   OH236009   0.333   5.065   0.058 -0.1700 -0.6828 -0.0158
 4865TIP3    H136010   0.290   4.999   0.003  0.5107 -0.4711 -0.8247
 4865TIP3    H236011   0.402   5.017   0.104 -0.6155 -0.8197  0.5289
 4866TIP3   OH236012   5.038   6.309  15.495 -0.4725 -0.5153 -0.2543
 4866TIP3    H136013   4.982   6.235  15.471 -1.6075  0.0488  0.5297
 4866TIP3    H236014   5.074   6.284  15.580 -0.3180 -0.4610 -0.3045
 4867TIP3   OH236015   6.594   1.781  11.938 -0.2104  0.2902 -0.3226
 4867TIP3    H136016   6.601   1.866  11.895 -1.7974  0.3106 -0.5716
 4867TIP3    H236017   6.683   1.746  11.935  0.6381  2.2259  0.4294
 4868TIP3   OH236018   3.276   0.514  12.776  0.7046  0.4643 -0.3236
 4868TIP3    H136019   3.272   0.604  12.810 -0.0767 -0.1062  1.1894
 4868TIP3    H236020   3.353   0.476  12.819  0.6948  0.2366 -0.5070
 4869TIP3   OH236021   0.770   0.087  13.140 -0.3742  0.2523 -0.4723
 4869TIP3    H136022   0.814   0.067  13.223  0.4358  0.7659 -0.7694
 4869TIP3    H236023   0.762   0.182  13.139 -0.1719  0.2630 -1.0931
 4870TIP3   OH236024   3.938   2.315   0.815 -0.1602 -0.0326 -0.1141
 4870TIP3    H136025   3.959   2.378   0.884 -1.0532  0.5012 -0.3170
 4870TIP3    H236026   3.956   2.361   0.733  1.0318 -0.7119 -0.2580
 4871TIP3   OH236027   3.780   6.493  12.965 -0.0584 -0.0783 -0.7644
 4871TIP3    H136028   3.815   6.420  13.016  0.1609 -0.2184 -1.1140
 4871TIP3    H236029   3.750   6.454  12.883  1.6201  0.4562 -1.6845
 4872TIP3   OH236030   6.193   2.378   1.829  0.0714 -0.3925 -0.1802
 4872TIP3    H136031   6.134   2.410   1.899 -0.3583 -1.5183 -0.0086
 4872TIP3    H236032   6.280   2.381   1.868  0.1212  0.9867 -0.3265
 4873TIP3   OH236033   0.110   0.655   3.924 -0.4345 -0.3699  0.0536
 4873TIP3    H136034   0.111   0.699   4.009  0.2018 -1.2341  0.5206
 4873TIP3    H236035   0.017   0.647   3.902 -0.6955 -1.2502  1.2977
 4874TIP3   OH236036   2.233   0.953  13.571  0.1541 -0.2614 -0.7378
 4874TIP3    H136037   2.166   0.920  13.510  0.1278  2.0363 -2.0380
 4874TIP3    H236038   2.282   0.874  13.595 -1.8381 -1.7441 -1.1840
 4875TIP3   OH236039   2.182   6.110   3.158 -0.1675  0.2112 -0.1774
 4875TIP3    H136040   2.124   6.034   3.167  2.4630 -1.7330  1.6698
 4875TIP3    H236041   2.228   6.095   3.075 -0.1811  0.1783 -0.1794
 4876TIP3   OH236042   5.563   5.591  14.218 -0.2162 -0.2232  0.5050
 4876TIP3    H136043   5.526   5.624  14.300  1.5998  1.2371  0.8056
 4876TIP3    H236044   5.580   5.499  14.235 -0.8114 -0.1798  1.4045
 4877TIP3   OH236045   5.085   0.978  13.250 -0.0889 -0.1462 -0.5853
 4877TIP3    H136046   5.127   1.064  13.247  0.4365 -0.3707  0.0726
 4877TIP3    H236047   5.128   0.933  13.322 -0.6797 -0.7999 -0.6289
 4878TIP3   OH236048   6.442   5.455   0.729 -0.7037 -0.5010 -0.0458
 4878TIP3    H136049   6.423   5.381   0.671 -0.6757 -0.9340  0.4907
 4878TIP3    H236050   6.402   5.530   0.685  0.0638 -0.6624 -1.0609
 4879TIP3   OH236051   6.066   0.379  11.221 -0.6456  0.3483  0.1515
 4879TIP3    H136052   5.992   0.402  11.165  1.3572  2.0912 -1.9722
 4879TIP3    H236053   6.124   0.328  11.164  0.3041 -0.0672  1.4413
 4880TIP3   OH236054   3.687   4.685   5.673 -0.3620  0.3048 -0.0743
 4880TIP3    H136055   3.689   4.600   5.629  0.1606  0.2786 -0.0078
 4880TIP3    H236056   3.603   4.686   5.719  0.4251 -1.0030  1.4882
 4881TIP3   OH236057   3.526   3.080   2.268  0.8592  0.2842 -0.3482
 4881TIP3    H136058   3.574   3.053   2.189 -0.1937  0.3796 -1.0494
 4881TIP3    H236059   3.572   3.158   2.299  1.1451  0.3868 -1.0142
 4882TIP3   OH236060   6.016   2.108   3.099  0.2752 -0.2512 -0.2788
 4882TIP3    H136061   5.953   2.048   3.059  0.7862 -0.2079 -1.1686
 4882TIP3    H236062   5.965   2.186   3.121  0.0725 -0.0992 -1.2607
 4883TIP3   OH236063   0.604   3.139   0.366  0.2617 -0.1743 -0.4693
 4883TIP3    H136064   0.699   3.137   0.357  0.3578  0.0559  0.3757
 4883TIP3    H236065   0.585   3.074   0.434 -0.0891  0.4119  0.0034
 4884TIP3   OH236066   2.430   3.658  11.316  0.0092 -0.1713  0.2319
 4884TIP3    H136067   2.382   3.595  11.370 -0.2566 -0.5639 -0.4605
 4884TIP3    H236068   2.429   3.620  11.228 -1.3214  1.4449 -0.4867
 4885TIP3   OH236069   0.867   4.952   5.141  0.4207  0.4449  0.4146
 4885TIP3    H136070   0.844   5.005   5.217 -0.2570  0.5651  0.1322
 4885TIP3    H236071   0.811   4.874   5.147 -1.7671  1.7430 -1.4464
 4886TIP3   OH236072   1.635   6.299   3.805 -0.0071  0.0784 -0.2935
 4886TIP3    H136073   1.568   6.349   3.759 -0.9347 -0.2829  0.6176
 4886TIP3    H236074   1.697   6.365   3.836 -0.9400  0.6227  0.4511
 4887TIP3   OH236075   6.070   0.910   2.714  0.6379 -0.0084 -0.4661
 4887TIP3    H136076   6.087   0.834   2.658  1.2809 -0.7005  0.6387
 4887TIP3    H236077   6.084   0.878   2.803  1.3354  1.5133  0.0082
 4888TIP3   OH236078   1.603   1.435   0.804 -0.8652 -0.6256  0.6614
 4888TIP3    H136079   1.654   1.487   0.742 -1.2323  1.1473  1.7757
 4888TIP3    H236080   1.535   1.394   0.750 -0.7083  0.2360 -0.2270
 4889TIP3   OH236081   1.608   1.453  11.587  0.7604  0.0873 -0.0945
 4889TIP3    H136082   1.535   1.514  11.572  1.5278  0.7200 -1.3200
 4889TIP3    H236083   1.566   1.367  11.590 -0.4696  0.6624  2.5138
 4890TIP3   OH236084   0.982   5.153   5.611 -0.0760  0.0055 -0.0642
 4890TIP3    H136085   1.015   5.132   5.698 -1.4503 -0.1662  0.4338
 4890TIP3    H236086   1.036   5.100   5.552 -0.1517 -1.0767  0.8026
 4891TIP3   OH236087   4.300   2.516  10.978 -0.7606 -0.6330 -0.5146
 4891TIP3    H136088   4.266   2.557  10.898 -0.4177  1.7847  0.4859
 4891TIP3    H236089   4.231   2.457  11.006 -1.3182 -0.7627 -2.0369
 4892TIP3   OH236090   1.420   3.843  15.283  0.2832  0.4303  0.0718
 4892TIP3    H136091   1.364   3.766  15.282  1.0725 -0.1659 -1.4090
 4892TIP3    H236092   1.405   3.882  15.369  0.9402 -2.1991  1.5297
 4893TIP3   OH236093   3.456   1.103   5.679 -0.1545  0.0809  0.0387
 4893TIP3    H136094   3.528   1.047   5.707 -0.8703 -1.4426 -1.0407
 4893TIP3    H236095   3.498   1.184   5.652  0.8047  0.6635  2.8681
 4894TIP3   OH236096   4.923   0.666   1.941  0.9437  1.2804 -0.7279
 4894TIP3    H136097   4.867   0.698   1.870  0.2471  0.3897 -0.5991
 4894TIP3    H236098   4.953   0.746   1.985 -2.4583  1.8445  0.8957
 4895TIP3   OH236099   4.079   4.509   0.209  0.6326 -0.2154  0.1904
 4895TIP3    H136100   4.064   4.418   0.184 -1.0588 -0.0320  0.3533
 4895TIP3    H236101   4.168   4.529   0.181  0.3941 -1.3730 -1.5049
 4896TIP3   OH236102   3.505   2.895  16.257 -0.6549  0.5095 -0.9397
 4896TIP3    H136103   3.512   2.872  16.165  0.5422  0.0544 -0.7426
 4896TIP3    H236104   3.429   2.954  16.261 -1.6808 -0.6801 -1.9623
 4897TIP3   OH236105   0.964   2.877   2.120  0.1954  0.2961  0.5831
 4897TIP3    H136106   0.989   2.855   2.210 -0.4004  1.2953  1.0042
 4897TIP3    H236107   0.981   2.971   2.113  1.4524  0.0035 -0.7643
 4898TIP3   OH236108   3.684   5.134   5.775  0.0783  0.0997  0.1990
 4898TIP3    H136109   3.759   5.074   5.780 -1.0587 -1.3643  0.5291
 4898TIP3    H236110   3.621   5.088   5.719 -0.4599  1.4545 -0.3563
 4899TIP3   OH236111   5.126   5.736  15.017 -0.1924  0.1190 -0.0751
 4899TIP3    H136112   5.212   5.744  14.977  0.2816  0.3591  0.9871
 4899TIP3    H236113   5.138   5.675  15.090 -1.4312 -1.7887 -1.3541
 4900TIP3   OH236114   3.448   2.522   1.631 -0.5953 -0.0890  0.2266
 4900TIP3    H136115   3.407   2.595   1.583 -1.1598 -1.5996 -1.7182
 4900TIP3    H236116   3.540   2.525   1.603 -1.1160 -1.5612 -1.8743
 4901TIP3   OH236117   0.159   5.919  14.741  0.1074  0.5032  0.0668
 4901TIP3    H136118   0.186   5.828  14.730  3.8436  1.4318  0.1918
 4901TIP3    H236119   0.098   5.918  14.815  0.9702 -1.7877  0.8222
 4902TIP3   OH236120   1.891   6.562  13.931  0.3554 -0.0238 -0.1862
 4902TIP3    H136121   1.877   6.536  14.022 -0.4234  1.0247  0.0143
 4902TIP3    H236122   1.982   6.592  13.928  0.3983 -0.1050  0.2269
 4903TIP3   OH236123   3.455   5.440   0.908  0.1672  0.1219 -0.2594
 4903TIP3    H136124   3.505   5.521   0.895  0.6582  0.3125  2.4044
 4903TIP3    H236125   3.495   5.398   0.983 -2.1748 -0.9249  0.5029
 4904TIP3   OH236126   1.084   3.425   4.419  0.5566  0.7581  0.1995
 4904TIP3    H136127   1.003   3.470   4.399 -0.2381 -0.0595  1.4314
 4904TIP3    H236128   1.060   3.332   4.423  1.4929  0.5262  0.8339
 4905TIP3   OH236129   1.598   1.474  12.616 -0.3455  0.1851  0.3051
 4905TIP3    H136130   1.547   1.411  12.666 -1.6200  0.7778 -0.1886
 4905TIP3    H236131   1.561   1.559  12.639 -0.8888  0.4935 -1.4757
 4906TIP3   OH236132   2.455   0.087   5.692  0.3377  0.4645 -0.2278
 4906TIP3    H136133   2.470   0.172   5.734  0.9645 -0.8320  2.3687
 4906TIP3    H236134   2.376   0.053   5.733 -0.5321  0.1845 -2.0222
 4907TIP3   OH236135   0.072   2.439   6.258  0.9726 -0.0870  0.2940
 4907TIP3    H136136   0.047   2.532   6.257  0.6306 -0.1765 -0.9931
 4907TIP3    H236137  -0.011   2.392   6.250  1.1204 -0.5345  1.1759
 4908TIP3   OH236138   1.495   2.088   2.944 -0.3651  0.6226  0.4121
 4908TIP3    H136139   1.520   2.056   3.031  0.8111 -1.8798 -0.7454
 4908TIP3    H236140   1.409   2.049   2.927  0.4105 -0.7979 -0.4076
 4909TIP3   OH236141   0.451   4.997  15.453 -0.7598  0.3842  0.6200
 4909TIP3    H136142   0.518   5.061  15.429 -0.3135  0.4998  2.0807
 4909TIP3    H236143   0.381   5.011  15.389  0.4430  0.4883 -0.7386
 4910TIP3   OH236144   4.991   3.147   0.211  0.4931  0.4757 -0.1900
 4910TIP3    H136145   5.021   3.234   0.238  0.3885  1.2720 -2.3917
 4910TIP3    H236146   4.934   3.164   0.136 -1.5604 -1.3522  0.8482
 4911TIP3   OH236147   5.629   6.391  11.035 -0.1387  0.2789 -0.3488
 4911TIP3    H136148   5.688   6.316  11.029  1.1259  0.8703  2.6647
 4911TIP3    H236149   5.674   6.462  10.990  0.8028  0.3329  0.6448
 4912TIP3   OH236150   6.706   6.296   4.275  0.4253  0.2610  0.0090
 4912TIP3    H136151   6.702   6.238   4.351 -0.0149 -1.4369 -1.2482
 4912TIP3    H236152   6.661   6.247   4.205 -0.6446  2.4304 -0.9313
 4913TIP3   OH236153   0.807   2.539  14.407 -0.2017  0.1690 -0.4938
 4913TIP3    H136154   0.743   2.593  14.359 -1.9785 -0.4960  0.9893
 4913TIP3    H236155   0.851   2.600  14.465 -0.9529  0.3417 -0.0859
 4914TIP3   OH236156   6.495   1.068  16.868 -0.0841  0.1723  0.5059
 4914TIP3    H136157   6.404   1.067  16.897  0.3009 -0.9967  1.7576
 4914TIP3    H236158   6.493   1.112  16.783 -2.0736 -1.3292 -0.3042
 4915TIP3   OH236159   0.730   0.336   5.474  0.4130 -0.0874  0.1596
 4915TIP3    H136160   0.811   0.384   5.487  0.9923 -0.8681 -0.5351
 4915TIP3    H236161   0.718   0.331   5.379 -1.4892  1.7275  0.2352
 4916TIP3   OH236162   1.605   0.345  13.978 -0.2621 -0.1297 -0.8938
 4916TIP3    H136163   1.576   0.434  13.955  0.1699  0.5119  0.8439
 4916TIP3    H236164   1.527   0.303  14.013 -1.0897 -1.3334 -3.9060
 4917TIP3   OH236165   4.117   2.452   5.726  0.1295  0.5410 -0.2700
 4917TIP3    H136166   4.056   2.477   5.795  1.2723  0.9706  0.6198
 4917TIP3    H236167   4.194   2.507   5.742  1.6388 -1.5560  0.0441
 4918TIP3   OH236168   3.322   3.749  10.417  0.3654 -0.1364 -0.6463
 4918TIP3    H136169   3.251   3.779  10.360  0.2638  0.0564 -0.4202
 4918TIP3    H236170   3.277   3.702  10.488  0.1200  3.0461  1.5049
 4919TIP3   OH236171   1.405   1.442   0.098  0.0868 -0.2408  0.0118
 4919TIP3    H136172   1.318   1.455   0.136  0.1113 -1.3215  0.4915
 4919TIP3    H236173   1.455   1.518   0.125 -0.6019  0.2068  0.0564
 4920TIP3   OH236174   4.571   3.393  13.128 -0.1613 -0.2706  0.6858
 4920TIP3    H136175   4.607   3.425  13.211 -1.3233  0.9222  0.7736
 4920TIP3    H236176   4.620   3.313  13.109 -0.1990 -0.8435  2.7693
 4921TIP3   OH236177   4.658   1.015  12.012 -0.0157 -0.2323  0.2996
 4921TIP3    H136178   4.581   1.001  11.956  0.6436 -0.2194 -0.6427
 4921TIP3    H236179   4.652   0.947  12.079  0.3375 -1.7343 -1.1033
 4922TIP3   OH236180   1.191   2.647  17.021 -0.4353  0.5651 -0.0151
 4922TIP3    H136181   1.182   2.552  17.025  0.2769  0.4059 -1.3912
 4922TIP3    H236182   1.258   2.668  17.085 -0.2032  0.0665 -0.0914
 4923TIP3   OH236183   2.169   1.552   2.748 -0.0162 -0.2426  0.5447
 4923TIP3    H136184   2.186   1.638   2.786 -0.4177  0.7207 -1.3427
 4923TIP3    H236185   2.234   1.495   2.789  0.9596  1.1866  1.0868
 4924TIP3   OH236186   3.052   2.124  13.413  0.5637  0.1744  0.2005
 4924TIP3    H136187   2.997   2.077  13.350 -0.6557 -0.2649  1.5348
 4924TIP3    H236188   3.039   2.217  13.391 -0.1968  0.0473  0.0818
 4925TIP3   OH236189   3.528   2.558   1.230  0.9849 -0.3751 -0.3099
 4925TIP3    H136190   3.543   2.648   1.203 -0.8556  0.7158  1.9274
 4925TIP3    H236191   3.597   2.540   1.294  0.6844 -0.0957  0.1043
 4926TIP3   OH236192   5.015   1.913   0.896  0.0716  0.4491 -0.4926
 4926TIP3    H136193   5.000   1.948   0.984  2.5480  0.7170 -0.1128
 4926TIP3    H236194   4.932   1.872   0.872  0.0093 -1.8105  2.9506
 4927TIP3   OH236195   6.620   3.323   3.236 -0.3217 -0.1917  0.2798
 4927TIP3    H136196   6.707   3.298   3.267 -1.1349 -0.5513  2.4915
 4927TIP3    H236197   6.628   3.416   3.214  0.3512  0.0883  1.6066
 4928TIP3   OH236198   4.968   0.550  13.853 -0.1356 -0.4110  0.0621
 4928TIP3    H136199   5.056   0.519  13.878 -0.4849 -0.7267  0.9324
 4928TIP3    H236200   4.984   0.633  13.808  0.6762 -0.8895 -0.5790
 4929TIP3   OH236201   2.270   5.786   2.219 -0.7160  0.3021 -0.3504
 4929TIP3    H136202   2.236   5.784   2.130  0.5040 -0.6619 -0.8223
 4929TIP3    H236203   2.275   5.695   2.246  3.4321  0.0905 -1.1555
 4930TIP3   OH236204   5.005   5.551   5.860  0.9761  0.1768  0.1285
 4930TIP3    H136205   5.048   5.576   5.942  1.7960  0.9126 -0.5058
 4930TIP3    H236206   5.000   5.632   5.810  1.3408 -0.4302 -0.9284
 4931TIP3   OH236207   0.330   3.934  12.735 -0.4838  0.2332  0.1374
 4931TIP3    H136208   0.323   3.931  12.831  0.3018  1.3971  0.2585
 4931TIP3    H236209   0.390   4.008  12.718  0.0272 -0.4567 -1.2150
 4932TIP3   OH236210   6.697   5.424   5.394  0.3091 -0.5214  0.0961
 4932TIP3    H136211   6.704   5.480   5.316 -0.2124 -0.4332  0.1102
 4932TIP3    H236212   6.658   5.480   5.460 -2.0350 -1.4164 -0.4484
 4933TIP3   OH236213   4.260   5.018   0.851  0.5974  0.6424 -0.0502
 4933TIP3    H136214   4.260   4.995   0.758 -1.1311  0.5214 -0.0427
 4933TIP3    H236215   4.342   4.982   0.884  0.8959  0.0426 -1.3748
 4934TIP3   OH236216   4.631   0.440  16.331  0.3263  0.3786 -0.2094
 4934TIP3    H136217   4.557   0.409  16.279 -0.6750 -1.9751  2.3691
 4934TIP3    H236218   4.703   0.381  16.308  0.1835  0.0191  0.2396
 4935TIP3   OH236219   3.625   3.317   5.824  0.0110  0.1042 -0.7131
 4935TIP3    H136220   3.688   3.359   5.883  1.6339 -1.6015 -1.1492
 4935TIP3    H236221   3.664   3.232   5.804 -2.8433 -1.4077 -0.3511
 4936TIP3   OH236222   4.903   5.797   0.597  0.4053  0.1520 -0.0409
 4936TIP3    H136223   4.979   5.855   0.599 -0.6078  1.7001 -2.1754
 4936TIP3    H236224   4.843   5.834   0.662  0.5075  0.3616 -0.0655
 4937TIP3   OH236225   5.682   4.395   4.657  0.2107 -0.2300 -1.0523
 4937TIP3    H136226   5.697   4.304   4.632 -1.0549 -0.8166  0.1426
 4937TIP3    H236227   5.662   4.440   4.575 -1.7975 -1.6268 -1.4274
 4938TIP3   OH236228   0.006   5.984  12.079 -0.2004 -0.2724  0.3897
 4938TIP3    H136229   0.094   5.975  12.044  0.1236 -0.8464  1.3195
 4938TIP3    H236230  -0.049   5.934  12.019  0.1299 -0.0840 -0.0787
 4939TIP3   OH236231   5.981   6.633   3.591  0.2448 -0.3994 -0.6750
 4939TIP3    H136232   5.917   6.590   3.535 -2.4688  0.5065  1.4948
 4939TIP3    H236233   5.993   6.574   3.665 -0.2584  0.6368  0.2703
 4940TIP3   OH236234   6.025   0.273  11.611 -0.2111  0.2860  0.1115
 4940TIP3    H136235   6.064   0.292  11.696 -1.1382 -1.4536  1.0001
 4940TIP3    H236236   5.958   0.207  11.630 -0.5069 -0.0925 -1.9633
 4941TIP3   OH236237   6.243   6.384   1.058  0.1420  0.4261 -0.2253
 4941TIP3    H136238   6.282   6.471   1.070  2.3490  0.0084 -3.1911
 4941TIP3    H236239   6.180   6.397   0.987 -1.6154  0.0621  1.1936
 4942TIP3   OH236240   6.201   4.459  11.149  0.0159  0.6661 -0.1316
 4942TIP3    H136241   6.252   4.378  11.142  1.5669  1.5624  0.4005
 4942TIP3    H236242   6.129   4.447  11.087  0.0520 -1.2134  0.1145
 4943TIP3   OH236243   3.814   1.163   2.118 -0.6736  0.1739  0.1664
 4943TIP3    H136244   3.768   1.095   2.069 -0.8379  0.6715 -0.3879
 4943TIP3    H236245   3.803   1.242   2.064 -0.2763  0.5794  0.6757
 4944TIP3   OH236246   5.797   5.504  16.064 -0.1155  0.0076 -0.1687
 4944TIP3    H136247   5.883   5.462  16.072 -0.3512 -0.3494  0.5891
 4944TIP3    H236248   5.735   5.441  16.101 -0.3329  1.4213  2.1245
 4945TIP3   OH236249   6.340   6.669   1.001 -0.1473  0.3683  0.8331
 4945TIP3    H136250   6.301   6.619   0.930  0.5355 -1.0690  1.4373
 4945TIP3    H236251   6.397   6.733   0.958  0.4713 -0.6631  0.0901
 4946TIP3   OH236252   3.630   2.088  12.644 -0.4994  0.3002  0.8694
 4946TIP3    H136253   3.597   2.174  12.619  1.4921  1.3644  1.6619
 4946TIP3    H236254   3.722   2.103  12.667  0.1826 -2.2057  0.1530
 4947TIP3   OH236255   3.482   6.210   4.324  0.2001  0.5353 -0.1761
 4947TIP3    H136256   3.561   6.158   4.339 -0.1958 -0.9398 -2.7058
 4947TIP3    H236257   3.418   6.175   4.385  0.0843 -1.7521 -1.5036
 4948TIP3   OH236258   1.082   3.550  13.935  0.2076 -0.2161  0.1252
 4948TIP3    H136259   1.040   3.573  14.018  1.5778  1.3475  0.4355
 4948TIP3    H236260   1.129   3.469  13.954 -0.2991 -0.4111  0.5803
 4949TIP3   OH236261   2.391   5.133  16.235  0.3051 -0.7812  0.1416
 4949TIP3    H136262   2.366   5.221  16.264  0.7624  0.0690 -1.8929
 4949TIP3    H236263   2.482   5.123  16.262 -0.3994 -1.6641  2.5264
 4950TIP3   OH236264   3.120   5.693  15.246 -0.0849 -0.5513  1.1855
 4950TIP3    H136265   3.061   5.620  15.225 -0.7625  0.6029 -1.3745
 4950TIP3    H236266   3.190   5.653  15.298  0.5515 -3.4792 -1.5706
 4951TIP3   OH236267   1.749   4.582  16.980  0.1843  0.0616 -0.1247
 4951TIP3    H136268   1.802   4.502  16.976  1.1029  0.5507  1.3695
 4951TIP3    H236269   1.805   4.645  17.025 -1.0891  1.1003  0.0501
 4952TIP3   OH236270   4.861   2.089  14.073 -0.0805 -0.1231 -0.4436
 4952TIP3    H136271   4.901   2.113  14.157  1.0821 -0.7384 -0.7941
 4952TIP3    H236272   4.916   2.132  14.007  1.0594 -2.2927 -1.0011
 4953TIP3   OH236273   5.097   3.399   0.343 -0.1267  0.4363 -0.2697
 4953TIP3    H136274   5.037   3.364   0.410  0.2822 -0.7879 -0.5190
 4953TIP3    H236275   5.159   3.452   0.392 -0.4242  0.3592  0.1974
 4954TIP3   OH236276   4.707   3.123  15.979 -0.1197 -0.1831  0.2044
 4954TIP3    H136277   4.707   3.140  15.885 -0.6190 -1.1961  0.0114
 4954TIP3    H236278   4.799   3.128  16.004  0.1302 -0.9382 -0.5297
 4955TIP3   OH236279   5.546   6.243  13.650  0.6134 -0.4780  0.4324
 4955TIP3    H136280   5.576   6.299  13.721  0.1970 -2.2230  2.0652
 4955TIP3    H236281   5.470   6.289  13.613  0.8791  0.4924  1.0559
 4956TIP3   OH236282   6.700   6.704  13.258  0.4704 -0.0156  0.8629
 4956TIP3    H136283   6.791   6.681  13.278  0.2814 -1.4752  0.2003
 4956TIP3    H236284   6.702   6.798  13.239  2.5378 -0.5949 -2.6557
 4957TIP3   OH236285   4.449   6.563   3.367 -0.3703  0.1148 -0.6397
 4957TIP3    H136286   4.521   6.625   3.369 -0.3921  0.2448 -2.4196
 4957TIP3    H236287   4.370   6.617   3.379 -0.2104 -0.0572  1.5550
 4958TIP3   OH236288   2.444   3.604  12.346 -0.6539 -0.3208 -0.5870
 4958TIP3    H136289   2.389   3.578  12.273  1.0253 -3.0848 -1.0042
 4958TIP3    H236290   2.529   3.625  12.306  0.1820 -1.5284  0.4801
 4959TIP3   OH236291   2.705   3.018  11.577 -0.6659  0.2001  0.5209
 4959TIP3    H136292   2.702   3.114  11.584  0.6640  0.3878 -0.9513
 4959TIP3    H236293   2.623   2.989  11.616 -0.5980  1.8673  2.0251
 4960TIP3   OH236294   4.263   2.219   1.497 -0.2038  0.4718 -0.0103
 4960TIP3    H136295   4.301   2.307   1.496  0.1832  0.3245 -2.2185
 4960TIP3    H236296   4.303   2.177   1.574  1.2489  1.5410 -0.1345
 4961TIP3   OH236297   4.652   6.558   1.710  0.2022  0.1793  0.2318
 4961TIP3    H136298   4.716   6.629   1.708 -1.3872  1.7035 -2.1179
 4961TIP3    H236299   4.692   6.488   1.658  0.7295  0.3491  0.4035
 4962TIP3   OH236300   4.413   3.582   4.631 -0.2705 -0.1545  0.2801
 4962TIP3    H136301   4.357   3.629   4.693  1.3589  2.1624  0.1179
 4962TIP3    H236302   4.382   3.611   4.545  1.3120  1.4409  0.1937
 4963TIP3   OH236303   2.688   3.466  16.058  0.1016  0.1212 -0.2283
 4963TIP3    H136304   2.617   3.404  16.071  0.2588 -0.2759 -1.1663
 4963TIP3    H236305   2.644   3.548  16.035 -0.0907  0.2453  0.5659
 4964TIP3   OH236306   0.149   4.345   4.819  0.0061  0.2599 -0.0501
 4964TIP3    H136307   0.163   4.277   4.885  0.1036 -0.9752 -1.2948
 4964TIP3    H236308   0.204   4.418   4.848  0.3486 -0.4033  1.0148
 4965TIP3   OH236309   0.733   1.958   3.542 -0.5787  0.4166 -0.0696
 4965TIP3    H136310   0.795   1.911   3.486  0.4526  2.1345 -0.4434
 4965TIP3    H236311   0.784   2.029   3.579 -2.2881  1.8002 -0.2510
 4966TIP3   OH236312   5.204   4.013   1.589  0.0475  0.0220  0.5223
 4966TIP3    H136313   5.119   4.016   1.634 -0.1825 -0.0130  0.0909
 4966TIP3    H236314   5.265   4.051   1.652 -0.2179 -0.3213  0.9965
 4967TIP3   OH236315   5.881   4.099  10.683  0.4233 -0.8833  0.1900
 4967TIP3    H136316   5.811   4.158  10.712 -0.1913 -1.7668  0.5779
 4967TIP3    H236317   5.930   4.149  10.618  1.5508  0.9985  2.3614
 4968TIP3   OH236318   5.374   5.004   0.247  0.6661 -0.0283 -0.4687
 4968TIP3    H136319   5.294   4.954   0.263  0.2655  0.9172  0.6137
 4968TIP3    H236320   5.360   5.087   0.292  3.5334 -1.0475  2.7620
 4969TIP3   OH236321   2.348   6.576  13.033  0.2532  0.1820 -0.1798
 4969TIP3    H136322   2.320   6.544  13.119  0.9957 -0.7294 -0.2645
 4969TIP3    H236323   2.275   6.631  13.003  0.1147  0.7351  1.1486
 4970TIP3   OH236324   6.720   4.003   3.108  0.1690 -0.2657 -0.0871
 4970TIP3    H136325   6.657   4.013   3.179 -0.6692  0.9681 -0.9606
 4970TIP3    H236326   6.804   3.993   3.152 -0.3838 -0.0014  1.0701
 4971TIP3   OH236327   0.270   1.470  16.052  0.1555 -0.1607  0.3001
 4971TIP3    H136328   0.209   1.490  16.123 -2.1540 -1.4499 -1.2043
 4971TIP3    H236329   0.258   1.540  15.989 -0.3431 -0.7965 -0.3301
 4972TIP3   OH236330   1.377   2.752   0.375  0.1690  0.4715  0.3902
 4972TIP3    H136331   1.346   2.741   0.464 -2.1731  0.5839 -0.3515
 4972TIP3    H236332   1.334   2.682   0.325  0.6297  1.0163 -0.8165
 4973TIP3   OH236333   2.569   0.025  13.836  0.1806  0.2688  0.2953
 4973TIP3    H136334   2.609   0.083  13.771  0.1075 -1.6548 -1.5876
 4973TIP3    H236335   2.478   0.053  13.839  0.5500  1.4716  0.8782
 4974TIP3   OH236336   3.225   4.696   5.674  0.1152  0.1182 -0.3984
 4974TIP3    H136337   3.173   4.632   5.624  1.5466 -0.9032 -0.6360
 4974TIP3    H236338   3.163   4.766   5.694 -1.1740 -0.7155 -1.2851
 4975TIP3   OH236339   0.248   0.635  16.064 -0.2805  0.5152 -0.8445
 4975TIP3    H136340   0.233   0.728  16.045  0.4611  0.6130 -0.9906
 4975TIP3    H236341   0.327   0.634  16.119 -0.0322 -0.0486 -1.1994
 4976TIP3   OH236342   3.472   5.311   5.186 -0.7647  0.2081 -0.8496
 4976TIP3    H136343   3.473   5.268   5.100 -1.2699  0.0528 -0.7798
 4976TIP3    H236344   3.404   5.265   5.235  0.6558 -0.8443  0.2232
 4977TIP3   OH236345   2.159   6.644  13.918 -0.1132 -0.3577 -0.2476
 4977TIP3    H136346   2.206   6.723  13.944 -0.0832 -0.4719  0.0587
 4977TIP3    H236347   2.215   6.572  13.947  0.0555 -0.4914 -0.8981
 4978TIP3   OH236348   1.527   3.805   2.409  0.0529 -0.1951 -0.1530
 4978TIP3    H136349   1.456   3.746   2.382  0.2160 -0.5580  0.1956
 4978TIP3    H236350   1.527   3.801   2.505  0.7033 -0.3908 -0.1558
 4979TIP3   OH236351   4.299   4.851   5.743 -0.0273 -0.7032  0.3667
 4979TIP3    H136352   4.268   4.877   5.830  0.2183 -0.2117  0.3097
 4979TIP3    H236353   4.345   4.928   5.710 -1.6750 -0.2582 -0.9655
 4980TIP3   OH236354   1.080   2.063   0.790  0.3361 -0.1498 -0.0372
 4980TIP3    H136355   1.112   2.137   0.738  0.2811 -0.0731  0.0375
 4980TIP3    H236356   1.148   2.049   0.856  0.9655 -0.9995 -0.8469
 4981TIP3   OH236357   6.182   0.147  11.094 -0.3555  0.5305  0.2136
 4981TIP3    H136358   6.257   0.160  11.036 -0.2276  1.3931  0.5600
 4981TIP3    H236359   6.110   0.125  11.035  0.7514 -3.4816  0.0366
 4982TIP3   OH236360   0.371   6.162   3.574  0.3362 -0.0579  0.0767
 4982TIP3    H136361   0.346   6.247   3.539 -0.1290 -0.1174  0.2556
 4982TIP3    H236362   0.325   6.156   3.658 -0.5362 -0.9557 -0.4489
 4983TIP3   OH236363   3.876   0.036   0.468 -0.3025  0.2204  0.0233
 4983TIP3    H136364   3.961   0.069   0.439  1.4586  0.3144  4.5658
 4983TIP3    H236365   3.813   0.104   0.440  1.5253  1.6812 -0.7421
 4984TIP3   OH236366   3.638   3.849   0.529 -0.2630 -0.5436 -0.1279
 4984TIP3    H136367   3.673   3.820   0.445 -1.2033 -0.3748 -0.5936
 4984TIP3    H236368   3.566   3.908   0.506  1.0912  1.6152  0.7612
 4985TIP3   OH236369   4.785   0.228   4.021  0.3929 -0.3456  0.0542
 4985TIP3    H136370   4.779   0.264   3.932 -1.2684  0.0824  0.3153
 4985TIP3    H236371   4.762   0.136   4.011  1.4085 -0.5975 -0.1164
 4986TIP3   OH236372   4.027   1.206  16.878 -0.3722  0.6545 -0.6712
 4986TIP3    H136373   4.121   1.188  16.870 -0.3043  1.1172 -0.9793
 4986TIP3    H236374   3.984   1.129  16.841 -0.1063  0.6532 -0.9853
 4987TIP3   OH236375   5.858   4.381  13.848 -0.1552 -0.5101  0.2566
 4987TIP3    H136376   5.796   4.309  13.842 -2.9572  1.6841  0.9365
 4987TIP3    H236377   5.911   4.360  13.926 -1.9877 -1.0913  1.4040
 4988TIP3   OH236378   4.773   2.034   4.711  0.2413 -0.7106 -0.1770
 4988TIP3    H136379   4.730   2.017   4.795  1.1643 -0.5554  0.3292
 4988TIP3    H236380   4.770   1.950   4.666 -0.6913 -0.6793 -0.2068
 4989TIP3   OH236381   5.432   5.851   5.586  0.1543 -0.5493  0.4492
 4989TIP3    H136382   5.461   5.889   5.669  0.0750 -1.6075  0.9812
 4989TIP3    H236383   5.513   5.818   5.545  0.1741 -0.1599  0.1671
 4990TIP3   OH236384   2.719   5.622  11.891  0.0940  0.0417  0.3736
 4990TIP3    H136385   2.631   5.600  11.922 -0.2016 -1.6548 -1.5219
 4990TIP3    H236386   2.775   5.552  11.925  0.2165 -0.3912 -0.7039
 4991TIP3   OH236387   4.894   2.109   0.106 -0.6106  0.2624 -0.0097
 4991TIP3    H136388   4.945   2.190   0.118 -1.3989  0.4584  2.9160
 4991TIP3    H236389   4.813   2.138   0.064 -0.1279  0.6804 -0.6715
 4992TIP3   OH236390   0.482   2.947  16.077 -0.8578  0.3167  1.0073
 4992TIP3    H136391   0.505   3.039  16.082 -0.1578  0.1563  0.9264
 4992TIP3    H236392   0.388   2.946  16.060 -0.8232  1.0149  0.7456
 4993TIP3   OH236393   1.852   1.032  15.157  0.1638 -0.5617  0.2952
 4993TIP3    H136394   1.911   1.100  15.189  0.4248 -0.8087  0.3400
 4993TIP3    H236395   1.834   0.979  15.235 -0.5185 -0.1976  0.3978
 4994TIP3   OH236396   4.773   4.769   4.341 -0.0914  0.3893 -0.2214
 4994TIP3    H136397   4.804   4.811   4.421  1.0261  0.9650 -0.9425
 4994TIP3    H236398   4.684   4.802   4.329 -0.5491 -0.2560  1.1499
 4995TIP3   OH236399   1.112   3.880  12.704  0.4844 -0.2551 -0.6612
 4995TIP3    H136400   1.168   3.840  12.769  0.0800 -0.5610 -0.4976
 4995TIP3    H236401   1.172   3.916  12.639  0.8609 -1.1485 -0.8271
 4996TIP3   OH236402   4.231   6.726   5.817  0.2396 -0.2524 -0.4216
 4996TIP3    H136403   4.272   6.801   5.860 -1.2014  1.9471 -2.6609
 4996TIP3    H236404   4.153   6.761   5.775 -0.7528 -3.1207 -1.2255
 4997TIP3   OH236405   2.457   3.552  15.432 -0.8079 -0.4049  0.1783
 4997TIP3    H136406   2.441   3.595  15.516  2.3648  1.7309 -0.1456
 4997TIP3    H236407   2.407   3.605  15.369  0.3186  0.7281  0.2156
 4998TIP3   OH236408   1.418   6.407  11.586  0.3357  0.3221 -0.1707
 4998TIP3    H136409   1.422   6.488  11.637  0.3056 -0.7391  1.6194
 4998TIP3    H236410   1.504   6.401  11.544  1.0589  0.3792  1.2197
 4999TIP3   OH236411   1.013   0.839  16.873 -0.9805 -0.0948 -0.0062
 4999TIP3    H136412   0.954   0.895  16.925 -1.9060 -0.8356 -0.2361
 4999TIP3    H236413   1.069   0.797  16.938 -0.2972  1.0408  0.1771
 5000TIP3   OH236414   3.992   3.587   3.374 -0.9301  0.1789 -0.1766
 5000TIP3    H136415   3.922   3.551   3.429  0.4840 -1.7903  0.4106
 5000TIP3    H236416   3.981   3.543   3.290 -1.0142  0.6360 -0.4056
 5001TIP3   OH236417   4.179   5.239   0.105 -0.0981  0.0623 -0.0977
 5001TIP3    H136418   4.182   5.157   0.055  0.0186  0.7012 -1.1688
 5001TIP3    H236419   4.227   5.302   0.051  0.1144  0.7544  0.8789
 5002TIP3   OH236420   4.786   3.340  11.636 -0.5950 -0.1504 -0.0477
 5002TIP3    H136421   4.837   3.275  11.684  1.3329 -0.7086 -2.5856
 5002TIP3    H236422   4.711   3.291  11.601 -0.7550 -0.2906  0.4942
 5003TIP3   OH236423   4.776   3.661  16.241  0.4530 -0.0834 -0.2681
 5003TIP3    H136424   4.864   3.699  16.241  0.1396  0.8766 -3.0423
 5003TIP3    H236425   4.785   3.581  16.190 -0.3172  0.2130 -0.8921
 5004TIP3   OH236426   1.834   3.690  13.844  0.3930  0.0856 -0.1242
 5004TIP3    H136427   1.894   3.700  13.770  2.8035  1.2366  1.8319
 5004TIP3    H236428   1.862   3.609  13.887 -0.2439  0.0199  0.1833
 5005TIP3   OH236429   3.739   4.753  10.782 -0.2527  0.4640  0.1572
 5005TIP3    H136430   3.753   4.660  10.799 -0.3859  0.2979 -0.6217
 5005TIP3    H236431   3.788   4.797  10.852  0.5912 -0.1679 -0.0168
 5006TIP3   OH236432   1.050   2.513   0.720 -0.1385 -0.3817  0.1802
 5006TIP3    H136433   1.113   2.576   0.684  0.5569 -1.3019 -0.2494
 5006TIP3    H236434   1.014   2.557   0.797 -0.6920  1.0913 -0.8828
 5007TIP3   OH236435   4.534   1.392   4.719  0.4569 -0.1230  0.7347
 5007TIP3    H136436   4.494   1.374   4.804  1.2359  1.7419  1.5639
 5007TIP3    H236437   4.594   1.465   4.736  1.0993 -0.1129 -1.3013
 5008TIP3   OH236438   2.657   3.870  15.566  0.0839 -0.1395 -0.2771
 5008TIP3    H136439   2.576   3.899  15.609 -0.0930  0.3715 -0.9536
 5008TIP3    H236440   2.694   3.806  15.627 -0.1599  0.5795  0.6540
 5009TIP3   OH236441   2.671   2.771   4.467 -0.1397 -0.6908 -0.0687
 5009TIP3    H136442   2.665   2.857   4.508  1.2704 -1.5542  2.0855
 5009TIP3    H236443   2.652   2.787   4.375  0.5636  2.0083  0.1865
 5010TIP3   OH236444   1.122   1.724  14.182 -0.5350 -0.2845  0.4268
 5010TIP3    H136445   1.164   1.709  14.098 -1.2162  1.5499 -0.2911
 5010TIP3    H236446   1.184   1.690  14.247 -0.0419 -1.7972 -0.8012
 5011TIP3   OH236447   2.970   4.191   3.953 -0.9533 -0.0195  0.1481
 5011TIP3    H136448   2.952   4.176   3.860 -1.1526  0.3697  0.1227
 5011TIP3    H236449   2.919   4.124   3.999  0.9089 -1.7077 -0.1134
 5012TIP3   OH236450   1.564   1.399  15.260 -0.6057  0.0806  0.1216
 5012TIP3    H136451   1.554   1.407  15.165  1.7952  1.7800 -0.0653
 5012TIP3    H236452   1.564   1.489  15.292  0.5982 -0.3779  1.4914
 5013TIP3   OH236453   4.545   3.905  10.961 -0.8334 -0.3316 -0.0182
 5013TIP3    H136454   4.577   3.850  11.034 -0.1732 -0.2449 -0.2307
 5013TIP3    H236455   4.458   3.871  10.942 -1.9907  1.0595  2.2762
 5014TIP3   OH236456   3.053   2.971  14.431 -0.8145  0.2847  0.1947
 5014TIP3    H136457   3.140   3.002  14.407 -0.4665 -1.6159 -1.2332
 5014TIP3    H236458   3.065   2.926  14.515 -0.7155  1.1909  0.6785
 5015TIP3   OH236459   6.639   5.939   0.663 -0.1788  0.1839  0.1955
 5015TIP3    H136460   6.597   5.981   0.738 -1.0051  1.5238 -0.9626
 5015TIP3    H236461   6.570   5.932   0.597  0.3750 -1.5165 -0.2523
 5016TIP3   OH236462   6.367   6.197   1.744  0.3500  0.4155 -0.0470
 5016TIP3    H136463   6.369   6.220   1.651  1.2482  0.4347 -0.0260
 5016TIP3    H236464   6.385   6.103   1.746  1.7050  0.6641  0.1835
 5017TIP3   OH236465   3.627   6.045  16.054 -0.3373  0.6654 -0.7781
 5017TIP3    H136466   3.720   6.067  16.050 -0.3255  0.7071 -0.3902
 5017TIP3    H236467   3.623   5.972  16.116 -0.2249 -1.2990 -2.9501
 5018TIP3   OH236468   0.293   4.163   4.475 -0.3797  0.0770  0.4453
 5018TIP3    H136469   0.216   4.121   4.512 -0.9813  1.8399  1.3385
 5018TIP3    H236470   0.304   4.243   4.527  1.9363 -0.0048  0.2055
 5019TIP3   OH236471   6.537   6.079   0.321  0.5625  0.8382  0.1428
 5019TIP3    H136472   6.449   6.099   0.291  0.3598  0.9126  0.7577
 5019TIP3    H236473   6.595   6.130   0.264  0.1596  1.5347  0.3466
 5020TIP3   OH236474   1.694   1.184  16.557 -0.1287  0.4203  0.1302
 5020TIP3    H136475   1.609   1.169  16.597 -0.4312  0.3110 -0.5501
 5020TIP3    H236476   1.677   1.242  16.483 -0.0247 -1.5985 -1.5587
 5021TIP3   OH236477   2.010   1.393   0.196  0.4350 -0.0741 -0.2854
 5021TIP3    H136478   1.959   1.459   0.150  0.8509  0.6005  0.1917
 5021TIP3    H236479   2.098   1.431   0.203 -0.0893  0.8867  2.9564
 5022TIP3   OH236480   3.175   3.758  12.050  0.1207 -0.1180  0.0886
 5022TIP3    H136481   3.256   3.706  12.055 -0.6687 -1.5833 -1.3502
 5022TIP3    H236482   3.116   3.718  12.114 -0.8348 -1.7430 -1.7108
 5023TIP3   OH236483   3.339   0.696   4.405  0.2109 -0.1763 -0.2085
 5023TIP3    H136484   3.248   0.719   4.389  0.2075  0.6697  0.8404
 5023TIP3    H236485   3.387   0.733   4.331 -0.1495  0.6657 -0.0371
 5024TIP3   OH236486   3.785   2.228  11.854 -0.9395  0.2634  0.6310
 5024TIP3    H136487   3.824   2.141  11.857  2.2860  1.5431 -0.1573
 5024TIP3    H236488   3.705   2.220  11.907 -1.0475 -3.2268  0.1993
 5025TIP3   OH236489   5.836   2.008  15.242  0.1094 -0.2889 -0.0984
 5025TIP3    H136490   5.890   1.971  15.172  0.3334  1.0573 -0.6780
 5025TIP3    H236491   5.889   2.081  15.276  0.5006 -1.5666  2.2505
 5026TIP3   OH236492   1.006   6.715   2.778  0.0162  0.8908  0.2033
 5026TIP3    H136493   0.991   6.671   2.861 -0.7675  0.2421 -0.2685
 5026TIP3    H236494   0.921   6.712   2.733  0.8721 -0.5440 -1.4552
 5027TIP3   OH236495   1.232   3.296   1.126  0.4527 -0.2075 -0.8537
 5027TIP3    H136496   1.187   3.213   1.110 -2.0052  0.2495  2.5350
 5027TIP3    H236497   1.162   3.357   1.151  2.5238  1.8446  0.3357
 5028TIP3   OH236498   4.537   2.255   0.240  0.5999  0.0199 -0.0267
 5028TIP3    H136499   4.595   2.309   0.187  0.2601 -1.3041 -1.8406
 5028TIP3    H236500   4.545   2.291   0.328  0.8310  2.5990 -1.0262
 5029TIP3   OH236501   4.362   4.360  14.689 -0.2895  0.7449 -0.7037
 5029TIP3    H136502   4.324   4.382  14.603 -0.3399 -3.2544 -1.9053
 5029TIP3    H236503   4.289   4.328  14.740  0.2099  0.4672 -0.1519
 5030TIP3   OH236504   6.424   0.158  12.168  0.2218  0.2564 -0.3932
 5030TIP3    H136505   6.442   0.065  12.183 -0.1953  0.1489 -0.5535
 5030TIP3    H236506   6.447   0.201  12.251  0.1485 -0.0283 -0.2249
 5031TIP3   OH236507   3.464   2.164  14.053 -0.2444  0.0011  0.2893
 5031TIP3    H136508   3.467   2.214  14.134  0.1706 -1.2573  1.0662
 5031TIP3    H236509   3.401   2.094  14.069 -0.3467 -0.1211 -0.5660
 5032TIP3   OH236510   4.905   0.777  14.035  0.0158 -0.5983  0.1297
 5032TIP3    H136511   4.978   0.796  13.976  0.3202 -0.4713  0.5387
 5032TIP3    H236512   4.827   0.777  13.978  0.3975 -1.3044 -0.4070
 5033TIP3   OH236513   2.789   2.782  15.678  0.2013 -0.2117  0.2995
 5033TIP3    H136514   2.798   2.701  15.628 -0.3774  0.7006 -1.3823
 5033TIP3    H236515   2.878   2.811  15.693  0.3983 -0.1786 -0.8174
 5034TIP3   OH236516   2.924   1.090   2.701  0.0771  0.7355 -0.2587
 5034TIP3    H136517   2.874   1.167   2.726 -0.6554 -0.3512  1.9480
 5034TIP3    H236518   2.858   1.024   2.679  0.6038  0.0685  0.1086
 5035TIP3   OH236519   0.382   4.920   3.741  0.7544 -0.4920 -0.2587
 5035TIP3    H136520   0.392   4.847   3.680  0.2209  0.5957 -1.7139
 5035TIP3    H236521   0.293   4.912   3.774  0.5709 -0.3062 -0.7000
 5036TIP3   OH236522   4.155   6.349  16.232 -0.3899 -0.8520 -0.1031
 5036TIP3    H136523   4.119   6.266  16.266  2.7581 -1.4994  2.1027
 5036TIP3    H236524   4.140   6.412  16.303 -1.7941  0.2744 -1.3340
 5037TIP3   OH236525   0.155   6.179   6.075 -0.1005 -0.0410 -0.0233
 5037TIP3    H136526   0.138   6.211   6.164 -1.4477 -1.0449  0.1003
 5037TIP3    H236527   0.251   6.182   6.068 -0.0522  2.2118  0.6135
 5038TIP3   OH236528   2.199   1.870   0.166 -0.9473 -0.1477 -0.7533
 5038TIP3    H136529   2.189   1.775   0.167  0.1156 -0.2748 -0.7453
 5038TIP3    H236530   2.293   1.884   0.179 -0.7635  0.8384 -2.8346
 5039TIP3   OH236531   4.399   3.489   4.331 -0.2698  0.1400 -0.3240
 5039TIP3    H136532   4.458   3.563   4.341  1.0255 -0.7087 -1.2955
 5039TIP3    H236533   4.340   3.516   4.261 -0.1244  0.4493 -0.3319
 5040TIP3   OH236534   4.454   2.302  10.813  0.2180  0.4152  0.0214
 5040TIP3    H136535   4.482   2.291  10.904  1.0459  0.4103 -0.2258
 5040TIP3    H236536   4.422   2.393  10.808 -1.2528 -0.0346  0.6677
 5041TIP3   OH236537   6.454   5.768   2.110 -0.0015 -0.8034  0.4337
 5041TIP3    H136538   6.467   5.861   2.094  0.5291 -1.1328 -1.2588
 5041TIP3    H236539   6.405   5.764   2.192 -0.1954  0.9579  0.4364
 5042TIP3   OH236540   4.154   2.111  14.919 -0.5591 -0.3066  0.5382
 5042TIP3    H136541   4.097   2.101  14.843  0.0824 -2.6110  0.2674
 5042TIP3    H236542   4.233   2.153  14.886 -0.4985 -0.8144  0.0138
 5043TIP3   OH236543   3.798   2.571  16.209 -0.0385  0.1689 -0.1968
 5043TIP3    H136544   3.719   2.517  16.204  0.5763 -0.6402 -2.0722
 5043TIP3    H236545   3.865   2.520  16.164  0.5361  2.5327 -2.2853
 5044TIP3   OH236546   5.892   1.290   3.940 -0.2318 -0.1362 -0.0795
 5044TIP3    H136547   5.876   1.204   3.979  0.7250 -0.0834  0.4342
 5044TIP3    H236548   5.971   1.278   3.887  0.3631  0.6286  0.6256
 5045TIP3   OH236549   1.971   5.030  14.755 -0.2344 -0.3630  0.0634
 5045TIP3    H136550   2.014   5.110  14.726 -0.2439 -0.2009  0.4773
 5045TIP3    H236551   2.014   4.960  14.706 -0.0681 -0.1244 -0.1339
 5046TIP3   OH236552   3.653   3.536   1.788  0.8219 -0.0919 -0.2788
 5046TIP3    H136553   3.721   3.516   1.723 -0.5857 -2.4995 -1.1533
 5046TIP3    H236554   3.664   3.469   1.855 -0.5045 -0.3573 -0.3032
 5047TIP3   OH236555   6.026   4.475  14.791  0.2995  0.1544  0.2015
 5047TIP3    H136556   5.953   4.527  14.824  0.1133  0.0823 -0.0888
 5047TIP3    H236557   6.057   4.426  14.867 -1.6176 -1.7957 -0.1573
 5048TIP3   OH236558   4.053   5.977  12.192 -0.3058 -0.3286 -0.1003
 5048TIP3    H136559   3.988   6.038  12.226 -1.0279 -1.2579  0.2332
 5048TIP3    H236560   4.131   5.993  12.245 -1.1376 -1.1324  1.4341
 5049TIP3   OH236561   3.986   5.228   0.301  0.4901 -0.1541  0.4656
 5049TIP3    H136562   3.919   5.173   0.261 -0.2787 -1.0464  2.8016
 5049TIP3    H236563   4.042   5.255   0.229 -0.3892 -2.2102 -1.0697
 5050TIP3   OH236564   5.764   4.728  16.737  0.7743 -0.4666  0.4042
 5050TIP3    H136565   5.818   4.656  16.770 -2.3249 -2.9853  0.4730
 5050TIP3    H236566   5.751   4.708  16.645  1.5147  1.2172 -0.1006
 5051TIP3   OH236567   2.014   0.420  15.956  0.7251 -0.0258  0.1678
 5051TIP3    H136568   2.036   0.467  15.875  0.9122 -0.4290 -0.0144
 5051TIP3    H236569   2.077   0.452  16.020  0.1297  0.8311  0.3513
 5052TIP3   OH236570   1.487   2.958  13.365  0.0037  0.1742 -0.4792
 5052TIP3    H136571   1.491   2.872  13.323  0.7633 -0.3598  0.6484
 5052TIP3    H236572   1.568   2.964  13.416 -0.2505  1.3756 -0.1789
 5053TIP3   OH236573   2.404   1.430   1.192  1.1088 -0.0222 -0.1785
 5053TIP3    H136574   2.462   1.371   1.145  0.9012 -0.0119 -0.4466
 5053TIP3    H236575   2.427   1.418   1.284  2.1758  0.6570 -0.3448
 5054TIP3   OH236576   3.680   1.694   2.979  0.3420 -0.1844  0.0332
 5054TIP3    H136577   3.599   1.745   2.986  0.5272  0.1334 -0.1148
 5054TIP3    H236578   3.662   1.614   3.028 -0.2234 -0.3225 -0.3927
 5055TIP3   OH236579   0.604   2.660  12.420 -0.4530 -0.0086 -0.1380
 5055TIP3    H136580   0.622   2.566  12.419  0.8342  0.2297 -0.8381
 5055TIP3    H236581   0.572   2.677  12.509  1.9769 -0.6540  0.9480
 5056TIP3   OH236582   1.994   5.539  13.041  0.5869  0.2637  0.1262
 5056TIP3    H136583   1.902   5.561  13.059  1.1435  2.0744  1.0396
 5056TIP3    H236584   2.021   5.602  12.974  0.8444 -1.1080 -1.1166
 5057TIP3   OH236585   1.990   1.305   1.536  0.3159  0.0535 -0.3778
 5057TIP3    H136586   2.034   1.239   1.482  0.9839 -0.5602  0.8606
 5057TIP3    H236587   1.911   1.261   1.568  0.3920  0.0932 -0.1307
 5058TIP3   OH236588   4.923   2.407  14.583  0.8354  0.1249 -0.0487
 5058TIP3    H136589   4.835   2.382  14.557  1.1204  1.1509 -2.2274
 5058TIP3    H236590   4.975   2.328  14.574  0.1882 -0.4883  1.2600
 5059TIP3   OH236591   1.791   1.500  12.842  0.3040  0.2876  0.2719
 5059TIP3    H136592   1.730   1.490  12.769  0.3385  1.4723  0.0550
 5059TIP3    H236593   1.796   1.413  12.882 -1.0921  0.0436 -0.0459
 5060TIP3   OH236594   1.899   6.232  14.599 -0.0670  0.0062 -0.0141
 5060TIP3    H136595   1.947   6.211  14.518 -0.7394 -0.2162 -0.3654
 5060TIP3    H236596   1.813   6.262  14.568  0.0388  0.9531  0.5800
 5061TIP3   OH236597   5.518   6.541  13.125  0.3949 -0.1534 -0.2179
 5061TIP3    H136598   5.441   6.569  13.076  0.0368 -1.4031 -0.3960
 5061TIP3    H236599   5.493   6.548  13.217 -0.2966 -1.5300 -0.2898
 5062TIP3   OH236600   2.820   0.527  14.350 -0.5570 -0.7808 -0.2690
 5062TIP3    H136601   2.914   0.516  14.368 -0.0505  0.8136 -1.6008
 5062TIP3    H236602   2.783   0.560  14.432  0.5439  0.8395 -0.3650
 5063TIP3   OH236603   2.331   3.265  11.040 -0.8379 -0.2755 -0.2979
 5063TIP3    H136604   2.391   3.239  10.970 -0.6468 -0.2878 -0.1293
 5063TIP3    H236605   2.322   3.186  11.094 -1.1598 -0.3345 -0.4301
 5064TIP3   OH236606   1.943   1.058  12.166 -0.0063 -0.0379 -0.4143
 5064TIP3    H136607   1.932   1.130  12.228  0.4449 -0.6482  0.3946
 5064TIP3    H236608   1.861   1.056  12.116  0.6461  2.1510 -1.6944
 5065TIP3   OH236609   1.415   3.854   1.705  0.5661  0.2823  0.0686
 5065TIP3    H136610   1.381   3.821   1.788  1.3325 -1.5783 -0.3049
 5065TIP3    H236611   1.344   3.908   1.670  0.5741  1.8957  2.3163
 5066TIP3   OH236612   4.170   4.224   5.765  0.1446 -0.0797 -0.6150
 5066TIP3    H136613   4.235   4.261   5.825 -0.8778 -0.2336  0.6376
 5066TIP3    H236614   4.184   4.270   5.682  4.2806 -2.6416 -1.6375
 5067TIP3   OH236615   1.940   2.048  12.966  0.2677  0.0072  0.2342
 5067TIP3    H136616   1.892   2.127  12.991 -0.6848  0.5412 -2.8316
 5067TIP3    H236617   2.031   2.066  12.989 -0.1015  1.5015  0.6216
 5068TIP3   OH236618   6.340   4.287   5.732  0.2738  0.0918  0.2426
 5068TIP3    H136619   6.401   4.353   5.764  1.6164 -1.3296  0.7568
 5068TIP3    H236620   6.357   4.281   5.638 -0.5698  1.1656  0.0076
 5069TIP3   OH236621   5.756   6.803  13.191  0.2263 -0.3790 -0.3336
 5069TIP3    H136622   5.748   6.853  13.110  2.6225  0.5037 -0.1063
 5069TIP3    H236623   5.795   6.720  13.165  2.8177  0.6223  0.0170
 5070TIP3   OH236624   1.750   3.255  11.082  0.1791 -0.5991 -0.4475
 5070TIP3    H136625   1.700   3.180  11.114  2.4279 -1.8654  0.3032
 5070TIP3    H236626   1.828   3.217  11.041  0.5906  1.2802 -1.5214
 5071TIP3   OH236627   4.584   1.027  16.081  0.0460  0.0065 -0.5270
 5071TIP3    H136628   4.665   1.016  16.130 -1.1989  1.1380  1.9715
 5071TIP3    H236629   4.612   1.045  15.991  2.4345 -2.9126 -0.5116
 5072TIP3   OH236630   0.842   4.683   6.043  0.2161 -0.0075  0.5347
 5072TIP3    H136631   0.752   4.679   6.075 -0.0870  1.8866  0.0253
 5072TIP3    H236632   0.889   4.620   6.097 -1.5381 -1.6437  0.2808
 5073TIP3   OH236633   1.248   2.834   0.940 -0.0168 -0.0478 -0.1050
 5073TIP3    H136634   1.310   2.906   0.949  0.6224 -0.5952 -0.1368
 5073TIP3    H236635   1.249   2.813   0.847 -1.2926  0.8525 -0.3559
 5074TIP3   OH236636   0.194   6.729   2.114 -0.2913 -0.0031  0.2633
 5074TIP3    H136637   0.200   6.641   2.152 -1.1524 -0.5931 -0.9357
 5074TIP3    H236638   0.210   6.787   2.188 -0.0928 -1.1556  1.1605
 5075TIP3   OH236639   2.650   5.104   2.872  0.5478  0.6949  0.4169
 5075TIP3    H136640   2.610   5.119   2.787 -0.1205 -0.6159  0.4751
 5075TIP3    H236641   2.744   5.117   2.857  0.2521  2.8257  0.0583
 5076TIP3   OH236642   2.789   3.055  13.870  0.4409  0.1406 -0.2535
 5076TIP3    H136643   2.855   3.119  13.841 -0.1390  0.8811  0.0257
 5076TIP3    H236644   2.828   3.016  13.949  1.2137 -0.5510 -0.9575
 5077TIP3   OH236645   6.534   3.642   2.166 -0.8240 -0.1170  0.0294
 5077TIP3    H136646   6.588   3.568   2.195 -1.5894 -0.5834  0.3178
 5077TIP3    H236647   6.565   3.716   2.218  0.7902  0.0679 -1.1470
 5078TIP3   OH236648   6.428   5.929   0.935  0.2772  0.3076  0.7396
 5078TIP3    H136649   6.332   5.930   0.933  0.2293 -0.5955  1.5686
 5078TIP3    H236650   6.450   5.852   0.988  1.4824 -1.1599 -1.6835
 5079TIP3   OH236651   6.385   4.968  13.695  0.4160 -0.2062 -0.1813
 5079TIP3    H136652   6.430   4.965  13.611 -0.7444  0.6335 -0.8668
 5079TIP3    H236653   6.292   4.962  13.673 -0.0148  1.6134  0.8959
 5080TIP3   OH236654   0.537   2.211  14.884  0.0289 -0.4692 -0.5880
 5080TIP3    H136655   0.480   2.239  14.812  0.1993  2.0588  0.1502
 5080TIP3    H236656   0.619   2.185  14.840 -0.0923  0.4074 -1.3763
 5081TIP3   OH236657   3.631   5.263   3.679 -0.5781  0.1342  0.6734
 5081TIP3    H136658   3.689   5.303   3.613 -0.6919 -1.6614 -0.6108
 5081TIP3    H236659   3.683   5.190   3.714 -0.9680  0.3565  1.7371
 5082TIP3   OH236660   1.727   5.658   0.930  0.1994 -0.3264 -0.0670
 5082TIP3    H136661   1.795   5.661   0.862 -0.3257 -1.6579 -0.6821
 5082TIP3    H236662   1.654   5.707   0.893  0.0240 -0.7907 -0.3398
 5083TIP3   OH236663   3.753   3.908   5.377 -0.0751 -0.2979 -0.0980
 5083TIP3    H136664   3.847   3.895   5.385 -0.1796 -1.4723 -0.6850
 5083TIP3    H236665   3.718   3.824   5.348 -1.4529 -0.2255  1.1867
 5084TIP3   OH236666   0.190   1.973  11.591  0.0395  0.5623  0.0686
 5084TIP3    H136667   0.138   2.035  11.642  0.9780  0.6519  0.9482
 5084TIP3    H236668   0.183   2.005  11.501 -0.5752  1.1677  0.3179
 5085TIP3   OH236669   1.627   0.890  14.305 -0.1733  0.3008  0.1091
 5085TIP3    H136670   1.652   0.800  14.284 -0.6239 -0.2382  1.7481
 5085TIP3    H236671   1.632   0.895  14.401  2.7340  2.8624  0.0072
 5086TIP3   OH236672   2.013   3.366   2.430 -0.4591  0.0498 -0.9340
 5086TIP3    H136673   1.993   3.342   2.521 -0.8732 -1.8925 -1.4827
 5086TIP3    H236674   1.967   3.448   2.416 -0.3503  0.4083  0.6178
 5087TIP3   OH236675   3.413   5.137   2.030  0.1331 -0.7499  0.4642
 5087TIP3    H136676   3.508   5.125   2.021  0.4943  1.8009  0.1757
 5087TIP3    H236677   3.396   5.127   2.123  0.5533 -1.8162  0.4457
 5088TIP3   OH236678   1.232   3.911   0.562  0.2495 -0.0421 -0.0456
 5088TIP3    H136679   1.271   3.952   0.640  1.5155  1.5997 -1.4823
 5088TIP3    H236680   1.288   3.835   0.544  0.1520 -0.2303  0.4219
 5089TIP3   OH236681   6.093   1.524  16.769 -0.4669  0.3566  0.0987
 5089TIP3    H136682   6.037   1.525  16.691 -0.1633 -0.9645 -0.1646
 5089TIP3    H236683   6.167   1.580  16.746  0.1753 -0.9047 -1.0211
 5090TIP3   OH236684   4.625   3.864  16.337 -0.0971  0.2964  0.2371
 5090TIP3    H136685   4.667   3.797  16.283 -1.0667 -0.9500  0.9677
 5090TIP3    H236686   4.594   3.816  16.414  0.3271  1.8436  1.4070
 5091TIP3   OH236687   6.279   4.179  10.413  0.5267 -0.5201 -0.1404
 5091TIP3    H136688   6.314   4.098  10.449 -0.2996  0.5384  3.4556
 5091TIP3    H236689   6.345   4.245  10.432 -1.1736  0.6115  2.3164
 5092TIP3   OH236690   0.718   5.663  15.839  0.1646  0.4993  0.1284
 5092TIP3    H136691   0.727   5.680  15.933 -1.7479  1.9917  0.1087
 5092TIP3    H236692   0.626   5.636  15.829  1.4086 -4.3729 -0.7527
 5093TIP3   OH236693   5.825   4.671  14.469  0.1351  0.6881 -0.3220
 5093TIP3    H136694   5.756   4.630  14.521  0.4138 -0.0238 -0.5005
 5093TIP3    H236695   5.800   4.763  14.463 -0.0019  0.7397  0.9008
 5094TIP3   OH236696   2.781   0.511   0.510  0.3910  0.0312  0.0596
 5094TIP3    H136697   2.789   0.517   0.415 -1.5388 -0.2015 -0.1492
 5094TIP3    H236698   2.811   0.596   0.543  1.5311 -0.0598 -0.6988
 5095TIP3   OH236699   2.048   4.218  14.479 -0.0482 -0.4711  0.1243
 5095TIP3    H136700   2.063   4.197  14.571  2.1587  1.2304  0.2404
 5095TIP3    H236701   2.129   4.192  14.435 -0.2887  0.5606 -0.9826
 5096TIP3   OH236702   4.391   5.263  13.578 -0.1447 -0.0302 -0.2260
 5096TIP3    H136703   4.319   5.233  13.523 -1.4466  1.0682  0.8276
 5096TIP3    H236704   4.460   5.198  13.564 -1.0698 -0.7223 -1.7918
 5097TIP3   OH236705   5.418   6.166   4.832 -0.0249  0.2838 -0.4675
 5097TIP3    H136706   5.396   6.240   4.776  1.5480  1.3740  0.2781
 5097TIP3    H236707   5.500   6.132   4.795  0.1745  0.0079  0.2141
 5098TIP3   OH236708   2.891   1.802   5.195 -0.4141  0.0920 -0.1560
 5098TIP3    H136709   2.839   1.879   5.169 -0.0680  0.5272  0.4228
 5098TIP3    H236710   2.958   1.837   5.252 -1.2685 -0.8571  1.5010
 5099TIP3   OH236711   4.441   1.501   4.043 -0.5269 -0.6198 -0.5202
 5099TIP3    H136712   4.447   1.509   3.948 -0.5910 -0.9697 -0.5571
 5099TIP3    H236713   4.514   1.443   4.066 -1.1236 -1.3825 -0.4789
 5100TIP3   OH236714   1.746   5.947  16.137 -0.0958  0.0957 -0.0061
 5100TIP3    H136715   1.834   5.946  16.174 -0.1058  2.4524  0.2337
 5100TIP3    H236716   1.692   5.901  16.201  0.5937  0.5853  0.9555
 5101TIP3   OH236717   3.773   0.866   2.043 -0.3146  0.0240 -0.3125
 5101TIP3    H136718   3.756   0.817   2.123  0.4975 -0.7465 -0.5847
 5101TIP3    H236719   3.856   0.830   2.011  1.3460  2.8781  0.4515
 5102TIP3   OH236720   0.607   4.170  13.832  0.5066  0.5627 -0.0312
 5102TIP3    H136721   0.624   4.164  13.738  0.4008 -0.2702  0.0018
 5102TIP3    H236722   0.682   4.128  13.873  0.4608  0.7522  0.2493
 5103TIP3   OH236723   3.781   2.781   3.050 -0.4688 -0.2811 -0.2515
 5103TIP3    H136724   3.723   2.857   3.041 -0.1858  0.2711  2.0533
 5103TIP3    H236725   3.833   2.800   3.128 -0.3720 -2.8449  0.3811
 5104TIP3   OH236726   3.642   0.926   4.217 -0.0029 -0.3031 -0.0714
 5104TIP3    H136727   3.613   0.835   4.211  1.5930 -0.8423 -0.0227
 5104TIP3    H236728   3.737   0.921   4.216  0.1150  1.3689  0.0744
 5105TIP3   OH236729   2.744   1.996  14.039  0.4450 -0.2343  0.0477
 5105TIP3    H136730   2.784   1.931  13.980 -0.0518 -0.9980  0.5419
 5105TIP3    H236731   2.752   1.957  14.126  0.1026  0.3565  0.3459
 5106TIP3   OH236732   5.091   4.359   0.103 -0.0947  0.2161 -0.1377
 5106TIP3    H136733   5.080   4.399   0.190  0.5144 -0.0221  0.0509
 5106TIP3    H236734   5.068   4.267   0.115 -0.8884  0.3695 -0.4344
 5107TIP3   OH236735   2.811   4.611   5.444 -0.2905  0.1360  0.3778
 5107TIP3    H136736   2.823   4.671   5.518 -0.0169  0.2526  0.2403
 5107TIP3    H236737   2.848   4.528   5.473  1.5393  0.6605 -0.2786
 5108TIP3   OH236738   3.531   4.161  15.691  0.5435  0.1674  0.0272
 5108TIP3    H136739   3.463   4.157  15.623  0.2221  0.2669  0.3399
 5108TIP3    H236740   3.511   4.240  15.740  1.8679  1.1294 -0.8935
 5109TIP3   OH236741   4.813   5.832   4.728  0.2470  0.4877 -0.1078
 5109TIP3    H136742   4.860   5.802   4.650  1.8462 -0.7260  1.2521
 5109TIP3    H236743   4.786   5.752   4.772  0.3160  1.1212  1.1207
 5110TIP3   OH236744   4.408   2.539   4.272 -0.3938 -0.6456  0.0846
 5110TIP3    H136745   4.492   2.555   4.229 -0.7068 -1.1214 -0.7251
 5110TIP3    H236746   4.419   2.453   4.314  0.2020  0.1753  1.7406
 5111TIP3   OH236747   3.316   0.155  12.403 -0.0020 -0.2003  0.2930
 5111TIP3    H136748   3.323   0.071  12.448  0.6592  0.0774  0.7351
 5111TIP3    H236749   3.287   0.217  12.470 -0.8838 -0.1459 -0.1249
 5112TIP3   OH236750   2.158   1.787   4.941 -0.0738  0.0923 -0.6907
 5112TIP3    H136751   2.151   1.706   4.991  2.6182  0.2330  0.1174
 5112TIP3    H236752   2.121   1.854   4.999  0.7778 -0.1141  0.1314
 5113TIP3   OH236753   4.398   2.058   3.893 -0.1384 -0.0246 -0.4594
 5113TIP3    H136754   4.397   1.972   3.850 -1.6145 -0.0256 -0.4592
 5113TIP3    H236755   4.447   2.044   3.973  0.4490 -0.6416 -0.9138
 5114TIP3   OH236756   1.327   2.220   1.809  0.2335 -0.1288 -0.4331
 5114TIP3    H136757   1.372   2.297   1.774 -0.8227 -0.8569 -3.7782
 5114TIP3    H236758   1.371   2.146   1.767  0.2794 -1.3085  1.5739
 5115TIP3   OH236759   0.426   6.766  10.966  0.5007 -0.4505  0.4585
 5115TIP3    H136760   0.458   6.780  10.877 -0.3265 -2.1778 -0.1546
 5115TIP3    H236761   0.375   6.844  10.986 -0.2790 -0.5476 -1.0444
 5116TIP3   OH236762   1.475   1.481   2.915  0.0632 -0.4421  0.1302
 5116TIP3    H136763   1.476   1.493   3.010 -1.0063 -2.0667  0.4022
 5116TIP3    H236764   1.471   1.569   2.879 -1.2813  0.1778  1.6671
 5117TIP3   OH236765   4.813   1.841  16.141 -0.3258 -0.1962 -0.2741
 5117TIP3    H136766   4.869   1.866  16.067  0.2175 -1.2689 -0.2406
 5117TIP3    H236767   4.806   1.746  16.136  0.3932 -0.3864  1.5054
 5118TIP3   OH236768   4.809   5.577  12.034  0.4641  0.6679  0.2115
 5118TIP3    H136769   4.723   5.619  12.042  0.1470 -0.0077  0.4309
 5118TIP3    H236770   4.794   5.486  12.060  1.2878  0.5866  0.4379
 5119TIP3   OH236771   0.168   4.445  13.082 -0.4749  0.2837  0.0155
 5119TIP3    H136772   0.225   4.414  13.013 -0.5383  0.3645 -0.0731
 5119TIP3    H236773   0.222   4.507  13.132  0.0129 -0.7923  0.8681
 5120TIP3   OH236774   3.204   2.011  16.146 -0.5589 -0.0305 -0.2456
 5120TIP3    H136775   3.184   1.948  16.077 -1.1992  0.5296 -0.5854
 5120TIP3    H236776   3.292   1.988  16.175 -0.3688 -0.4061 -1.1018
 5121TIP3   OH236777   4.184   4.479  13.120 -0.0465 -0.0465  0.4520
 5121TIP3    H136778   4.201   4.396  13.076 -1.6753  0.5157 -1.3982
 5121TIP3    H236779   4.089   4.481  13.132 -0.1129  1.8010 -0.1111
 5122TIP3   OH236780   2.658   5.864  12.947  0.2201  0.5346  0.1848
 5122TIP3    H136781   2.629   5.949  12.980  0.4558  1.2652 -1.3751
 5122TIP3    H236782   2.751   5.876  12.928 -0.2337  0.7708 -2.3368
 5123TIP3   OH236783   5.719   0.303  13.075 -0.0526 -0.6230  0.2584
 5123TIP3    H136784   5.786   0.363  13.044  1.9535 -1.1688  3.1466
 5123TIP3    H236785   5.739   0.220  13.031 -0.3798 -0.1868 -0.7344
 5124TIP3   OH236786   0.735   1.025  13.928  0.0521 -0.0802 -0.3265
 5124TIP3    H136787   0.709   0.936  13.904 -0.6040  0.3651 -1.3343
 5124TIP3    H236788   0.697   1.080  13.860  0.7020  0.9484  0.1218
 5125TIP3   OH236789   5.248   5.141  10.534  0.2968 -0.7921 -0.1740
 5125TIP3    H136790   5.340   5.148  10.559  0.3988 -1.8216 -0.2469
 5125TIP3    H236791   5.249   5.121  10.440 -0.0026 -0.8308 -0.1708
 5126TIP3   OH236792   6.253   6.556  13.854  0.2442  0.1999  0.5795
 5126TIP3    H136793   6.169   6.516  13.831  0.1762 -0.1160  1.3273
 5126TIP3    H236794   6.294   6.578  13.770 -1.1529  1.5791  0.2256
 5127TIP3   OH236795   3.885   2.684   1.326  0.4798  0.2828  0.7199
 5127TIP3    H136796   3.924   2.604   1.361  0.2859  0.5948  1.6869
 5127TIP3    H236797   3.833   2.719   1.399 -1.3954  0.0162 -0.4307
 5128TIP3   OH236798   4.557   0.514  16.615 -0.0925 -0.4490 -0.4815
 5128TIP3    H136799   4.544   0.460  16.537 -0.6972 -0.2434 -0.5328
 5128TIP3    H236800   4.583   0.452  16.683  1.5376 -0.4850 -1.1009
 5129TIP3   OH236801   0.604   1.023   4.945  0.7880  0.1494 -0.0334
 5129TIP3    H136802   0.596   0.941   4.895 -0.9161 -0.2160  0.7548
 5129TIP3    H236803   0.514   1.056   4.951  1.1999  1.1227  1.2313
 5130TIP3   OH236804   0.575   0.505  14.781  0.2288 -0.6281 -0.5725
 5130TIP3    H136805   0.542   0.455  14.856 -0.9834  0.2943 -0.4637
 5130TIP3    H236806   0.653   0.457  14.753  0.4275 -1.2693  0.9689
 5131TIP3   OH236807   4.574   0.942  13.993  0.4516  0.9086 -0.3551
 5131TIP3    H136808   4.624   0.901  14.064 -0.0900  2.0350  0.7227
 5131TIP3    H236809   4.621   0.918  13.913  0.9068 -0.6412  0.3503
 5132TIP3   OH236810   6.720   6.310   2.281 -0.8216 -0.1567  0.3432
 5132TIP3    H136811   6.750   6.294   2.192 -1.2706 -2.3442  0.5367
 5132TIP3    H236812   6.631   6.346   2.270  0.0025  1.9076 -0.0907
 5133TIP3   OH236813   4.575   2.428  16.141 -0.2170 -0.0564 -0.1886
 5133TIP3    H136814   4.510   2.448  16.074 -0.7429  1.0791  0.6234
 5133TIP3    H236815   4.569   2.334  16.154 -1.6008  0.0137 -0.2268
 5134TIP3   OH236816   6.358   6.367  15.625  0.0203  1.0853 -0.3872
 5134TIP3    H136817   6.343   6.273  15.633 -0.6845  1.1769 -0.5227
 5134TIP3    H236818   6.286   6.407  15.674  0.9902  1.5566  0.7078
 5135TIP3   OH236819   3.391   2.419  14.548 -0.3205  0.9683 -0.0586
 5135TIP3    H136820   3.367   2.363  14.622  1.1396  1.4489  0.8146
 5135TIP3    H236821   3.379   2.508  14.581  2.6717  1.2615  0.5372
 5136TIP3   OH236822   6.427   0.027  15.835  0.4539  0.2012 -0.1636
 5136TIP3    H136823   6.453   0.064  15.919 -1.8288 -0.0005  0.6917
 5136TIP3    H236824   6.436   0.099  15.773  3.5957 -0.0279 -0.1465
 5137TIP3   OH236825   3.730   2.742   1.527  0.1821  0.1254 -0.0358
 5137TIP3    H136826   3.650   2.790   1.506  0.8033  1.0741 -0.2804
 5137TIP3    H236827   3.776   2.798   1.589  0.4505 -0.6352  0.4751
 5138TIP3   OH236828   3.998   3.082   4.920  0.4176 -0.1013  0.2611
 5138TIP3    H136829   4.072   3.024   4.902  0.5274  0.0908  0.0919
 5138TIP3    H236830   4.034   3.153   4.973  0.1239 -0.5884  1.1344
 5139TIP3   OH236831   4.821   5.808   1.451  0.1518 -0.0013  0.1749
 5139TIP3    H136832   4.740   5.836   1.408  1.0344 -0.3027 -1.7923
 5139TIP3    H236833   4.841   5.879   1.513 -0.7623  0.8385 -0.4533
 5140TIP3   OH236834   4.962   5.151  14.550  0.2428  0.4461 -0.4150
 5140TIP3    H136835   5.046   5.106  14.541  0.0847  0.0127  0.1648
 5140TIP3    H236836   4.964   5.188  14.638 -0.2619  0.2247 -0.3033
 5141TIP3   OH236837   0.489   6.819  17.074 -0.1399  0.3879  0.1136
 5141TIP3    H136838   0.482   6.801  16.980  1.6319  2.3146 -0.4539
 5141TIP3    H236839   0.474   6.734  17.115 -0.0969 -0.6901 -1.9513
 5142TIP3   OH236840   4.795   3.261  13.001  0.6516 -0.3419  0.2807
 5142TIP3    H136841   4.792   3.356  12.991  3.5782  0.0240  1.7614
 5142TIP3    H236842   4.750   3.227  12.924 -1.1546  2.2118  0.0990
 5143TIP3   OH236843   0.419   4.865  12.078  0.3279 -0.5105  0.5334
 5143TIP3    H136844   0.478   4.875  12.004 -2.3790  0.4179 -1.6996
 5143TIP3    H236845   0.405   4.771  12.086 -0.5800 -0.5837 -1.3043
 5144TIP3   OH236846   3.039   0.334   6.038 -0.2186 -0.3593 -0.4669
 5144TIP3    H136847   2.968   0.308   6.096  0.0464  0.0445  0.0462
 5144TIP3    H236848   3.023   0.427   6.021 -0.1767 -0.4258 -0.8727
 5145TIP3   OH236849   5.893   6.530  11.053 -0.2811  0.0501 -0.6619
 5145TIP3    H136850   5.888   6.497  10.963 -0.5104 -2.4280  0.1843
 5145TIP3    H236851   5.958   6.474  11.095 -0.6911  0.7048  0.9126
 5146TIP3   OH236852   0.802   3.078   1.946  0.0876  0.4202 -0.0257
 5146TIP3    H136853   0.750   3.031   2.011 -0.3031  0.6044 -0.1973
 5146TIP3    H236854   0.880   3.108   1.993  1.1870 -1.8333 -0.3082
 5147TIP3   OH236855   5.182   5.948  16.263 -0.4567 -0.0707 -0.8209
 5147TIP3    H136856   5.128   5.869  16.263 -0.5949  0.0250 -0.6108
 5147TIP3    H236857   5.142   6.004  16.197 -0.7165  0.0717 -0.5401
 5148TIP3   OH236858   0.753   6.560   6.123  0.4920 -0.1568 -0.0552
 5148TIP3    H136859   0.828   6.585   6.069 -0.4508  0.1835 -1.2463
 5148TIP3    H236860   0.752   6.465   6.121  1.8337 -0.2333  1.3288
 5149TIP3   OH236861   5.945   2.493   4.497 -0.0815 -0.0599 -0.0331
 5149TIP3    H136862   5.876   2.483   4.432  0.6301 -1.1363 -0.6600
 5149TIP3    H236863   6.019   2.530   4.448  0.4167 -0.7521  0.1674
 5150TIP3   OH236864   6.367   5.710  16.500  0.4876 -0.1192 -0.5244
 5150TIP3    H136865   6.430   5.777  16.527 -0.0097  1.2807 -2.6076
 5150TIP3    H236866   6.338   5.669  16.582  0.9252  2.1047  0.8080
 5151TIP3   OH236867   1.991   3.936  13.094 -0.2851  0.3572  0.2470
 5151TIP3    H136868   2.022   3.852  13.126  0.6337  0.7859  0.5280
 5151TIP3    H236869   2.069   3.992  13.096 -1.2273  1.7118  1.7505
 5152TIP3   OH236870   6.401   3.923  15.454  0.0779 -0.1046  0.0257
 5152TIP3    H136871   6.451   3.993  15.495  0.4495 -0.7681  0.7284
 5152TIP3    H236872   6.354   3.966  15.383  0.4493  0.8172  0.3200
 5153TIP3   OH236873   3.025   2.500   2.742  0.4242  0.2066 -0.0498
 5153TIP3    H136874   3.035   2.451   2.661  0.9411 -0.3415  0.3388
 5153TIP3    H236875   3.064   2.586   2.723 -2.4619  1.3389 -1.4422
 5154TIP3   OH236876   2.513   0.544   2.218  0.6400 -0.3725 -0.1367
 5154TIP3    H136877   2.594   0.500   2.195  1.6127 -0.1354  2.5143
 5154TIP3    H236878   2.533   0.637   2.214  0.2442 -0.2876 -0.2608
 5155TIP3   OH236879   5.340   1.613   1.160 -0.0836 -0.4879 -0.1088
 5155TIP3    H136880   5.378   1.665   1.090 -0.5477  0.4397  0.3046
 5155TIP3    H236881   5.405   1.546   1.179  0.4553 -0.1580 -0.7655
 5156TIP3   OH236882   2.699   3.798  14.500 -0.8220  0.2985  0.1259
 5156TIP3    H136883   2.753   3.864  14.544 -1.3426  1.6468 -1.1570
 5156TIP3    H236884   2.644   3.762  14.569  0.3387  0.3191  1.0817
 5157TIP3   OH236885   4.169   5.374  11.948 -0.1085  0.2058 -0.0265
 5157TIP3    H136886   4.076   5.353  11.938 -0.3789  0.7432  1.2468
 5157TIP3    H236887   4.172   5.470  11.953  0.2508  0.1143  2.2286
 5158TIP3   OH236888   1.380   5.126   0.188  0.0416  0.5342 -0.2590
 5158TIP3    H136889   1.386   5.138   0.093  0.0064 -0.8851 -0.4617
 5158TIP3    H236890   1.443   5.057   0.208 -0.9072 -0.1193  0.5548
 5159TIP3   OH236891   1.751   6.204   2.585  0.6112 -0.2869 -0.2402
 5159TIP3    H136892   1.736   6.220   2.492  1.0476  1.0437 -0.1069
 5159TIP3    H236893   1.795   6.119   2.587  0.3626 -0.4585 -1.2220
 5160TIP3   OH236894   0.326   0.632  11.216  0.1502 -0.9834 -0.1274
 5160TIP3    H136895   0.419   0.650  11.235  0.2381  0.7460 -1.8459
 5160TIP3    H236896   0.297   0.708  11.165 -2.1920 -1.5602  0.2341
 5161TIP3   OH236897   0.257   5.400   0.203  0.0999 -0.0532 -0.0460
 5161TIP3    H136898   0.306   5.318   0.201  1.8716  0.8865  1.3845
 5161TIP3    H236899   0.166   5.374   0.217  0.7583 -1.7626  1.4816
 5162TIP3   OH236900   6.701   3.928   0.088  0.3835  0.4330  0.4216
 5162TIP3    H136901   6.652   3.879   0.022 -1.5440  0.5613  1.6624
 5162TIP3    H236902   6.674   4.019   0.075 -0.1044  0.4482  1.4056
 5163TIP3   OH236903   6.399   3.010   3.713  0.0716  0.2511 -0.1962
 5163TIP3    H136904   6.383   3.072   3.643 -1.7693  0.0493 -0.0056
 5163TIP3    H236905   6.312   2.994   3.752  0.6094 -1.7641  0.3120
 5164TIP3   OH236906   0.919   4.642   2.480 -0.2333  0.1904 -0.5920
 5164TIP3    H136907   0.854   4.711   2.465 -1.4454 -0.5932  0.7924
 5164TIP3    H236908   0.942   4.650   2.572  0.7461 -0.3237 -0.7776
 5165TIP3   OH236909   4.575   4.778   1.475 -0.7766 -0.1089 -0.5823
 5165TIP3    H136910   4.604   4.784   1.566 -0.1514  1.2474 -0.8441
 5165TIP3    H236911   4.559   4.685   1.461  0.5777 -0.5323  0.4762
 5166TIP3   OH236912   3.589   3.497  15.489  0.0963  0.0822  0.8693
 5166TIP3    H136913   3.664   3.437  15.480  0.0470  0.2972 -3.6888
 5166TIP3    H236914   3.626   3.584  15.474 -0.6516  0.5238  1.5361
 5167TIP3   OH236915   3.818   4.118  15.353 -0.1011  0.5011  0.5359
 5167TIP3    H136916   3.888   4.177  15.326 -0.5099 -0.6448 -3.7103
 5167TIP3    H236917   3.862   4.035  15.371 -0.1066  0.5546  0.8038
 5168TIP3   OH236918   4.563   6.401   4.049  0.1432 -0.1638 -0.0927
 5168TIP3    H136919   4.648   6.388   4.092 -0.1879  0.2752  0.7306
 5168TIP3    H236920   4.523   6.473   4.098  0.6112  1.8286 -2.4687
 5169TIP3   OH236921   1.114   5.541   3.225  0.2799  1.0957  0.4168
 5169TIP3    H136922   1.093   5.494   3.306 -0.1887  1.4774  0.5257
 5169TIP3    H236923   1.060   5.500   3.158  0.6555  0.7906  0.2983
 5170TIP3   OH236924   4.087   0.513   2.400  0.1303 -0.1127  0.1338
 5170TIP3    H136925   4.055   0.599   2.374  1.2062  1.0137  2.2777
 5170TIP3    H236926   4.151   0.490   2.333 -0.9035  0.2664 -1.0057
 5171TIP3   OH236927   2.084   1.485  15.128 -0.2007  0.6813  0.0836
 5171TIP3    H136928   1.998   1.444  15.119  0.0473 -0.5643  2.5416
 5171TIP3    H236929   2.106   1.514  15.040 -1.9546 -1.4074 -1.1513
 5172TIP3   OH236930   4.695   5.658   4.269  0.1792  0.7598  0.0610
 5172TIP3    H136931   4.622   5.718   4.285 -0.7123 -0.2550 -0.0669
 5172TIP3    H236932   4.697   5.649   4.173 -1.6120 -1.6194  0.1416
 5173TIP3   OH236933   4.092   0.468   6.277 -0.3201  0.4275 -0.5149
 5173TIP3    H136934   4.136   0.512   6.350  0.1026  1.1891 -1.2080
 5173TIP3    H236935   4.055   0.389   6.315 -1.5053  1.6024  0.8769
 5174TIP3   OH236936   2.327   3.083  16.745  0.0484  0.2032  0.8644
 5174TIP3    H136937   2.251   3.026  16.738  1.1043 -1.0551 -1.6212
 5174TIP3    H236938   2.302   3.162  16.697 -0.0513  0.2638  1.0128
 5175TIP3   OH236939   1.750   6.646   5.945 -0.2259 -0.0009 -0.1663
 5175TIP3    H136940   1.807   6.658   6.021  0.3023  0.3415 -0.6085
 5175TIP3    H236941   1.733   6.551   5.944 -0.3982  0.0146  0.4816
 5176TIP3   OH236942   4.003   0.463   0.088  0.0714  0.3236 -0.3221
 5176TIP3    H136943   3.974   0.373   0.101  0.2426  0.3088 -0.0273
 5176TIP3    H236944   4.026   0.468  -0.004  0.5905 -0.0910 -0.2203
 5177TIP3   OH236945   1.325   5.064  16.158  0.0435  0.5519 -0.4730
 5177TIP3    H136946   1.401   5.121  16.170  0.5533  0.0364 -1.2522
 5177TIP3    H236947   1.360   4.983  16.122 -0.8987  0.3881 -1.0516
 5178TIP3   OH236948   2.419   0.722  13.344  0.4872  0.4331  0.5633
 5178TIP3    H136949   2.452   0.733  13.255  0.9695  0.1220  0.7007
 5178TIP3    H236950   2.481   0.663  13.386 -0.9943 -1.3307  0.4114
 5179TIP3   OH236951   2.770   3.235   3.426  0.1945  0.2093 -0.5903
 5179TIP3    H136952   2.853   3.215   3.469 -0.5011  0.3567  0.8995
 5179TIP3    H236953   2.751   3.326   3.452 -0.1304  0.3961 -1.4408
 5180TIP3   OH236954   2.237   1.459   2.405 -0.0894  0.2986  0.3121
 5180TIP3    H136955   2.279   1.426   2.485  0.7416 -0.9586 -0.6087
 5180TIP3    H236956   2.151   1.489   2.434 -0.5341 -1.8364  1.4108
 5181TIP3   OH236957   1.368   5.082  15.241  0.4264  0.1668  0.1761
 5181TIP3    H136958   1.346   5.034  15.162 -0.7794 -0.8894  1.1019
 5181TIP3    H236959   1.454   5.049  15.267  0.1323 -0.6470  0.1458
 5182TIP3   OH236960   1.658   5.794  15.382 -0.8239  0.1930 -0.0860
 5182TIP3    H136961   1.598   5.857  15.422 -2.7013 -1.4628 -0.1857
 5182TIP3    H236962   1.710   5.760  15.455  0.5672  2.1012 -0.0845
 5183TIP3   OH236963   2.291   6.254  14.799  0.5063 -0.6189 -0.5606
 5183TIP3    H136964   2.293   6.183  14.735  1.3541 -0.2020 -1.0212
 5183TIP3    H236965   2.222   6.313  14.768  0.3687 -0.8211 -0.6415
 5184TIP3   OH236966   3.048   3.394  16.776 -0.6678 -0.1810  0.4238
 5184TIP3    H136967   2.991   3.440  16.838 -0.7018  2.3546 -1.3236
 5184TIP3    H236968   3.106   3.462  16.742 -0.1314 -1.6146 -1.7214
 5185TIP3   OH236969   0.616   4.745  11.923  0.6409 -0.1017 -0.6894
 5185TIP3    H136970   0.584   4.666  11.881 -2.2461 -1.0414  2.8468
 5185TIP3    H236971   0.710   4.731  11.933  0.4888 -2.2039 -1.8217
 5186TIP3   OH236972   1.371   0.717  11.682  0.3347  0.0701 -0.1320
 5186TIP3    H136973   1.399   0.692  11.594  0.4714 -2.3474  0.5503
 5186TIP3    H236974   1.310   0.648  11.709 -1.3924  1.8791  0.8852
 5187TIP3   OH236975   4.441   1.669  13.417  0.0974  0.4510 -0.6654
 5187TIP3    H136976   4.458   1.588  13.465 -0.0786  0.4098 -0.6746
 5187TIP3    H236977   4.504   1.668  13.345 -1.8299 -1.1195 -2.4437
 5188TIP3   OH236978   2.207   2.084  13.018  0.0639 -0.5201  0.0039
 5188TIP3    H136979   2.262   2.023  13.066  1.5715  0.0121 -0.9677
 5188TIP3    H236980   2.230   2.170  13.053  0.3636 -0.2318 -0.8730
 5189TIP3   OH236981   4.768   5.583   1.605  0.7737 -0.2140  0.2114
 5189TIP3    H136982   4.681   5.556   1.577  0.0768  1.2068  0.9341
 5189TIP3    H236983   4.786   5.663   1.556  1.7726 -0.5970 -0.0755
 5190TIP3   OH236984   2.142   2.452   1.790  0.5539 -0.2953  0.3514
 5190TIP3    H136985   2.177   2.523   1.736 -1.0370  0.0805 -0.2475
 5190TIP3    H236986   2.061   2.426   1.745  1.3716 -2.9095  0.2101
 5191TIP3   OH236987   5.771   2.726  14.076  0.1569 -0.1822 -0.7388
 5191TIP3    H136988   5.864   2.721  14.097  0.1217  0.6131 -0.3507
 5191TIP3    H236989   5.742   2.635  14.075  0.9530 -0.4414 -0.9350
 5192TIP3   OH236990   2.755   4.978  15.029 -0.6697  0.2613  0.7559
 5192TIP3    H136991   2.726   4.901  14.981 -0.9059  0.6604  0.2469
 5192TIP3    H236992   2.792   4.943  15.110 -2.0759 -0.3176  1.1935
 5193TIP3   OH236993   1.441   0.999  15.135  0.3276 -0.6979  0.0433
 5193TIP3    H136994   1.420   0.951  15.215  0.6227 -1.0110 -0.0626
 5193TIP3    H236995   1.365   1.056  15.120 -0.3110 -1.5816 -0.1687
 5194TIP3   OH236996   5.799   1.032  14.798 -0.1936  0.3775  0.4887
 5194TIP3    H136997   5.840   1.116  14.818 -1.2559  1.0120  0.0590
 5194TIP3    H236998   5.708   1.042  14.825 -0.0973 -1.0205  1.4435
 5195TIP3   OH236999   5.625   1.358  11.688 -0.2710 -0.5621  0.3162
 5195TIP3    H137000   5.540   1.396  11.669  0.2192  1.1249  1.2772
 5195TIP3    H237001   5.641   1.297  11.616 -1.0890  1.1261 -1.3658
 5196TIP3   OH237002   0.868   5.610  14.865 -0.2719  0.4408  0.4647
 5196TIP3    H137003   0.889   5.558  14.788 -0.8736 -1.7226  1.6724
 5196TIP3    H237004   0.906   5.561  14.938 -0.3225  2.0513  1.6291
 5197TIP3   OH237005   6.652   1.409   2.094 -0.0486 -0.1254 -0.0651
 5197TIP3    H137006   6.674   1.449   2.178  1.0547  0.7696 -0.7587
 5197TIP3    H237007   6.556   1.413   2.090  0.0019  2.8410 -0.2648
 5198TIP3   OH237008   6.720   1.978   2.244 -0.3249  0.1511  0.0556
 5198TIP3    H137009   6.698   2.066   2.212 -1.6176 -0.1495  0.0706
 5198TIP3    H237010   6.644   1.952   2.296  0.4198 -0.6341  0.7889
 5199TIP3   OH237011   5.180   4.899  15.492 -0.4417  0.1727 -0.4695
 5199TIP3    H137012   5.140   4.906  15.406 -1.5930 -1.2447 -0.0943
 5199TIP3    H237013   5.214   4.809  15.496 -1.5630 -0.2362  0.9841
 5200TIP3   OH237014   6.173   3.757  12.214  0.1386  0.6833  0.4940
 5200TIP3    H137015   6.249   3.714  12.174  0.4797  0.4012  1.4313
 5200TIP3    H237016   6.174   3.845  12.175 -0.2058  0.0736 -0.9635
 5201TIP3   OH237017   1.113   4.934  13.693 -0.2891 -0.5218 -0.1134
 5201TIP3    H137018   1.109   4.891  13.608  0.1893  1.6970 -1.3292
 5201TIP3    H237019   1.119   4.862  13.756  0.0121 -2.2132 -1.9724
 5202TIP3   OH237020   0.385   5.925   4.640  0.1051  0.0634 -0.2216
 5202TIP3    H137021   0.479   5.913   4.631  0.3679  1.9392 -0.4168
 5202TIP3    H237022   0.376   6.005   4.693 -1.3938 -1.0124  1.2748
 5203TIP3   OH237023   4.460   0.163  14.074  0.0579  0.4530 -0.0156
 5203TIP3    H137024   4.481   0.173  13.981 -0.3401  0.5711 -0.0952
 5203TIP3    H237025   4.380   0.214  14.086  0.8121  1.5200  0.6678
 5204TIP3   OH237026   5.403   5.284  14.629  0.0164 -0.1724  0.4107
 5204TIP3    H137027   5.315   5.317  14.611  0.3766  0.3095 -0.5069
 5204TIP3    H237028   5.442   5.349  14.687  0.4045  0.5732 -0.6636
 5205TIP3   OH237029   5.214   1.992  11.396 -0.8373  0.4498  0.4246
 5205TIP3    H137030   5.264   1.995  11.477  0.0000  3.0114 -0.1162
 5205TIP3    H237031   5.278   2.009  11.327 -1.6430 -1.0434 -0.7747
 5206TIP3   OH237032   4.227   1.254   4.834 -0.3637  0.0408  0.0577
 5206TIP3    H137033   4.238   1.161   4.857 -1.8080 -0.0651  0.4228
 5206TIP3    H237034   4.241   1.301   4.916  0.7456  0.1884 -0.2072
 5207TIP3   OH237035   0.881   0.584  14.508 -0.2519 -0.5432 -0.7985
 5207TIP3    H137036   0.876   0.525  14.583 -0.5461 -2.1293 -2.0260
 5207TIP3    H237037   0.863   0.671  14.545  0.8266 -1.0819  1.1606
 5208TIP3   OH237038   0.253   1.495  11.836  0.2278 -0.2202 -0.1204
 5208TIP3    H137039   0.250   1.586  11.807  0.6247 -0.2761 -0.3486
 5208TIP3    H237040   0.213   1.446  11.764 -2.6973  0.0314  1.2047
 5209TIP3   OH237041   0.418   6.109  15.675  0.1056 -0.1726 -0.7464
 5209TIP3    H137042   0.434   6.204  15.677 -0.8908 -0.0001  1.0034
 5209TIP3    H237043   0.499   6.071  15.707  0.7684  0.0163 -2.1276
 5210TIP3   OH237044   4.715   5.381  15.967  0.5162 -0.7546 -0.0900
 5210TIP3    H137045   4.671   5.375  15.882  0.7235  0.6097 -0.3268
 5210TIP3    H237046   4.769   5.460  15.960  0.7223 -0.7560  1.2275
 5211TIP3   OH237047   2.076   0.528  13.791  0.6259  0.7153  0.2672
 5211TIP3    H137048   2.082   0.445  13.745  0.6380 -0.7030  2.6313
 5211TIP3    H237049   2.166   0.559  13.797  0.5157  1.4961 -1.5307
 5212TIP3   OH237050   3.237   4.498   1.528  0.2580 -0.5205 -0.1012
 5212TIP3    H137051   3.287   4.416   1.530 -0.8777 -1.2376  0.0107
 5212TIP3    H237052   3.149   4.473   1.556 -1.1287  0.0229 -3.4768
 5213TIP3   OH237053   5.473   2.796  14.748 -0.0429 -0.6432 -0.0492
 5213TIP3    H137054   5.544   2.823  14.806 -0.1003 -1.8524  0.6159
 5213TIP3    H237055   5.400   2.854  14.771  0.9783  1.3232 -1.4697
 5214TIP3   OH237056   3.664   3.379   5.443  0.0875  0.4676  0.3118
 5214TIP3    H137057   3.713   3.407   5.520 -0.7431  0.5959  0.8086
 5214TIP3    H237058   3.592   3.326   5.479 -1.2497  1.8529 -0.2360
 5215TIP3   OH237059   2.037   6.641  13.633 -0.2669 -0.1502  0.0589
 5215TIP3    H137060   1.960   6.589  13.655  0.9693 -1.1115  2.5941
 5215TIP3    H237061   2.062   6.682  13.716  2.0650 -0.1068 -0.5972
 5216TIP3   OH237062   0.821   6.056  11.385  0.2387 -0.0515 -0.2159
 5216TIP3    H137063   0.818   6.151  11.381 -0.2985 -0.1291 -2.2826
 5216TIP3    H237064   0.912   6.034  11.362  0.2839 -0.0587 -0.0340
 5217TIP3   OH237065   4.844   3.258   1.995  0.6130 -0.6720  0.5475
 5217TIP3    H137066   4.843   3.354   1.999 -1.2561 -0.6603  0.6034
 5217TIP3    H237067   4.775   3.236   1.933  0.9529 -1.9984  0.6182
 5218TIP3   OH237068   5.561   5.268  13.741 -0.1038 -0.8628  0.2003
 5218TIP3    H137069   5.596   5.351  13.707  1.5274 -1.5491  0.0991
 5218TIP3    H237070   5.547   5.215  13.662  1.1469 -1.5088  0.3858
 5219TIP3   OH237071   4.691   3.757   0.348  0.1784 -0.5457  0.2458
 5219TIP3    H137072   4.741   3.735   0.269 -0.4449  0.3343 -0.4167
 5219TIP3    H237073   4.624   3.818   0.317 -0.6301 -0.8738  1.3039
 5220TIP3   OH237074   5.204   1.498   3.783 -0.5028 -0.4511 -0.4656
 5220TIP3    H137075   5.295   1.509   3.755 -0.9419 -0.9697 -2.3014
 5220TIP3    H237076   5.178   1.584   3.816 -0.2282  0.6301 -2.8376
 5221TIP3   OH237077   4.961   2.401  16.560 -0.5530  0.3398 -0.1148
 5221TIP3    H137078   4.878   2.408  16.514  0.0321 -1.9332 -1.6946
 5221TIP3    H237079   5.025   2.441  16.501 -0.1903  0.0071  0.0518
 5222TIP3   OH237080   5.011   0.816  13.771 -0.6093  0.3689 -0.2684
 5222TIP3    H137081   5.084   0.786  13.716 -0.7918 -0.2687 -0.1789
 5222TIP3    H237082   5.032   0.906  13.792  0.6899 -0.1137  0.6117
 5223TIP3   OH237083   1.233   5.303  16.469  0.0688 -0.0321 -0.3409
 5223TIP3    H137084   1.161   5.300  16.533  0.6304  1.1200  0.3750
 5223TIP3    H237085   1.190   5.317  16.385 -0.5674  0.6360  0.0818
 5224TIP3   OH237086   3.038   0.345   1.317  0.4757  0.2902 -0.0662
 5224TIP3    H137087   3.075   0.301   1.240 -0.4561 -0.5691 -0.0382
 5224TIP3    H237088   2.948   0.313   1.322  0.2468  1.0396  0.8603
 5225TIP3   OH237089   2.806   4.964   4.834 -0.2254  0.1435 -0.2816
 5225TIP3    H137090   2.770   5.017   4.762  0.1967  1.9615  0.7918
 5225TIP3    H237091   2.731   4.946   4.890 -0.1159  0.8895  0.1145
 5226TIP3   OH237092   3.835   6.289  11.809 -0.4973  0.2604  0.2890
 5226TIP3    H137093   3.913   6.256  11.763  0.2946  2.0183  0.3124
 5226TIP3    H237094   3.868   6.315  11.895 -1.5940 -1.1396  1.1783
 5227TIP3   OH237095   4.422   4.297   4.378 -0.0309 -0.0946  0.0337
 5227TIP3    H137096   4.328   4.283   4.373 -0.0534 -0.0130  0.2208
 5227TIP3    H237097   4.432   4.366   4.444  0.1913 -0.4228  0.3457
 5228TIP3   OH237098   2.137   2.784   1.825  0.4343 -0.1365  0.1767
 5228TIP3    H137099   2.073   2.788   1.896  0.5631  1.2589  0.2465
 5228TIP3    H237100   2.085   2.770   1.746  0.0700  0.5690  0.2847
 5229TIP3   OH237101   4.528   6.778  15.431  0.1664  0.1437  0.2079
 5229TIP3    H137102   4.587   6.704  15.446  0.6063  0.6680  1.2482
 5229TIP3    H237103   4.539   6.800  15.339 -0.4568 -1.4709 -0.2848
 5230TIP3   OH237104   1.223   2.672   6.403  0.8309 -0.6424  0.7410
 5230TIP3    H137105   1.257   2.762   6.397  0.1762 -0.4759 -0.8768
 5230TIP3    H237106   1.230   2.651   6.496  1.5103  0.8784  1.0789
 5231TIP3   OH237107   0.143   1.377  11.552  0.2219  0.2808  0.2430
 5231TIP3    H137108   0.147   1.472  11.555 -1.1951  0.3364  1.4658
 5231TIP3    H237109   0.120   1.357  11.461 -0.7303  1.1781  0.2754
 5232TIP3   OH237110   3.026   5.263   3.588 -0.2281  0.2137 -0.2515
 5232TIP3    H137111   3.006   5.250   3.680  1.5719  0.9246  0.2876
 5232TIP3    H237112   3.024   5.358   3.576 -0.0049  0.1494 -0.8325
 5233TIP3   OH237113   4.560   3.481   5.650  0.2939 -0.8528 -0.0545
 5233TIP3    H137114   4.620   3.469   5.576  1.5380 -0.9130  0.9217
 5233TIP3    H237115   4.589   3.416   5.715 -0.6284 -0.6660  0.5657
 5234TIP3   OH237116   2.645   4.637   3.564 -0.6403  0.1102 -0.1801
 5234TIP3    H137117   2.578   4.650   3.631  0.3788 -0.3483  0.9646
 5234TIP3    H237118   2.711   4.703   3.583 -0.0377 -0.4433 -0.3263
 5235TIP3   OH237119   1.630   0.271  15.604 -0.0270 -0.2886  0.3296
 5235TIP3    H137120   1.692   0.330  15.647 -0.2558  1.8096 -1.9719
 5235TIP3    H237121   1.588   0.326  15.537 -0.9468 -2.8559 -1.3311
 5236TIP3   OH237122   1.217   2.247   1.352  0.0871  0.1702  0.2530
 5236TIP3    H137123   1.187   2.243   1.262 -0.9253 -1.9887  0.6344
 5236TIP3    H237124   1.153   2.196   1.402  1.7533 -0.4901  1.8487
 5237TIP3   OH237125   5.675   5.808  11.912  0.5277 -0.0037  0.1955
 5237TIP3    H137126   5.693   5.766  11.827 -0.2774  0.7850 -0.3765
 5237TIP3    H237127   5.678   5.902  11.893  0.5552  0.1837  1.0976
 5238TIP3   OH237128   3.051   4.204   1.851  0.3709 -0.1946 -0.1271
 5238TIP3    H137129   3.040   4.282   1.796  1.5110  0.6360  0.7809
 5238TIP3    H237130   3.117   4.152   1.805 -1.1461 -1.1886 -1.2877
 5239TIP3   OH237131   5.242   5.725   3.351 -0.7226  0.2904 -0.1177
 5239TIP3    H137132   5.219   5.698   3.440  1.5572 -0.6384  0.2499
 5239TIP3    H237133   5.166   5.775   3.321 -1.9696 -0.2358  1.9603
 5240TIP3   OH237134   6.584   5.625  16.338 -0.0835  0.1276 -0.3369
 5240TIP3    H137135   6.665   5.640  16.386 -1.0416  1.9471  0.8056
 5240TIP3    H237136   6.517   5.670  16.389 -1.6396 -0.3399 -1.8728
 5241TIP3   OH237137   1.529   0.757   4.652  0.6712 -0.1658 -0.5068
 5241TIP3    H137138   1.474   0.706   4.711  1.9656 -1.9331 -0.7508
 5241TIP3    H237139   1.616   0.753   4.691  1.0027  1.0929 -1.0530
 5242TIP3   OH237140   1.335   1.638   1.942  0.2738 -0.3749 -0.5577
 5242TIP3    H137141   1.335   1.637   2.038 -2.2283  2.2790 -0.3763
 5242TIP3    H237142   1.318   1.547   1.917 -1.9394 -0.6964  1.6888
 5243TIP3   OH237143   0.357   1.523  12.816 -0.0770 -0.1497  0.1602
 5243TIP3    H137144   0.282   1.577  12.791  1.5796  2.2408  0.0917
 5243TIP3    H237145   0.378   1.549  12.905 -0.0935 -1.7708  0.6779
 5244TIP3   OH237146   2.250   6.368  12.834 -0.1202 -0.1582  0.1947
 5244TIP3    H137147   2.318   6.362  12.901  1.0532 -1.4206 -1.0314
 5244TIP3    H237148   2.167   6.371  12.883  0.7909  2.4191  1.7557
 5245TIP3   OH237149   3.917   0.030   5.444  0.2884 -0.2322  0.2280
 5245TIP3    H137150   3.848  -0.027   5.411 -0.3169  0.8724 -0.4774
 5245TIP3    H237151   3.989   0.020   5.382  0.5236 -0.8772  0.5936
 5246TIP3   OH237152   1.480   5.932  10.708  0.0349  0.1272 -0.4017
 5246TIP3    H137153   1.532   5.904  10.633 -1.3538 -1.4945 -0.8366
 5246TIP3    H237154   1.398   5.882  10.701  0.0150 -0.4426  2.4335
 5247TIP3   OH237155   4.595   2.712  14.117  0.2127 -0.7050  0.6705
 5247TIP3    H137156   4.642   2.642  14.071  0.2818 -0.7545  0.8133
 5247TIP3    H237157   4.511   2.718  14.072  2.0920  2.8592 -2.9923
 5248TIP3   OH237158   0.690   1.685  14.835  0.1698  0.1859 -0.1722
 5248TIP3    H137159   0.691   1.773  14.797  0.3424  0.0880 -0.4001
 5248TIP3    H237160   0.746   1.634  14.776  0.3623  0.0116  0.1632
 5249TIP3   OH237161   4.936   5.110  11.497  0.6024 -0.4801  0.0584
 5249TIP3    H137162   4.909   5.031  11.543  0.9362 -1.1915 -0.9200
 5249TIP3    H237163   4.854   5.148  11.465  0.3485  0.1573  1.4144
 5250TIP3   OH237164   0.031   0.477   1.660 -0.2160 -0.4380  0.9885
 5250TIP3    H137165   0.012   0.461   1.753  0.0441 -0.6845  0.9997
 5250TIP3    H237166  -0.055   0.488   1.619 -0.3044  1.1953  1.5327
 5251TIP3   OH237167   3.455   3.771  15.916 -0.0884 -0.1866 -0.0398
 5251TIP3    H137168   3.427   3.694  15.865 -0.5159  0.8686 -1.4614
 5251TIP3    H237169   3.546   3.753  15.938 -0.4551 -1.5223  0.4870
 5252TIP3   OH237170   5.342   6.050   0.196 -0.4312 -0.2691 -0.3768
 5252TIP3    H137171   5.381   6.029   0.111  0.8874  0.2526  0.0746
 5252TIP3    H237172   5.395   6.000   0.259 -0.7326  0.1683  0.2240
 5253TIP3   OH237173   3.796   0.340  13.704  0.1251  0.5004  0.2530
 5253TIP3    H137174   3.860   0.362  13.636 -0.6266  1.5793 -0.1256
 5253TIP3    H237175   3.813   0.248  13.724 -1.4348 -0.7908 -3.4255
 5254TIP3   OH237176   4.498   1.588  16.828 -0.3179  0.3551  0.3510
 5254TIP3    H137177   4.546   1.552  16.754  1.2073  1.8104  0.5863
 5254TIP3    H237178   4.414   1.616  16.791 -0.2763 -0.5306 -0.4487
 5255TIP3   OH237179   3.589   2.180   3.937  0.2904 -0.0421 -0.0364
 5255TIP3    H137180   3.497   2.164   3.919 -0.2818  1.7051  1.1574
 5255TIP3    H237181   3.590   2.247   4.005  2.4379 -0.6554  0.6315
 5256TIP3   OH237182   6.166   2.371  16.161  0.2534  0.3099  0.2983
 5256TIP3    H137183   6.231   2.408  16.220 -0.4442 -0.8068  1.8346
 5256TIP3    H237184   6.218   2.328  16.093  1.0729  1.8699 -0.1032
 5257TIP3   OH237185   3.578   6.542   4.105 -0.1155 -0.3194  0.4570
 5257TIP3    H137186   3.537   6.492   4.176 -1.7006  2.1178  1.3468
 5257TIP3    H237187   3.506   6.566   4.047  0.8634 -0.4602 -0.8583
 5258TIP3   OH237188   0.025   6.598   5.189  0.0446 -0.7281 -0.0757
 5258TIP3    H137189   0.018   6.561   5.101 -1.9605 -1.0183  0.1428
 5258TIP3    H237190  -0.050   6.561   5.236 -0.6163  1.6355  0.9009
 5259TIP3   OH237191   3.757   4.170  13.411 -0.2316 -0.0429  0.3038
 5259TIP3    H137192   3.851   4.164  13.430 -0.4774 -0.9776  1.3248
 5259TIP3    H237193   3.714   4.148  13.494 -1.3710  2.3226  0.4015
 5260TIP3   OH237194   2.021   0.249   1.175  0.3467 -0.4583  0.1186
 5260TIP3    H137195   2.096   0.199   1.143 -0.3268 -1.4675  0.0782
 5260TIP3    H237196   1.945   0.207   1.135 -0.1331  2.1353 -1.9583
 5261TIP3   OH237197   2.574   5.475   4.368  0.1502  0.1110  0.7683
 5261TIP3    H137198   2.586   5.532   4.292 -2.3737 -0.0985  0.1098
 5261TIP3    H237199   2.540   5.533   4.436  2.7068  0.3614  1.9247
 5262TIP3   OH237200   6.803   0.979  13.317  0.6594  1.0768 -0.8211
 5262TIP3    H137201   6.782   0.972  13.410  0.1398  0.8840 -0.9506
 5262TIP3    H237202   6.729   0.939  13.272  2.2234 -1.5926 -1.2304
 5263TIP3   OH237203   2.702   4.443  15.941 -0.1382  0.5383  0.5750
 5263TIP3    H137204   2.706   4.539  15.940  0.2186  0.5356  1.3040
 5263TIP3    H237205   2.794   4.416  15.941 -0.2248  0.1685 -0.7938
 5264TIP3   OH237206   2.901   0.540  15.132  0.3737  0.2409 -0.2910
 5264TIP3    H137207   2.920   0.532  15.039  0.7852 -1.5359 -0.0915
 5264TIP3    H237208   2.904   0.634  15.150  1.1295  0.5452 -1.8926
 5265TIP3   OH237209   0.296   4.262   1.721  0.9854  0.5929  0.3015
 5265TIP3    H137210   0.360   4.279   1.653 -1.2312  0.9136 -1.8723
 5265TIP3    H237211   0.255   4.179   1.695  0.1295  0.6823  1.2760
 5266TIP3   OH237212   3.163   4.765  13.750 -0.4668  0.2248  0.2039
 5266TIP3    H137213   3.203   4.705  13.687 -1.4829  1.2440 -1.4613
 5266TIP3    H237214   3.122   4.833  13.697 -0.5179  1.6821  1.9988
 5267TIP3   OH237215   4.863   2.559   0.208  0.1720  1.4372 -0.2269
 5267TIP3    H137216   4.931   2.606   0.161  0.5110  1.2357  0.0618
 5267TIP3    H237217   4.908   2.486   0.250 -0.3605  0.7849 -0.7599
 5268TIP3   OH237218   1.607   4.769  11.523 -0.0517  0.5066  0.2023
 5268TIP3    H137219   1.613   4.748  11.616 -2.9576 -1.0649  0.1581
 5268TIP3    H237220   1.579   4.687  11.482  2.1141  0.8694 -2.2606
 5269TIP3   OH237221   0.409   2.958  13.650 -0.3413  0.3183 -0.4762
 5269TIP3    H137222   0.353   2.919  13.583  0.0472 -0.0980 -0.5614
 5269TIP3    H237223   0.498   2.952  13.614 -0.3322  1.8606 -0.7689
 5270TIP3   OH237224   6.652   2.125  14.015  0.6028 -0.3342  0.0274
 5270TIP3    H137225   6.615   2.053  13.964 -1.2768  0.9324 -0.5083
 5270TIP3    H237226   6.739   2.139  13.978 -0.1788 -0.3657 -1.9051
 5271TIP3   OH237227   5.155   0.376   3.901 -0.2359  0.0167 -0.2418
 5271TIP3    H137228   5.130   0.410   3.987  0.5162  0.7567 -0.2989
 5271TIP3    H237229   5.141   0.449   3.841  1.1396  0.1695 -0.4127
 5272TIP3   OH237230   2.538   3.567  16.612 -0.1288 -0.0649  0.7468
 5272TIP3    H137231   2.594   3.518  16.551 -0.7620  2.5092 -2.1643
 5272TIP3    H237232   2.595   3.590  16.684  2.2156  1.0835 -1.3382
 5273TIP3   OH237233   4.240   0.317  14.065  0.0651  0.2987  0.1474
 5273TIP3    H137234   4.287   0.376  14.006 -1.1753  1.3048  0.1242
 5273TIP3    H237235   4.150   0.317  14.031 -0.3197 -0.2904  1.1543
 5274TIP3   OH237236   5.180   1.417  13.480 -0.5013 -0.4743 -0.1490
 5274TIP3    H137237   5.181   1.511  13.496 -3.4578 -0.3661 -0.0671
 5274TIP3    H237238   5.267   1.387  13.508  0.5091  2.1787 -0.1565
 5275TIP3   OH237239   2.853   5.527  10.993 -0.1521  0.3247 -0.4913
 5275TIP3    H137240   2.857   5.475  10.913  1.2411  0.6895 -0.6830
 5275TIP3    H237241   2.887   5.470  11.061  4.5885  1.8308 -1.2376
 5276TIP3   OH237242   1.366   6.267  12.367 -0.0980 -0.3746  0.1391
 5276TIP3    H137243   1.330   6.183  12.340  0.8196 -0.5635 -0.5467
 5276TIP3    H237244   1.378   6.315  12.286  0.0539  0.1458  0.4654
 5277TIP3   OH237245   3.791   5.899  15.065  0.1723 -0.0170 -0.2202
 5277TIP3    H137246   3.757   5.902  14.975  0.4532  0.9274 -0.3094
 5277TIP3    H237247   3.843   5.819  15.068 -0.2163 -0.3016 -0.7633
 5278TIP3   OH237248   6.073   6.011  14.820 -0.3960  0.3659 -0.8687
 5278TIP3    H137249   6.151   6.010  14.765  0.0075  3.5701 -0.5535
 5278TIP3    H237250   6.014   6.072  14.776 -1.9453 -0.5101 -0.0730
 5279TIP3   OH237251   3.137   4.776  15.696 -0.2831  0.1544 -0.0112
 5279TIP3    H137252   3.095   4.811  15.775 -1.1302 -1.7083  0.4180
 5279TIP3    H237253   3.189   4.701  15.727 -0.1982 -0.2796 -1.1381
 5280TIP3   OH237254   0.394   0.978  16.517  0.3800  0.1434  0.1487
 5280TIP3    H137255   0.418   1.020  16.600  0.8304  1.1203 -0.4538
 5280TIP3    H237256   0.366   0.890  16.542 -0.2688  0.6799  1.4221
 5281TIP3   OH237257   3.075   6.435  11.477 -0.2269  0.0516 -0.2375
 5281TIP3    H137258   3.007   6.411  11.414  1.4021 -1.5692 -1.4928
 5281TIP3    H237259   3.147   6.375  11.458  1.9281  2.2889  0.3672
 5282TIP3   OH237260   4.009   1.003   3.524 -0.0300  0.2429  0.3373
 5282TIP3    H137261   4.064   0.958   3.589 -1.2126 -1.0298  0.5104
 5282TIP3    H237262   3.936   1.037   3.575 -0.4781  0.0687 -0.1834
 5283TIP3   OH237263   3.101   4.973  16.206 -0.1913 -0.2627 -0.0958
 5283TIP3    H137264   3.099   5.064  16.176 -0.0571  0.0639  0.8339
 5283TIP3    H237265   3.009   4.953  16.225 -0.1754 -0.1774  0.0815
 5284TIP3   OH237266   1.882   2.792   5.437  0.2801  0.1842  0.1648
 5284TIP3    H137267   1.797   2.835   5.441  0.0600 -0.3456  2.0189
 5284TIP3    H237268   1.931   2.841   5.370 -0.0717  3.1155  1.8754
 5285TIP3   OH237269   3.292   1.844  12.741  0.0062 -0.8836 -0.9185
 5285TIP3    H137270   3.378   1.856  12.701  0.1689 -1.6803 -0.8143
 5285TIP3    H237271   3.311   1.813  12.829 -0.3609  0.4386 -0.3513
 5286TIP3   OH237272   1.543   0.208  12.049  0.6816 -0.2845 -0.1167
 5286TIP3    H137273   1.548   0.295  12.008  1.9488 -0.5810 -0.6614
 5286TIP3    H237274   1.574   0.222  12.138 -0.3292  0.0382  0.1940
 5287TIP3   OH237275   0.133   3.660  15.446 -0.2864 -0.4968  0.1706
 5287TIP3    H137276   0.151   3.729  15.510 -0.0937 -1.2027  0.8914
 5287TIP3    H237277   0.160   3.579  15.489  1.1323 -0.8586 -1.3176
 5288TIP3   OH237278   3.682   5.295  14.537 -0.1015 -0.7842  0.3137
 5288TIP3    H137279   3.726   5.234  14.479 -1.0694  0.7523 -2.1816
 5288TIP3    H237280   3.589   5.274  14.529 -0.4112  0.7061 -0.2846
 5289TIP3   OH237281   4.068   3.398  13.646  0.0241 -0.9359 -0.7258
 5289TIP3    H137282   4.159   3.387  13.616  0.8482 -2.3877  1.9493
 5289TIP3    H237283   4.015   3.389  13.567  2.0352 -3.8319 -1.8975
 5290TIP3   OH237284   0.120   2.149  16.107  0.5903  0.2327 -0.0380
 5290TIP3    H137285   0.084   2.071  16.064  0.5515 -0.1327  0.6390
 5290TIP3    H237286   0.055   2.173  16.173 -1.3080  3.1779 -2.7187
 5291TIP3   OH237287   5.608   1.274  17.017  0.1994  0.2357 -0.3019
 5291TIP3    H137288   5.585   1.307  17.103  0.9722  0.3086 -0.1182
 5291TIP3    H237289   5.524   1.262  16.973 -0.3879 -2.2050  1.3246
 5292TIP3   OH237290   4.724   5.158  12.833 -0.1831  0.1306  0.4247
 5292TIP3    H137291   4.731   5.113  12.749 -2.1711  0.0965  0.2377
 5292TIP3    H237292   4.759   5.246  12.816 -0.0727 -0.0440 -0.2825
 5293TIP3   OH237293   1.808   4.617   3.219  0.4499  0.0097 -0.7017
 5293TIP3    H137294   1.806   4.531   3.261 -0.0554 -0.3875 -1.5249
 5293TIP3    H237295   1.892   4.619   3.174  1.1858  0.6044  0.6246
 5294TIP3   OH237296   6.176   3.415   1.697 -0.5748 -0.2179  0.3381
 5294TIP3    H137297   6.087   3.403   1.665 -0.9375 -0.7865  1.5048
 5294TIP3    H237298   6.196   3.334   1.743 -0.3636  0.8113  2.1438
 5295TIP3   OH237299   5.346   5.822  11.668  0.4924  0.5281 -0.3957
 5295TIP3    H137300   5.361   5.901  11.720 -0.3425  1.4168 -1.4784
 5295TIP3    H237301   5.284   5.771  11.720  0.2209  1.0618 -0.1892
 5296TIP3   OH237302   4.073   2.803  16.691 -0.1379  0.3636  0.3175
 5296TIP3    H137303   3.995   2.750  16.674  0.3794 -0.1785 -0.4499
 5296TIP3    H237304   4.129   2.789  16.614  0.7926  0.6012  0.9264
 5297TIP3   OH237305   3.938   3.446  16.437  0.1302  0.6995 -0.0631
 5297TIP3    H137306   3.949   3.374  16.375 -0.8451  1.4362 -1.1289
 5297TIP3    H237307   3.856   3.425  16.482  0.0057  0.9795 -0.1584
 5298TIP3   OH237308   6.362   3.293  16.564  0.6838 -0.3013 -0.1194
 5298TIP3    H137309   6.399   3.233  16.628  0.2953 -0.1710  0.2307
 5298TIP3    H237310   6.427   3.297  16.494  1.6488  0.4231  0.7792
 5299TIP3   OH237311   6.569   4.955   2.742 -0.0670 -0.3213 -0.0608
 5299TIP3    H137312   6.529   4.917   2.664  0.7673 -0.2871 -0.5281
 5299TIP3    H237313   6.530   4.908   2.815 -0.9083 -0.3187 -0.4918
 5300TIP3   OH237314   4.250   5.829   3.569 -0.3786  0.0221  0.7721
 5300TIP3    H137315   4.169   5.880   3.571 -0.2012  0.2954  2.1544
 5300TIP3    H237316   4.250   5.780   3.651 -0.2825 -1.8360 -0.2789
 5301TIP3   OH237317   6.740   0.183  10.426 -0.0138 -0.7203 -0.1856
 5301TIP3    H137318   6.824   0.224  10.405 -0.1107 -0.3549  0.1380
 5301TIP3    H237319   6.760   0.123  10.498 -0.0818 -0.4317  0.0746
 5302TIP3   OH237320   3.748   2.649   2.737 -0.2356 -0.0035 -0.3632
 5302TIP3    H137321   3.688   2.707   2.692  0.2799  1.2903  0.5631
 5302TIP3    H237322   3.741   2.673   2.829  0.1341 -1.2826  0.0210
 5303TIP3   OH237323   2.032   1.866  12.368 -0.2984  0.1450  0.4241
 5303TIP3    H137324   2.022   1.938  12.430  1.1060  1.6857 -1.0657
 5303TIP3    H237325   2.117   1.880  12.327 -0.9307 -1.1120 -1.4779
 5304TIP3   OH237326   5.082   5.065   5.324 -0.0022 -0.4570  0.1396
 5304TIP3    H137327   5.139   5.095   5.394 -0.6154 -0.1208  0.5022
 5304TIP3    H237328   4.997   5.053   5.365 -0.3476 -0.3452 -0.5220
 5305TIP3   OH237329   0.761   1.068  13.251 -0.6249 -0.4455 -0.0944
 5305TIP3    H137330   0.745   1.054  13.344  0.6760  0.1676  0.2470
 5305TIP3    H237331   0.813   1.148  13.248 -0.3502 -0.6562 -1.3337
 5306TIP3   OH237332   2.136   6.448   4.176 -0.2555  0.5005 -0.5715
 5306TIP3    H137333   2.181   6.364   4.177 -0.7179  0.2491 -0.7059
 5306TIP3    H237334   2.103   6.457   4.087 -0.3341  0.7558 -0.5188
 5307TIP3   OH237335   0.678   4.327   2.835 -0.1670  0.3416  0.4622
 5307TIP3    H137336   0.769   4.315   2.809 -0.0490 -1.4745  1.5125
 5307TIP3    H237337   0.635   4.362   2.758  1.3344  0.8489 -0.1825
 5308TIP3   OH237338   2.145   3.051  15.722 -0.5113 -0.7584  0.5780
 5308TIP3    H137339   2.119   3.133  15.681  1.3080 -0.2314  0.4142
 5308TIP3    H237340   2.101   2.984  15.671  0.1488 -0.0161 -1.0506
 5309TIP3   OH237341   3.218   6.506   5.220 -0.2483 -0.2765  0.0055
 5309TIP3    H137342   3.289   6.445   5.241 -1.5274 -1.7149  0.2679
 5309TIP3    H237343   3.207   6.558   5.299 -0.7582 -1.3581  0.6680
 5310TIP3   OH237344   5.512   6.085  15.329 -0.5138  0.4223  0.0869
 5310TIP3    H137345   5.432   6.050  15.290  0.0635 -2.1141  0.9834
 5310TIP3    H237346   5.530   6.028  15.404  3.0498 -0.2624 -1.0821
 5311TIP3   OH237347   2.371   1.857   2.228  0.2297 -0.5040 -0.1655
 5311TIP3    H137348   2.294   1.809   2.198  0.6981 -0.6044 -1.2532
 5311TIP3    H237349   2.437   1.843   2.159  1.0158  0.0858  0.4433
 5312TIP3   OH237350   5.056   4.325  15.598 -0.2127  0.3739  0.1685
 5312TIP3    H137351   5.112   4.341  15.522 -0.0345 -0.1714  0.1743
 5312TIP3    H237352   4.973   4.366  15.577 -1.3184 -2.5253 -1.7855
 5313TIP3   OH237353   3.129   1.661  15.805  0.3768  0.4035  0.1776
 5313TIP3    H137354   3.042   1.649  15.841  0.5684  0.3549  0.6312
 5313TIP3    H237355   3.170   1.726  15.863  0.6478  0.4098 -0.0186
 5314TIP3   OH237356   4.877   2.406  14.216  0.0488 -0.4480 -0.2232
 5314TIP3    H137357   4.837   2.442  14.137 -1.9770  1.1635  1.4137
 5314TIP3    H237358   4.920   2.326  14.187 -1.3890 -0.3875 -2.7909
 5315TIP3   OH237359   3.994   2.282   2.331 -0.2105  0.5519 -0.3357
 5315TIP3    H137360   4.054   2.296   2.405 -0.8798 -2.1704  0.8773
 5315TIP3    H237361   4.049   2.289   2.253  1.5475 -0.8747  0.6915
 5316TIP3   OH237362   1.701   2.120  12.116  0.1705 -0.0174 -0.4100
 5316TIP3    H137363   1.754   2.175  12.174 -1.0632 -0.9119  1.6876
 5316TIP3    H237364   1.706   2.033  12.156 -2.3921 -0.2300 -0.4288
 5317TIP3   OH237365   2.245   0.495  16.070 -0.2527  0.2713  0.1392
 5317TIP3    H137366   2.297   0.469  15.995 -1.2936  2.5956 -1.4988
 5317TIP3    H237367   2.304   0.484  16.145  0.9631 -1.6450 -1.0131
 5318TIP3   OH237368   0.746   3.871  16.777  0.1794  0.1583  0.0601
 5318TIP3    H137369   0.725   3.859  16.684  0.4161 -2.2724  0.2664
 5318TIP3    H237370   0.832   3.831  16.788  0.1402  0.3893  1.3388
 5319TIP3   OH237371   3.735   3.514   2.559  0.2973  0.0598  0.0667
 5319TIP3    H137372   3.657   3.552   2.598 -0.2187 -1.1269  0.2282
 5319TIP3    H237373   3.757   3.573   2.487 -0.4115  0.7051  0.3682
 5320TIP3   OH237374   2.676   3.953  13.481  0.1396  0.6750  0.9386
 5320TIP3    H137375   2.638   3.895  13.547 -1.1880 -0.0515 -0.4033
 5320TIP3    H237376   2.756   3.986  13.521 -0.8060  0.5675  3.0534
 5321TIP3   OH237377   5.699   6.615   5.416 -0.1628  0.3721  0.3777
 5321TIP3    H137378   5.725   6.680   5.481 -0.0517  1.4361 -0.7168
 5321TIP3    H237379   5.780   6.568   5.395 -0.2552 -0.1957  1.2071
 5322TIP3   OH237380   1.182   4.913  13.178 -0.1323  0.6403  0.0523
 5322TIP3    H137381   1.267   4.921  13.222 -1.3659 -1.0570  3.1235
 5322TIP3    H237382   1.124   4.968  13.229 -1.5877 -1.1470  0.4327
 5323TIP3   OH237383   6.390   5.622  12.109 -0.7431 -0.0590  0.2768
 5323TIP3    H137384   6.472   5.624  12.158 -0.7082  2.5037  0.2497
 5323TIP3    H237385   6.399   5.549  12.048  1.3065 -0.1473  0.6497
 5324TIP3   OH237386   0.820   1.014  13.526  0.3395 -0.6818 -0.0885
 5324TIP3    H137387   0.767   1.085  13.562  0.8245 -1.5993  2.6298
 5324TIP3    H237388   0.905   1.054  13.508  0.3968 -0.3968  0.7824
 5325TIP3   OH237389   5.231   4.772   2.870  0.5693  0.4943 -0.3924
 5325TIP3    H137390   5.201   4.681   2.881  2.4808 -0.2011 -0.4960
 5325TIP3    H237391   5.247   4.802   2.959  0.3282  0.5852 -0.3800
 5326TIP3   OH237392   2.453   6.557   2.718 -0.1446 -0.1906  0.2182
 5326TIP3    H137393   2.415   6.508   2.645  0.1053 -1.9841  1.2478
 5326TIP3    H237394   2.396   6.538   2.792  0.3444  0.5568  0.8088
 5327TIP3   OH237395   4.935   4.278  15.886 -0.2927  0.2714 -0.0313
 5327TIP3    H137396   4.940   4.305  15.795  0.2549 -0.7276 -0.3054
 5327TIP3    H237397   5.008   4.216  15.898 -0.4629  0.2459  1.0286
 5328TIP3   OH237398   2.155   2.445   3.782 -0.1570 -0.6324 -0.6444
 5328TIP3    H137399   2.225   2.496   3.823 -2.2455  0.5056  1.7713
 5328TIP3    H237400   2.135   2.492   3.701 -0.3482  0.9875  0.3060
 5329TIP3   OH237401   5.734   4.856  12.099  0.2216 -0.0600  1.0386
 5329TIP3    H137402   5.699   4.905  12.173  0.1731 -0.4738  1.2954
 5329TIP3    H237403   5.738   4.919  12.027  0.8185  0.5045  1.5473
 5330TIP3   OH237404   1.526   0.700   6.119 -0.2298 -0.2319 -0.2216
 5330TIP3    H137405   1.445   0.653   6.137  0.7684 -2.2660 -0.7012
 5330TIP3    H237406   1.510   0.789   6.151 -1.6931 -1.2525  2.2175
 5331TIP3   OH237407   5.351   1.740  16.175  0.2602  0.8300  0.3085
 5331TIP3    H137408   5.385   1.805  16.113  2.1286 -1.1955 -0.9384
 5331TIP3    H237409   5.256   1.740  16.159  0.3256  2.5909 -0.2859
 5332TIP3   OH237410   0.772   5.572  14.547 -0.5237 -0.0536  0.1343
 5332TIP3    H137411   0.769   5.651  14.601  0.4499 -0.4090  0.7385
 5332TIP3    H237412   0.860   5.537  14.560 -1.2828 -1.8639  0.7912
 5333TIP3   OH237413   6.333   0.322  15.989  0.2251  0.1112 -0.1794
 5333TIP3    H137414   6.392   0.304  15.915  1.1665  0.0138  0.5690
 5333TIP3    H237415   6.371   0.272  16.062  0.5018  1.8001  0.8910
 5334TIP3   OH237416   0.361   5.298  13.442  0.1675 -0.3832 -0.2410
 5334TIP3    H137417   0.385   5.383  13.480  1.3331 -0.2260 -1.2522
 5334TIP3    H237418   0.374   5.235  13.513 -0.3163  0.2325  0.3988
 5335TIP3   OH237419   0.615   2.221   5.302  0.2120 -0.2290  0.4409
 5335TIP3    H137420   0.576   2.239   5.388  1.2709  1.3526  0.6246
 5335TIP3    H237421   0.546   2.175   5.254 -1.1047  0.5864  1.4810
 5336TIP3   OH237422   0.929   4.517  14.102 -0.2073  0.5636  0.5512
 5336TIP3    H137423   1.014   4.474  14.095 -1.2428 -1.4585 -0.3979
 5336TIP3    H237424   0.921   4.570  14.022  0.0396  0.5346  0.5087
 5337TIP3   OH237425   3.500   5.823   5.508  0.6122  0.5292 -0.2835
 5337TIP3    H137426   3.408   5.805   5.488  0.6140 -3.2430  2.1408
 5337TIP3    H237427   3.549   5.776   5.440  0.7959  1.6853 -0.9756
 5338TIP3   OH237428   0.099   1.233   1.162 -0.0151 -0.0431 -0.0230
 5338TIP3    H137429   0.183   1.196   1.135 -0.2753 -0.7207  0.0868
 5338TIP3    H237430   0.058   1.165   1.215 -1.5224 -0.5460 -1.7446
 5339TIP3   OH237431   5.966   4.695  12.521  0.3742 -0.0146 -0.0710
 5339TIP3    H137432   5.957   4.672  12.428  0.8430  2.7094 -0.8616
 5339TIP3    H237433   5.976   4.790  12.522 -0.3759  0.1370  2.8578
 5340TIP3   OH237434   1.627   5.096  15.102 -0.0029  0.2071  0.0053
 5340TIP3    H137435   1.701   5.140  15.061  0.5637 -1.0883 -0.4065
 5340TIP3    H237436   1.550   5.132  15.058  0.4204  0.9201 -0.1666
 5341TIP3   OH237437   4.874   5.926   2.172  0.3088  0.5231  0.4468
 5341TIP3    H137438   4.808   5.989   2.202 -0.0982  0.5162 -0.3977
 5341TIP3    H237439   4.889   5.869   2.247  0.3463  1.3418  1.0816
 5342TIP3   OH237440   4.751   6.769  14.794  0.5640 -0.4046  0.2497
 5342TIP3    H137441   4.774   6.737  14.707 -0.6528 -0.1368 -0.1884
 5342TIP3    H237442   4.658   6.750  14.803  0.0345  1.9677  0.4073
 5343TIP3   OH237443   2.337   0.200   1.937  0.0059  0.5040  0.1408
 5343TIP3    H137444   2.260   0.257   1.928 -0.3645  0.3265  1.9774
 5343TIP3    H237445   2.314   0.121   1.888 -0.6102  0.8118 -0.0768
 5344TIP3   OH237446   2.171   0.527  12.749 -0.3448 -0.1820 -0.3583
 5344TIP3    H137447   2.145   0.449  12.799 -1.8748  0.3290 -0.3034
 5344TIP3    H237448   2.264   0.513  12.729 -0.2471 -1.3809  0.8074
 5345TIP3   OH237449   4.552   6.344  16.618 -0.0232  0.3145 -0.2088
 5345TIP3    H137450   4.525   6.290  16.544 -0.5170 -0.0445  0.2282
 5345TIP3    H237451   4.607   6.412  16.579  0.2192 -0.2194 -0.8294
 5346TIP3   OH237452   2.962   3.225   3.030  0.4653  0.3039  0.1388
 5346TIP3    H137453   3.011   3.212   3.112  2.1355  0.4530 -0.7758
 5346TIP3    H237454   2.957   3.320   3.021  1.9721  0.3376 -0.8179
 5347TIP3   OH237455   1.052   5.381   2.018  0.3731  0.1208 -0.9429
 5347TIP3    H137456   1.090   5.453   2.068  0.5925 -0.6354 -0.0126
 5347TIP3    H237457   1.125   5.322   2.001 -0.5412 -2.1870  2.2694
 5348TIP3   OH237458   2.659   5.300   1.276 -0.2826 -0.2699  0.0926
 5348TIP3    H137459   2.614   5.292   1.359 -1.5839  1.2484 -0.4282
 5348TIP3    H237460   2.698   5.387   1.277  0.6577 -0.6620 -0.4452
 5349TIP3   OH237461   1.903   1.564   5.395 -0.1666 -0.0396 -0.1122
 5349TIP3    H137462   1.812   1.538   5.386 -0.0685 -1.0849  1.4547
 5349TIP3    H237463   1.902   1.659   5.386 -1.6634  0.1379  1.3720
 5350TIP3   OH237464   0.076   1.361   5.813 -0.5876  0.6661 -0.1387
 5350TIP3    H137465   0.014   1.378   5.742  0.3549 -1.7363 -1.6576
 5350TIP3    H237466   0.053   1.273   5.845  1.7613 -0.1445 -0.5170
 5351TIP3   OH237467   5.728   1.062  16.805  0.0106 -0.6290  0.1956
 5351TIP3    H137468   5.634   1.067  16.821 -0.1082 -0.9286 -0.3472
 5351TIP3    H237469   5.769   1.102  16.881 -0.6171  1.6740 -0.6211
 5352TIP3   OH237470   5.209   3.315  11.883  0.0895 -0.0119  0.4233
 5352TIP3    H137471   5.165   3.389  11.842  1.0047  0.0423 -0.4961
 5352TIP3    H237472   5.227   3.344  11.972 -0.7262  0.3687  0.4751
 5353TIP3   OH237473   4.423   2.994  12.686  0.7559 -0.0181  0.2293
 5353TIP3    H137474   4.460   3.080  12.702  2.4932 -0.7456  0.3929
 5353TIP3    H237475   4.391   2.965  12.771 -2.0569  1.3725 -0.2475
 5354TIP3   OH237476   2.053   5.697  12.834  0.6705 -0.7061  0.6502
 5354TIP3    H137477   2.020   5.786  12.822 -0.7683 -1.1908  0.8579
 5354TIP3    H237478   2.139   5.697  12.791  1.2520  1.1116  1.7124
 5355TIP3   OH237479   5.503   0.023  15.871 -0.0142 -0.3329 -0.1962
 5355TIP3    H137480   5.503   0.115  15.843 -0.1099 -0.4962 -0.7573
 5355TIP3    H237481   5.513  -0.026  15.789  0.9612 -0.7974  0.1946
 5356TIP3   OH237482   1.608   1.982  17.078 -0.1380 -0.0281 -0.6078
 5356TIP3    H137483   1.698   1.996  17.047  0.7994 -1.2262  1.4061
 5356TIP3    H237484   1.569   2.069  17.075  1.5922  0.8223 -0.1047
 5357TIP3   OH237485   1.018   5.513  15.141 -0.7547  0.3259  0.9297
 5357TIP3    H137486   0.970   5.596  15.143 -2.2644 -0.3700 -1.3504
 5357TIP3    H237487   0.981   5.461  15.212 -1.6172  0.7275  0.7836
 5358TIP3   OH237488   0.326   5.057   0.453  0.7618 -0.2408  0.0365
 5358TIP3    H137489   0.305   4.973   0.412  1.0802 -1.1520  1.6382
 5358TIP3    H237490   0.389   5.098   0.394  0.3554 -0.9715 -0.9363
 5359TIP3   OH237491   2.037   2.858   0.814  0.1017 -0.0730  0.4726
 5359TIP3    H137492   1.960   2.905   0.781 -0.9041 -1.1579  1.2007
 5359TIP3    H237493   2.055   2.899   0.899  1.7547  1.6899 -0.6471
 5360TIP3   OH237494   2.857   1.741   0.816 -0.0314 -0.2519 -0.7427
 5360TIP3    H137495   2.870   1.716   0.724 -0.6234  0.4347 -1.0224
 5360TIP3    H237496   2.943   1.728   0.856  0.2936 -0.3564 -1.4499
 5361TIP3   OH237497   6.526   0.035  12.876  0.1073  0.1155  0.1073
 5361TIP3    H137498   6.431   0.028  12.869  0.0415 -1.0708  1.6855
 5361TIP3    H237499   6.541   0.114  12.928 -0.0889 -0.5036  1.1169
 5362TIP3   OH237500   3.817   1.081  15.068  0.2775  0.4075  0.0003
 5362TIP3    H137501   3.807   1.084  14.973  0.1256  0.6600  0.0225
 5362TIP3    H237502   3.738   1.036  15.099 -0.2476  1.3570  0.0883
 5363TIP3   OH237503   6.054   6.243  10.572 -0.3914 -0.2018  0.7065
 5363TIP3    H137504   6.149   6.253  10.577 -0.4445  0.2969  0.7302
 5363TIP3    H237505   6.023   6.327  10.539 -0.7649 -0.6012  0.0115
 5364TIP3   OH237506   0.917   3.895  13.435  0.1798  0.2506 -0.2973
 5364TIP3    H137507   0.941   3.860  13.349  1.6258 -2.3799  1.0445
 5364TIP3    H237508   0.983   3.962  13.452  1.4759 -0.9882 -0.2389
 5365TIP3   OH237509   0.174   6.549  15.071 -0.3593 -0.4997  0.0531
 5365TIP3    H137510   0.201   6.530  15.160  0.1243  1.6729  0.4407
 5365TIP3    H237511   0.085   6.515  15.065 -0.1945 -1.1781  1.1725
 5366TIP3   OH237512   3.373   2.012  16.424  0.7980 -0.2462 -0.5777
 5366TIP3    H137513   3.461   2.038  16.450  0.1717  1.5426 -0.1220
 5366TIP3    H237514   3.329   2.094  16.404 -1.1165 -1.0073  0.2922
 5367TIP3   OH237515   1.475   3.760   3.591  0.1850  0.0931  0.0974
 5367TIP3    H137516   1.400   3.795   3.640 -0.4769  0.0520 -0.8756
 5367TIP3    H237517   1.551   3.804   3.630 -0.4788  1.3601  0.0234
 5368TIP3   OH237518   5.594   0.945   0.326 -0.4827 -0.7441  0.5143
 5368TIP3    H137519   5.626   0.858   0.351  0.3102 -0.7147 -0.3054
 5368TIP3    H237520   5.667   0.983   0.277 -1.4224 -0.2563 -0.5506
 5369TIP3   OH237521   4.533   1.306  11.997 -0.1948 -0.0599 -0.3808
 5369TIP3    H137522   4.571   1.369  11.937  1.6044  1.1665  1.8735
 5369TIP3    H237523   4.592   1.230  11.993  1.7559  1.1841  1.8628
 5370TIP3   OH237524   5.974   2.961  15.058 -0.2943 -0.3832 -0.2994
 5370TIP3    H137525   6.023   3.016  14.996 -0.8628  0.0373 -0.3817
 5370TIP3    H237526   5.892   3.008  15.073 -0.7583 -1.1706 -0.2982
 5371TIP3   OH237527   4.606   3.750  11.176  0.7904 -0.0324 -0.1545
 5371TIP3    H137528   4.585   3.657  11.183  0.3621  0.0898  0.2474
 5371TIP3    H237529   4.649   3.771  11.259  1.3520  0.0161 -0.4502
 5372TIP3   OH237530   5.621   4.967   0.175  0.1010  0.2101 -0.1758
 5372TIP3    H137531   5.539   4.959   0.224  0.2842  0.1017  0.1111
 5372TIP3    H237532   5.659   4.880   0.179  0.2755  0.2849 -0.2343
 5373TIP3   OH237533   3.173   3.747  12.731  0.0443  0.6693 -0.5166
 5373TIP3    H137534   3.235   3.681  12.763 -0.2753  1.2770  1.5326
 5373TIP3    H237535   3.096   3.697  12.705 -0.4869  0.2075  1.7310
 5374TIP3   OH237536   5.787   0.576  11.149  0.2794  0.2300  0.2240
 5374TIP3    H137537   5.845   0.549  11.220 -1.5067  0.4221  1.8270
 5374TIP3    H237538   5.800   0.670  11.140  0.5377  0.1971  0.2589
 5375TIP3   OH237539   4.048   5.989   3.563 -0.4363  0.0392 -0.0474
 5375TIP3    H137540   4.062   6.025   3.475 -1.7543 -1.4868 -0.9436
 5375TIP3    H237541   3.956   6.010   3.582 -0.1347  0.4388  1.0311
 5376TIP3   OH237542   1.409   1.429  11.290  0.2862 -0.1675  0.0701
 5376TIP3    H137543   1.424   1.514  11.247  0.3409 -0.0181  0.3874
 5376TIP3    H237544   1.340   1.446  11.354 -0.5875 -0.6395 -0.7140
 5377TIP3   OH237545   3.237   3.154   0.778 -0.4673 -0.0567  0.0963
 5377TIP3    H137546   3.154   3.178   0.738 -0.4693  0.1936  0.2509
 5377TIP3    H237547   3.219   3.069   0.820 -0.8605  0.3546  0.7807
 5378TIP3   OH237548   4.376   5.396  13.829  0.0552 -0.7083  0.4013
 5378TIP3    H137549   4.385   5.357  13.742 -1.3934 -2.4406  0.9859
 5378TIP3    H237550   4.442   5.351  13.882  2.1007  1.4869 -0.0637
 5379TIP3   OH237551   3.383   0.959  13.894  0.1214  0.6052  0.4721
 5379TIP3    H137552   3.342   1.036  13.854 -1.8249 -0.5171  0.1548
 5379TIP3    H237553   3.311   0.916  13.941  1.3319 -0.6066  1.2851
 5380TIP3   OH237554   5.853   5.967  11.593  0.1100 -0.3380 -0.1192
 5380TIP3    H137555   5.786   6.003  11.534  0.5967 -0.6743 -0.8838
 5380TIP3    H237556   5.866   6.037  11.657  0.6057  0.6420 -1.2402
 5381TIP3   OH237557   5.998   6.732   4.413 -0.0780  0.1889  0.6334
 5381TIP3    H137558   5.908   6.717   4.441  0.2974 -0.3406  1.6101
 5381TIP3    H237559   5.996   6.816   4.368 -1.3825 -0.6070 -0.8702
 5382TIP3   OH237560   0.692   5.125  13.930 -0.1615 -0.4024 -0.2582
 5382TIP3    H137561   0.744   5.175  13.993 -2.9206 -0.3155  2.1427
 5382TIP3    H237562   0.749   5.117  13.853  2.2294  2.1778  1.0555
 5383TIP3   OH237563   4.414   1.389  12.723 -0.1722 -0.0984 -0.1058
 5383TIP3    H137564   4.331   1.429  12.751 -1.3893 -2.7650  0.3963
 5383TIP3    H237565   4.431   1.428  12.637 -3.1315 -0.9720 -1.2292
 5384TIP3   OH237566   0.446   0.220  15.827 -0.4917  0.7876 -0.0207
 5384TIP3    H137567   0.371   0.201  15.883 -0.4307 -0.2432 -0.2595
 5384TIP3    H237568   0.429   0.307  15.792 -0.9628  1.0819  0.8984
 5385TIP3   OH237569   1.004   0.297   2.316  0.4471  0.4109  0.3887
 5385TIP3    H137570   0.992   0.329   2.405  0.3965  0.0452  0.5099
 5385TIP3    H237571   0.982   0.373   2.261  0.4093  0.6140  0.6803
 5386TIP3   OH237572   2.637   4.339  13.620  0.3870  0.4617 -0.3905
 5386TIP3    H137573   2.697   4.307  13.687 -0.6225 -0.4183  0.1147
 5386TIP3    H237574   2.685   4.328  13.538  1.1264  0.2979  0.0536
 5387TIP3   OH237575   5.438   3.406  14.283 -0.6054 -0.7258 -0.0434
 5387TIP3    H137576   5.530   3.419  14.262 -0.5222 -0.6388  0.3830
 5387TIP3    H237577   5.394   3.482  14.245 -0.2274  0.4095  1.6882
 5388TIP3   OH237578   4.695   0.287   1.407 -0.0363  0.5696 -0.3057
 5388TIP3    H137579   4.728   0.341   1.479  1.8517 -0.2607 -0.4894
 5388TIP3    H237580   4.774   0.248   1.368 -1.2462 -1.5070 -0.8220
 5389TIP3   OH237581   1.102   5.185  15.843 -0.5545  0.2896  0.1515
 5389TIP3    H137582   1.145   5.162  15.926  2.3150 -0.3299 -1.3731
 5389TIP3    H237583   1.085   5.279  15.851 -1.7817 -0.0255  1.9944
 5390TIP3   OH237584   5.751   1.478  16.871 -0.2030 -0.2954 -0.3022
 5390TIP3    H137585   5.677   1.442  16.919 -0.9049 -1.5320 -2.2034
 5390TIP3    H237586   5.724   1.567  16.848 -0.0080  0.1799  1.1906
 5391TIP3   OH237587   2.861   1.030   4.364 -0.3530 -0.1010 -0.5409
 5391TIP3    H137588   2.870   0.951   4.310 -0.4099  0.1284 -0.8949
 5391TIP3    H237589   2.811   1.090   4.309  0.2114  0.4034 -0.5165
 5392TIP3   OH237590   2.071   3.944   4.624  0.5314  0.2624 -0.1688
 5392TIP3    H137591   1.976   3.946   4.615  0.4205 -0.2442  0.7912
 5392TIP3    H237592   2.101   4.023   4.579 -0.3865  0.6902 -0.0477
 5393TIP3   OH237593   0.364   3.857  14.034 -0.4174  0.4934 -0.2118
 5393TIP3    H137594   0.361   3.941  14.080  2.0242  1.2971 -1.3120
 5393TIP3    H237595   0.354   3.881  13.941  3.6244  0.1395 -0.9123
 5394TIP3   OH237596   4.286   6.033  12.358 -0.0205 -0.6206  0.2178
 5394TIP3    H137597   4.297   5.986  12.441 -0.2807  1.0816  1.2679
 5394TIP3    H237598   4.363   6.089  12.351  0.1167 -0.9227 -0.8298
 5395TIP3   OH237599   0.132   2.753  13.031 -0.0893 -0.7253  0.0229
 5395TIP3    H137600   0.040   2.769  13.011 -0.2164 -0.6868  0.6206
 5395TIP3    H237601   0.161   2.833  13.074 -0.3193 -1.4594  1.6397
 5396TIP3   OH237602   4.456   3.716   4.084  0.2800 -0.7017 -0.5375
 5396TIP3    H137603   4.503   3.645   4.042  0.5964  0.6649 -2.6908
 5396TIP3    H237604   4.365   3.686   4.086  0.3921 -1.1570 -1.4968
 5397TIP3   OH237605   1.595   6.136   0.912 -0.7189 -0.0711 -0.1913
 5397TIP3    H137606   1.629   6.102   0.830  0.4091  0.5500  0.0015
 5397TIP3    H237607   1.516   6.185   0.887 -0.2195  0.3606 -0.9422
 5398TIP3   OH237608   4.559   3.527   0.437 -0.2285  0.7883  0.5566
 5398TIP3    H137609   4.633   3.585   0.418  0.7238  0.1948  2.2952
 5398TIP3    H237610   4.598   3.439   0.439 -0.8953  0.5082  1.8847
 5399TIP3   OH237611   0.551   5.032  14.220 -0.3849 -0.3391 -0.1398
 5399TIP3    H137612   0.468   5.038  14.174 -0.0358  1.0731 -0.6283
 5399TIP3    H237613   0.617   5.056  14.154  0.2737 -0.0340  0.6108
 5400TIP3   OH237614   1.323   0.037   2.512  0.5069 -0.5070  0.0855
 5400TIP3    H137615   1.397  -0.009   2.552  1.9775  1.6700  0.0770
 5400TIP3    H237616   1.269   0.063   2.587  1.8775  1.2830  0.5277
 5401TIP3   OH237617   4.527   1.104   4.673  0.6433  0.6101  0.4307
 5401TIP3    H137618   4.564   1.107   4.762 -1.4600 -0.6874  1.4273
 5401TIP3    H237619   4.487   1.190   4.661  0.1886  0.4944  1.0940
 5402TIP3   OH237620   6.058   6.337  11.164 -0.3332 -0.2891  0.0180
 5402TIP3    H137621   5.997   6.330  11.236  0.9403  0.0653  1.1690
 5402TIP3    H237622   6.143   6.315  11.202  0.6026  1.3764 -0.9923
 5403TIP3   OH237623   4.191   5.017   5.189  0.0369  0.2386 -0.5081
 5403TIP3    H137624   4.213   4.943   5.246 -0.9362  0.3881  0.0886
 5403TIP3    H237625   4.122   4.982   5.131 -0.9692  0.8713  0.2756
 5404TIP3   OH237626   4.497   4.879  13.658 -0.4368 -0.1172 -0.3105
 5404TIP3    H137627   4.575   4.824  13.645 -0.7114 -0.8430  0.9789
 5404TIP3    H237628   4.528   4.968  13.643  0.5136 -0.4381 -0.3348
 5405TIP3   OH237629   5.629   1.610   5.433 -0.4189  0.2872 -0.0284
 5405TIP3    H137630   5.669   1.645   5.354 -0.8856 -0.0818 -0.4388
 5405TIP3    H237631   5.629   1.515   5.420  0.3278  0.1626  0.8244
 5406TIP3   OH237632   1.941   2.343   1.264  0.6724 -0.2781  0.2828
 5406TIP3    H137633   1.912   2.267   1.213 -0.6473  0.4849 -0.1525
 5406TIP3    H237634   1.970   2.406   1.199  0.7812 -0.0073  0.5917
 5407TIP3   OH237635   0.126   2.307  15.734  0.9068 -0.0126  0.4296
 5407TIP3    H137636   0.176   2.226  15.739  0.6280 -0.2719 -0.6282
 5407TIP3    H237637   0.166   2.355  15.662  2.0621  1.5121  2.0265
 5408TIP3   OH237638   3.010   0.088   2.595 -0.3445 -0.0227 -0.3654
 5408TIP3    H137639   3.067   0.023   2.636  2.0064  2.5997  0.8722
 5408TIP3    H237640   2.924   0.074   2.636  0.4933 -1.2883  1.0459
 5409TIP3   OH237641   3.393   5.910  12.497  0.7118  0.2682  0.0521
 5409TIP3    H137642   3.474   5.933  12.450  0.5429 -1.1106 -0.9902
 5409TIP3    H237643   3.324   5.951  12.446  0.6819  0.6534  0.3997
 5410TIP3   OH237644   1.587   5.927   5.811 -0.2518  0.3228 -0.5725
 5410TIP3    H137645   1.591   5.832   5.817  1.0497  0.2995 -1.5311
 5410TIP3    H237646   1.510   5.950   5.863  0.1779 -1.1327  0.8150
 5411TIP3   OH237647   0.403   0.341  16.231  0.0912  0.0775  0.3256
 5411TIP3    H137648   0.431   0.426  16.266  2.1225 -0.5837  0.4867
 5411TIP3    H237649   0.349   0.363  16.155  2.1339  1.5721 -0.8232
 5412TIP3   OH237650   5.920   2.037   0.470 -0.0510  0.1858  0.2309
 5412TIP3    H137651   5.990   2.078   0.419  0.8917 -0.3153  1.0827
 5412TIP3    H237652   5.964   1.968   0.520 -0.7750  1.1260  2.2925
 5413TIP3   OH237653   1.341   0.865   0.250  0.4247 -0.4256  0.2531
 5413TIP3    H137654   1.420   0.917   0.243  0.3323 -0.1042  1.4180
 5413TIP3    H237655   1.313   0.851   0.159  1.2502  0.3018 -0.1249
 5414TIP3   OH237656   4.687   2.876  13.550 -0.2476 -0.2551  0.0666
 5414TIP3    H137657   4.771   2.833  13.535 -0.3022  0.3723 -2.5874
 5414TIP3    H237658   4.622   2.808  13.536 -0.2683  0.1622 -2.1326
 5415TIP3   OH237659   1.149   6.356  17.065  0.1021 -0.0442 -0.2939
 5415TIP3    H137660   1.151   6.425  17.132 -0.0854 -1.9542  1.7924
 5415TIP3    H237661   1.223   6.377  17.007  0.3418  1.6230  0.5565
 5416TIP3   OH237662   3.858   3.356   2.730  0.2763 -0.1646 -0.0710
 5416TIP3    H137663   3.944   3.399   2.732  0.0338  0.5283 -2.1010
 5416TIP3    H237664   3.810   3.402   2.662 -1.4657 -1.0300  0.5246
 5417TIP3   OH237665   0.771   4.871   1.538  0.0241 -0.1211  0.3287
 5417TIP3    H137666   0.808   4.870   1.626 -1.5182 -0.0866  1.0004
 5417TIP3    H237667   0.736   4.783   1.525 -2.7259  0.7704  1.1016
 5418TIP3   OH237668   4.072   0.666  14.278  0.3611  0.0192 -0.8278
 5418TIP3    H137669   4.108   0.710  14.201  2.3234 -1.3181 -0.7386
 5418TIP3    H237670   3.995   0.619  14.244 -0.0308  1.1019 -1.5046
 5419TIP3   OH237671   4.249   2.019   5.364 -0.0113 -0.1632  0.1870
 5419TIP3    H137672   4.166   2.066   5.366  0.5561  0.9089  2.9631
 5419TIP3    H237673   4.278   2.027   5.273 -2.2533  0.6270 -0.5367
 5420TIP3   OH237674   3.365   4.551  16.979  0.1630  0.2985  0.1042
 5420TIP3    H137675   3.423   4.582  16.910 -0.8214 -0.3722 -1.0773
 5420TIP3    H237676   3.404   4.468  17.007  1.1772  1.1142  1.1755
 5421TIP3   OH237677   2.057   2.808   3.883  0.3154 -0.5144 -0.1554
 5421TIP3    H137678   2.149   2.782   3.883  1.0972  1.9071  1.2347
 5421TIP3    H237679   2.054   2.888   3.830 -0.7374  0.0959  0.7666
 5422TIP3   OH237680   2.113   2.728   0.151  0.2660 -0.4955 -0.1391
 5422TIP3    H137681   2.107   2.813   0.108  0.5454 -0.1858  0.4267
 5422TIP3    H237682   2.096   2.664   0.082  0.5643  0.0005 -0.6709
 5423TIP3   OH237683   5.675   2.119   5.929  0.4137  0.2680 -0.6113
 5423TIP3    H137684   5.662   2.029   5.958 -1.2698  0.7537  0.3040
 5423TIP3    H237685   5.711   2.111   5.841  1.9144 -1.2755  0.0933
 5424TIP3   OH237686   1.029   0.537   5.101 -0.4868  0.8763  0.5446
 5424TIP3    H137687   0.958   0.592   5.135 -2.7854 -1.0586 -0.8435
 5424TIP3    H237688   1.030   0.554   5.007 -0.3634 -0.4633  0.2853
 5425TIP3   OH237689   2.174   5.775  15.992  0.2706 -0.1798 -0.6345
 5425TIP3    H137690   2.138   5.731  16.069 -0.5920  0.2640 -0.7583
 5425TIP3    H237691   2.191   5.705  15.930 -1.5054 -0.3420 -0.9989
 5426TIP3   OH237692   2.082   1.114  16.888 -0.1902  0.3229  0.3689
 5426TIP3    H137693   2.035   1.098  16.806  0.6259  1.4755 -0.3759
 5426TIP3    H237694   2.022   1.088  16.957 -1.3245  0.3471 -0.5856
 5427TIP3   OH237695   0.883   1.190  16.575 -0.2809  0.7263 -0.4265
 5427TIP3    H137696   0.848   1.212  16.488 -0.4759  0.6470 -0.3695
 5427TIP3    H237697   0.878   1.272  16.624 -2.4113  0.2419  0.2688
 5428TIP3   OH237698   0.614   0.090  14.633  0.2091  0.3148  0.2515
 5428TIP3    H137699   0.692   0.053  14.593 -0.2423 -1.3251  0.7811
 5428TIP3    H237700   0.601   0.174  14.590  1.4203 -0.0576 -0.8831
 5429TIP3   OH237701   6.802   1.096  12.174 -0.3308  0.2570  0.6768
 5429TIP3    H137702   6.743   1.020  12.167  1.4019 -1.1694  0.8041
 5429TIP3    H237703   6.854   1.094  12.094  0.5486  0.6041  1.2307
 5430TIP3   OH237704   1.335   1.072   1.973 -0.3147  0.3026  0.5301
 5430TIP3    H137705   1.402   1.008   1.952  0.0472  0.3635  1.4601
 5430TIP3    H237706   1.260   1.019   2.001 -0.6066  0.2427 -0.3159
 5431TIP3   OH237707   4.024   4.066   1.062 -0.0474 -0.0516 -0.0836
 5431TIP3    H137708   3.949   4.120   1.086 -0.1023  0.2483 -0.9205
 5431TIP3    H237709   4.100   4.123   1.074 -0.0697  0.0799 -0.5523
 5432TIP3   OH237710   0.921   2.577   5.968 -0.0593  0.0881  0.7680
 5432TIP3    H137711   0.854   2.633   6.007 -1.7860 -1.2013 -0.2501
 5432TIP3    H237712   0.890   2.488   5.982 -0.4415 -0.4950 -2.7847
 5433TIP3   OH237713   5.258   0.315   1.171 -0.0221 -0.0307 -0.0767
 5433TIP3    H137714   5.283   0.331   1.262 -0.9692 -0.4752  0.2756
 5433TIP3    H237715   5.163   0.321   1.171  0.0286  1.0169 -1.2553
 5434TIP3   OH237716   1.438   5.288  15.051 -0.9308 -0.1257  0.7824
 5434TIP3    H137717   1.377   5.234  15.101  0.2223  0.0245  2.4404
 5434TIP3    H237718   1.483   5.342  15.117 -0.9308  1.7497 -0.6527
 5435TIP3   OH237719   2.470   0.747   3.492  0.2929  0.2209 -0.2719
 5435TIP3    H137720   2.438   0.824   3.445 -1.9166 -0.7022 -0.3976
 5435TIP3    H237721   2.438   0.758   3.581  0.8499 -0.0835 -0.0260
 5436TIP3   OH237722   4.781   1.391   0.388  0.0994  0.2669  0.5916
 5436TIP3    H137723   4.705   1.426   0.341  1.0894  1.1484 -0.4140
 5436TIP3    H237724   4.745   1.359   0.471 -1.5719 -0.5283 -0.3734
 5437TIP3   OH237725   5.891   4.462  14.310 -0.3921 -0.0840 -0.1298
 5437TIP3    H137726   5.867   4.523  14.380 -1.1283  0.8124 -1.1284
 5437TIP3    H237727   5.825   4.476  14.242  0.1055 -1.1780 -0.8676
 5438TIP3   OH237728   1.246   1.274  11.770 -0.1654  0.0104 -0.0367
 5438TIP3    H137729   1.257   1.354  11.820 -1.5026  0.7475 -0.8637
 5438TIP3    H237730   1.152   1.266  11.758 -0.1041 -1.9800  0.4664
 5439TIP3   OH237731   5.523   6.334  15.448  0.1146  0.6790 -0.4045
 5439TIP3    H137732   5.593   6.369  15.393  0.6926  0.4278  0.1460
 5439TIP3    H237733   5.501   6.249  15.409  1.5866 -0.2097  0.5815
 5440TIP3   OH237734   4.841   6.157   9.945  0.5342  0.1187  0.1314
 5440TIP3    H137735   4.900   6.216   9.993  1.3548 -1.7596  1.5422
 5440TIP3    H237736   4.759   6.161   9.993  0.5586  0.2030  0.1670
 5441TIP3   OH237737   5.820   5.771  16.124  0.1581 -0.1865 -0.4245
 5441TIP3    H137738   5.810   5.677  16.108  2.0775 -0.6315  0.7064
 5441TIP3    H237739   5.887   5.800  16.063  1.3111 -0.0975  0.8263
 5442TIP3   OH237740   5.730   6.283  10.640  0.2823  0.4774 -0.8668
 5442TIP3    H137741   5.700   6.266  10.550  0.0341 -1.5358 -0.4571
 5442TIP3    H237742   5.717   6.200  10.685 -0.6243  1.7340  1.3464
 5443TIP3   OH237743   0.698   4.745  12.663 -0.1160  0.3927  0.4546
 5443TIP3    H137744   0.736   4.730  12.576  2.4955  0.4217  1.4882
 5443TIP3    H237745   0.684   4.657  12.698  2.3289  0.2856  1.3363
 5444TIP3   OH237746   0.879   5.333   5.012 -0.1319  0.0879 -0.5827
 5444TIP3    H137747   0.794   5.375   5.004 -0.8337 -1.4533 -2.0301
 5444TIP3    H237748   0.865   5.244   4.980  1.8651 -0.4418 -0.1677
 5445TIP3   OH237749   4.481   2.032   2.412 -0.3490 -0.3951  0.2093
 5445TIP3    H137750   4.422   2.097   2.374  0.4382 -0.8282 -1.8651
 5445TIP3    H237751   4.554   2.027   2.351  0.2971 -2.2051  1.0689
 5446TIP3   OH237752   2.330   1.266  15.852 -0.2508 -0.6007  0.4177
 5446TIP3    H137753   2.402   1.240  15.910  1.3252  0.1433 -1.1145
 5446TIP3    H237754   2.369   1.330  15.793 -2.3506  0.2852 -0.0991
 5447TIP3   OH237755   5.897   1.479  16.264 -0.5027  0.0975  0.3113
 5447TIP3    H137756   5.845   1.466  16.185 -1.2247 -0.0599  0.8065
 5447TIP3    H237757   5.987   1.459  16.237 -0.8045 -0.3844 -0.3614
 5448TIP3   OH237758   5.431   1.964   0.490 -0.4857 -0.0737 -1.0750
 5448TIP3    H137759   5.395   1.876   0.503  0.4319 -0.4626 -1.0475
 5448TIP3    H237760   5.396   1.992   0.405 -1.9029  0.1210 -0.4563
 5449TIP3   OH237761   3.490   4.389  15.820  0.2858  0.6581  0.2460
 5449TIP3    H137762   3.403   4.422  15.794  0.3047  0.1436 -0.5243
 5449TIP3    H237763   3.498   4.411  15.912 -0.0692  1.9968 -0.0284
 5450TIP3   OH237764   4.048   5.744  10.529  0.7431  0.2691  0.3848
 5450TIP3    H137765   4.027   5.822  10.582  0.7240  0.3451  0.2651
 5450TIP3    H237766   4.131   5.713  10.565 -0.4548 -1.1311  2.1228
 5451TIP3   OH237767   3.008   1.132  13.348 -0.4032 -0.5482  0.1654
 5451TIP3    H137768   2.956   1.108  13.271  1.8653 -1.8155 -1.0553
 5451TIP3    H237769   3.043   1.219  13.326 -0.3230 -0.6014  0.0822
 5452TIP3   OH237770   0.305   1.466   3.505 -0.3741  0.0967 -0.2907
 5452TIP3    H137771   0.270   1.500   3.587  1.2752  0.6185  0.2414
 5452TIP3    H237772   0.370   1.401   3.532 -0.8864 -0.8402 -1.2298
 5453TIP3   OH237773   6.271   0.445  14.395  0.2307 -0.6332  0.2641
 5453TIP3    H137774   6.338   0.445  14.463 -0.7427 -0.3595  1.2475
 5453TIP3    H237775   6.301   0.380  14.332  0.9939 -1.1226  1.1053
 5454TIP3   OH237776   3.446   5.499   4.964 -0.0860 -0.0696  0.2676
 5454TIP3    H137777   3.424   5.435   5.031  0.1920  0.5475  0.9623
 5454TIP3    H237778   3.483   5.447   4.892 -0.3574 -0.7326  0.6012
 5455TIP3   OH237779   1.249   0.066  12.075 -0.2855  0.2656 -0.2162
 5455TIP3    H137780   1.336   0.106  12.074  0.6596 -1.4652  2.4926
 5455TIP3    H237781   1.264  -0.026  12.055 -1.5006 -0.0785  0.3335
 5456TIP3   OH237782   6.592   3.821  16.948 -0.2707  0.5159 -0.1388
 5456TIP3    H137783   6.615   3.739  16.904  0.7020 -0.0013  1.2843
 5456TIP3    H237784   6.555   3.875  16.878 -1.0006 -1.1413 -1.1101
 5457TIP3   OH237785   5.455   1.810   2.432  0.3562 -0.4549 -0.1168
 5457TIP3    H137786   5.454   1.755   2.511  2.0639 -0.4742 -0.0791
 5457TIP3    H237787   5.462   1.899   2.466  0.4694 -0.4186 -0.2394
 5458TIP3   OH237788   4.153   1.106   3.315 -0.2488  0.0085  0.6047
 5458TIP3    H137789   4.182   1.181   3.366  0.5557  0.5205 -0.5592
 5458TIP3    H237790   4.101   1.054   3.376 -0.3282  1.2051  1.5896
 5459TIP3   OH237791   1.597   4.282   4.805 -0.0947 -0.5940  0.3529
 5459TIP3    H137792   1.655   4.234   4.865 -0.2456 -1.5520 -0.2405
 5459TIP3    H237793   1.513   4.287   4.851  0.0204 -0.5934  0.5638
 5460TIP3   OH237794   2.383   1.617   6.124  0.4659  0.2401  0.1316
 5460TIP3    H137795   2.316   1.672   6.164  0.9443  1.2700 -0.4427
 5460TIP3    H237796   2.343   1.531   6.117  0.3442  0.0245  2.7527
 5461TIP3   OH237797   5.715   3.080  15.133 -0.1836 -0.3386 -0.1757
 5461TIP3    H137798   5.687   3.064  15.223  0.6922 -0.9435  0.0042
 5461TIP3    H237799   5.733   3.174  15.129 -0.3566 -0.2877  0.2464
 5462TIP3   OH237800   2.043   4.020  11.046  0.0746  0.0408 -0.0501
 5462TIP3    H137801   2.079   4.085  11.107  0.2055  0.9263 -1.0462
 5462TIP3    H237802   2.099   3.944  11.056 -0.4188 -0.1636  1.5588
 5463TIP3   OH237803   1.656   6.313   3.042  0.1854  0.2213 -0.0313
 5463TIP3    H137804   1.562   6.304   3.028 -0.3826  3.4053  0.7638
 5463TIP3    H237805   1.663   6.384   3.107  3.1279 -0.2063  0.2464
 5464TIP3   OH237806   3.622   1.480   0.027 -0.4207 -0.3584 -0.3660
 5464TIP3    H137807   3.578   1.554  -0.015  1.1432 -0.0119 -1.4994
 5464TIP3    H237808   3.711   1.511   0.043 -1.0697 -0.1498  4.1638
 5465TIP3   OH237809   3.666   1.420  12.725  0.5277 -0.5301  0.2523
 5465TIP3    H137810   3.613   1.410  12.804 -0.1483  1.4236  0.0781
 5465TIP3    H237811   3.614   1.476  12.668  1.2483 -1.4711 -1.3815
 5466TIP3   OH237812   3.814   5.583   4.970  0.3018  0.4686 -0.3122
 5466TIP3    H137813   3.870   5.551   5.042 -0.5787  1.4674  0.8590
 5466TIP3    H237814   3.846   5.537   4.893  0.8907 -1.1131  0.8173
 5467TIP3   OH237815   5.545   5.257  11.224  0.1619 -0.1013  0.3822
 5467TIP3    H137816   5.603   5.296  11.160  0.9401  0.8200  1.5949
 5467TIP3    H237817   5.602   5.203  11.279 -0.3522 -0.2372  0.7942
 5468TIP3   OH237818   3.587   2.503  11.300  0.5756  0.6766 -0.2053
 5468TIP3    H137819   3.520   2.437  11.318  1.4717 -0.0895  0.4272
 5468TIP3    H237820   3.636   2.466  11.226 -0.0076  1.4898 -1.0285
 5469TIP3   OH237821   1.247   4.175  14.000 -0.2743 -0.0233 -0.3934
 5469TIP3    H137822   1.202   4.133  14.072  0.1437  0.5328  0.2047
 5469TIP3    H237823   1.272   4.103  13.941  1.2538 -0.7495  1.0620
 5470TIP3   OH237824   1.545   6.652  15.907  0.1967  0.2906  0.2926
 5470TIP3    H137825   1.459   6.685  15.882  0.1751 -0.4837 -0.7239
 5470TIP3    H237826   1.606   6.723  15.886  0.0189  0.1448 -0.7814
 5471TIP3   OH237827   6.158   6.510   1.965  0.7159  0.5030  0.0922
 5471TIP3    H137828   6.234   6.454   1.980  0.6931  0.2275 -0.7389
 5471TIP3    H237829   6.191   6.599   1.970  1.4029  0.3846 -1.6236
 5472TIP3   OH237830   3.944   1.618   2.751  0.0699  0.4041 -0.4947
 5472TIP3    H137831   3.928   1.530   2.715 -2.0938  0.0118  1.1979
 5472TIP3    H237832   4.040   1.625   2.754  0.3072 -1.1971 -2.2301
 5473TIP3   OH237833   2.113   0.884  11.583  0.6037 -0.1069  0.3571
 5473TIP3    H137834   2.038   0.885  11.643  0.2094 -0.9949 -0.0999
 5473TIP3    H237835   2.148   0.973  11.586 -0.9161  0.5299  0.0346
 5474TIP3   OH237836   5.661   1.737  14.810  0.0580  0.2763 -0.6928
 5474TIP3    H137837   5.603   1.662  14.821  1.3643 -0.4282  2.4391
 5474TIP3    H237838   5.604   1.813  14.820 -0.8035 -0.3412 -0.7931
 5475TIP3   OH237839   2.893   2.967  14.095 -0.1222  0.6231 -0.2484
 5475TIP3    H137840   2.940   2.884  14.089 -1.3686 -0.0746 -0.9265
 5475TIP3    H237841   2.876   2.979  14.188 -0.7731 -0.4071 -0.2110
 5476TIP3   OH237842   3.910   0.318   4.603 -0.8326  0.0426 -0.1851
 5476TIP3    H137843   3.818   0.309   4.579 -0.2709 -1.3806 -2.0137
 5476TIP3    H237844   3.909   0.333   4.697 -2.9353  0.3409 -0.2138
 5477TIP3   OH237845   1.181   5.539   2.188  0.3318  0.4513  0.0808
 5477TIP3    H137846   1.240   5.614   2.190  1.5822 -0.5092  0.5496
 5477TIP3    H237847   1.151   5.529   2.279 -1.2884  1.4433 -0.2886
 5478TIP3   OH237848   5.345   2.366  11.167  0.0224 -0.3188  0.1107
 5478TIP3    H137849   5.339   2.290  11.226  1.9896 -0.4073  0.2902
 5478TIP3    H237850   5.358   2.440  11.225  1.3538 -0.3220 -0.1415
 5479TIP3   OH237851   4.739   4.049   3.147  0.3925  0.1271  0.1681
 5479TIP3    H137852   4.688   4.028   3.225  2.4107 -0.1000  1.4935
 5479TIP3    H237853   4.692   4.006   3.075 -1.0167 -0.4233  1.3727
 5480TIP3   OH237854   5.907   2.665  14.773  0.7730 -0.2894  0.5996
 5480TIP3    H137855   5.830   2.630  14.730  1.9768 -1.1542 -0.9730
 5480TIP3    H237856   5.899   2.760  14.765 -0.3750 -0.3384  0.9785
 5481TIP3   OH237857   0.501   3.226   4.523  0.2115 -0.2852  0.2984
 5481TIP3    H137858   0.442   3.207   4.450 -0.9921 -0.7344  1.3523
 5481TIP3    H237859   0.528   3.140   4.555  0.3424 -0.1005  0.6929
 5482TIP3   OH237860   1.662   2.203  15.184 -0.3908  0.2508 -0.3871
 5482TIP3    H137861   1.724   2.201  15.257 -0.5608 -0.7774 -0.2678
 5482TIP3    H237862   1.627   2.114  15.179 -0.5438  0.3633 -1.5827
 5483TIP3   OH237863   3.894   5.571  15.973  0.4768 -0.0594 -0.6101
 5483TIP3    H137864   3.895   5.667  15.963 -3.9800  0.1870 -0.7061
 5483TIP3    H237865   3.868   5.539  15.886 -0.5451 -1.0813  0.0493
 5484TIP3   OH237866   2.154   6.273  11.579  0.1473 -0.0655 -0.0697
 5484TIP3    H137867   2.094   6.343  11.607  1.3583  1.2859 -0.7127
 5484TIP3    H237868   2.122   6.248  11.492 -1.2563 -1.5068  0.8009
 5485TIP3   OH237869   3.233   6.365  14.888 -1.0675  0.2493 -0.1812
 5485TIP3    H137870   3.286   6.357  14.808 -2.7954 -1.6906 -1.2414
 5485TIP3    H237871   3.226   6.460  14.902 -1.0048  0.6805 -2.5646
 5486TIP3   OH237872   1.657   6.210  12.429  0.3708  0.0114  0.2757
 5486TIP3    H137873   1.681   6.199  12.337  2.0331  1.1483  0.5441
 5486TIP3    H237874   1.623   6.299  12.435  1.2780  0.3272  0.9435
 5487TIP3   OH237875   2.240   0.649  16.529 -0.5301 -0.2974  0.7431
 5487TIP3    H137876   2.146   0.631  16.533 -0.5516 -0.6487 -0.6826
 5487TIP3    H237877   2.282   0.564  16.542 -0.5072 -0.6328 -1.2371
 5488TIP3   OH237878   2.439   3.580  13.948 -0.5121 -0.2966 -0.4647
 5488TIP3    H137879   2.534   3.575  13.942 -0.4411  1.9533 -2.1531
 5488TIP3    H237880   2.407   3.516  13.884 -0.1100  0.2083 -1.1698
 5489TIP3   OH237881   2.293   4.013   3.141 -0.1697  0.2270 -0.1374
 5489TIP3    H137882   2.353   4.044   3.208 -0.0103 -0.4530  0.0420
 5489TIP3    H237883   2.317   4.061   3.062  1.0266 -0.4908 -0.2240
 5490TIP3   OH237884   3.423   1.821  15.624  0.2456  0.0739 -0.1925
 5490TIP3    H137885   3.356   1.754  15.616 -0.2772  0.5502  0.0970
 5490TIP3    H237886   3.410   1.859  15.710  1.6266 -0.5799  0.3383
 5491TIP3   OH237887   5.581   4.551   1.490 -0.8592  0.1005 -0.6481
 5491TIP3    H137888   5.487   4.563   1.477 -0.9064 -0.6992 -1.0927
 5491TIP3    H237889   5.588   4.509   1.576 -1.0212 -1.1568 -1.2196
 5492TIP3   OH237890   5.943   3.863  15.781 -0.5833  0.2314 -0.2234
 5492TIP3    H137891   5.875   3.878  15.716 -1.0407 -1.8002 -0.2954
 5492TIP3    H237892   5.900   3.879  15.865 -0.1955  2.1307 -0.3409
 5493TIP3   OH237893   4.999   1.939   1.992  0.3994  0.5198  0.7246
 5493TIP3    H137894   4.963   1.991   2.064 -0.5283 -0.0120  0.6599
 5493TIP3    H237895   5.016   2.003   1.923 -0.0907  0.8363  0.8904
 5494TIP3   OH237896   4.735   0.531  12.939 -0.1298 -0.5541  0.3550
 5494TIP3    H137897   4.730   0.605  12.999  0.2166 -1.6734  1.8062
 5494TIP3    H237898   4.811   0.550  12.883 -0.2560  0.3357  0.4842
 5495TIP3   OH237899   5.360   2.680   3.899  0.4348 -0.3566  0.3698
 5495TIP3    H137900   5.270   2.711   3.910  0.6685 -0.3433  2.6218
 5495TIP3    H237901   5.356   2.586   3.912  0.8015 -0.2963  0.9792
 5496TIP3   OH237902   1.349   4.375   5.531  0.0289  0.2604 -0.7262
 5496TIP3    H137903   1.328   4.365   5.624 -0.8845 -0.3613 -0.9862
 5496TIP3    H237904   1.338   4.469   5.514 -1.1792  0.1735 -0.5148
 5497TIP3   OH237905   2.352   1.786  12.111 -0.2809 -0.9681 -0.3776
 5497TIP3    H137906   2.290   1.841  12.063 -0.5969 -0.4878  0.5400
 5497TIP3    H237907   2.436   1.830  12.102 -0.6545  0.1110  0.9389
 5498TIP3   OH237908   5.402   4.724  15.781 -0.7955 -0.3143  0.3218
 5498TIP3    H137909   5.418   4.816  15.762 -0.8770 -0.1630  0.9746
 5498TIP3    H237910   5.338   4.697  15.716 -0.8020  0.0983  0.1520
 5499TIP3   OH237911   6.462   3.397  12.609  0.1586  0.6608  0.3729
 5499TIP3    H137912   6.484   3.309  12.577 -0.5015 -0.1016  1.9079
 5499TIP3    H237913   6.370   3.409  12.583  0.5186  1.3060 -0.6565
 5500TIP3   OH237914   1.280   0.704  14.172 -0.5484  0.3349 -0.3243
 5500TIP3    H137915   1.229   0.638  14.124  0.1511 -0.8050  0.4521
 5500TIP3    H237916   1.348   0.653  14.216 -0.7256  1.4432  1.2744
 5501TIP3   OH237917   4.448   4.634  14.010  0.2154  0.2819  0.3234
 5501TIP3    H137918   4.402   4.694  13.951  0.2236  0.7787  0.8105
 5501TIP3    H237919   4.468   4.687  14.087  0.5018 -0.2678  0.6347
 5502TIP3   OH237920   6.412   2.481  12.257  0.5428  0.1626 -0.1890
 5502TIP3    H137921   6.360   2.409  12.221 -0.1275  0.3781  0.3220
 5502TIP3    H237922   6.373   2.559  12.219  0.3140  0.3438  0.4021
 5503TIP3   OH237923   0.537   3.475  16.121 -0.2347 -0.5888 -0.6278
 5503TIP3    H137924   0.501   3.448  16.036 -0.9878 -2.8034  0.3122
 5503TIP3    H237925   0.546   3.393  16.170  0.5938  0.5798  1.2925
 5504TIP3   OH237926   3.404   4.003  11.246 -0.3394 -0.3572 -0.1768
 5504TIP3    H137927   3.382   4.055  11.324  1.0339 -0.7160  0.4746
 5504TIP3    H237928   3.465   3.937  11.278 -0.6683 -1.2570 -1.3503
 5505TIP3   OH237929   0.717   4.868   5.529 -0.5911 -0.7269  0.8635
 5505TIP3    H137930   0.809   4.863   5.502 -0.4158  0.7466  1.1008
 5505TIP3    H237931   0.719   4.850   5.623 -0.6147 -1.1941  0.7762
 5506TIP3   OH237932   1.074   4.233  15.717 -0.0278  0.0242  0.2708
 5506TIP3    H137933   0.981   4.246  15.698  0.0582  1.6168  0.7337
 5506TIP3    H237934   1.076   4.165  15.785 -1.3323  3.2863  3.9676
 5507TIP3   OH237935   4.195   0.392   6.027  0.7603  0.0164  0.4531
 5507TIP3    H137936   4.167   0.304   6.053 -1.2437  0.6352  0.5300
 5507TIP3    H237937   4.159   0.450   6.094 -0.8487  1.2099 -1.3503
 5508TIP3   OH237938   5.666   4.852  13.000 -0.3080 -0.3915  0.1900
 5508TIP3    H137939   5.624   4.879  13.081  0.3931  0.1163  0.3956
 5508TIP3    H237940   5.594   4.821  12.945 -0.9358  0.3149  0.5876
 5509TIP3   OH237941   2.709   1.900   3.374 -0.3126 -0.2822 -0.2568
 5509TIP3    H137942   2.686   1.904   3.467 -2.1479 -0.8917 -0.6546
 5509TIP3    H237943   2.800   1.931   3.371  0.4502 -2.0343  1.9582
 5510TIP3   OH237944   1.548   1.805   5.454  0.4827 -0.3356 -0.1349
 5510TIP3    H137945   1.465   1.815   5.407  0.9310 -1.5173 -1.2355
 5510TIP3    H237946   1.568   1.893   5.487 -0.2479  0.3716 -1.5125
 5511TIP3   OH237947   5.737   3.724   2.999  0.2684  0.0802  0.5697
 5511TIP3    H137948   5.681   3.674   3.058 -0.3213  0.5248  0.4021
 5511TIP3    H237949   5.684   3.800   2.975 -0.2556 -0.9802 -2.0022
 5512TIP3   OH237950   4.047   3.443  10.507 -0.1958 -0.4232 -0.1721
 5512TIP3    H137951   3.964   3.443  10.555  0.4209  2.0612  1.0554
 5512TIP3    H237952   4.022   3.453  10.416 -1.2842 -2.2821 -0.1404
 5513TIP3   OH237953   5.428   2.629  13.582 -0.7483  0.6988 -0.3688
 5513TIP3    H137954   5.406   2.668  13.498  0.5058  0.4305 -0.8311
 5513TIP3    H237955   5.415   2.535  13.568 -0.7807  0.6743 -0.1787
 5514TIP3   OH237956   0.026   6.276   0.774  0.1214  0.2232  0.6129
 5514TIP3    H137957   0.106   6.276   0.828  1.2674  1.4341 -0.9843
 5514TIP3    H237958  -0.040   6.236   0.829  1.9566 -1.3061  1.8452
 5515TIP3   OH237959   1.671   4.144   0.074 -0.0945 -0.4105  0.4562
 5515TIP3    H137960   1.629   4.210   0.130  0.8780 -0.7363  1.6046
 5515TIP3    H237961   1.692   4.072   0.133 -0.1730 -1.3119 -0.5824
 5516TIP3   OH237962   5.064   3.309  10.811 -0.3775  0.3868 -0.1320
 5516TIP3    H137963   5.107   3.252  10.875 -0.8757 -0.8050 -0.8280
 5516TIP3    H237964   4.982   3.264  10.790 -0.5443  1.1034 -1.0994
 5517TIP3   OH237965   0.509   3.617  15.537  0.2130 -0.7157  0.1012
 5517TIP3    H137966   0.585   3.654  15.582  0.2900  0.9423 -1.2860
 5517TIP3    H237967   0.540   3.532  15.504  1.4300 -0.1482 -0.2930
 5518TIP3   OH237968   2.583   6.714   3.342 -0.1186 -0.1275 -0.0093
 5518TIP3    H137969   2.672   6.681   3.351 -0.0598  0.5194  2.2549
 5518TIP3    H237970   2.590   6.786   3.279  1.2457  0.8866  1.2509
 5519TIP3   OH237971   0.716   0.249   3.162  0.0090  0.0864  0.1064
 5519TIP3    H137972   0.791   0.247   3.222  0.9869  3.0356 -0.8009
 5519TIP3    H237973   0.746   0.202   3.085  1.2687  1.8315 -0.5174
 5520TIP3   OH237974   4.792   6.020   0.807 -0.6832 -0.2626  0.2440
 5520TIP3    H137975   4.834   6.045   0.889  0.1694  1.1144 -0.5668
 5520TIP3    H237976   4.699   6.032   0.823 -0.4549  1.1244  0.6778
 5521TIP3   OH237977   2.892   4.438   1.070  0.2808  0.6144  0.0293
 5521TIP3    H137978   2.801   4.462   1.055  0.4073  1.0453 -0.0668
 5521TIP3    H237979   2.942   4.498   1.015  0.5948 -0.0414 -0.4122
 5522TIP3   OH237980   5.752   5.200   0.393 -0.8053 -0.4689 -0.0558
 5522TIP3    H137981   5.816   5.261   0.355 -0.5594  0.1093  1.2331
 5522TIP3    H237982   5.722   5.148   0.319 -0.1535  0.4437 -0.9941
 5523TIP3   OH237983   5.694   6.174   1.745  0.3218  0.1433 -0.2081
 5523TIP3    H137984   5.734   6.165   1.659 -0.8576 -0.3733 -0.7288
 5523TIP3    H237985   5.688   6.084   1.778 -1.1963  0.0871 -0.5463
 5524TIP3   OH237986   0.144   1.253  11.302  0.2435 -0.0035 -0.3703
 5524TIP3    H137987   0.152   1.158  11.310  1.4904  0.0384 -0.9093
 5524TIP3    H237988   0.104   1.267  11.216 -1.9099 -0.0630  0.5343
 5525TIP3   OH237989   5.351   5.970   4.489 -0.2488 -0.4429 -0.3937
 5525TIP3    H137990   5.314   5.891   4.529 -0.6468 -0.3251 -0.5266
 5525TIP3    H237991   5.281   6.003   4.432  0.1802 -0.4115 -0.9103
 5526TIP3   OH237992   5.316   0.898   0.308  0.0103 -0.1238 -0.2790
 5526TIP3    H137993   5.409   0.915   0.291  0.1046 -0.7633 -0.4416
 5526TIP3    H237994   5.316   0.852   0.392 -0.1668 -0.0488 -0.2387
 5527TIP3   OH237995   0.164   4.319   3.375 -0.3799 -0.5587  0.0944
 5527TIP3    H137996   0.225   4.275   3.434 -0.7703 -0.1015  0.8476
 5527TIP3    H237997   0.078   4.310   3.418 -0.3726  1.5307  0.6421
 5528TIP3   OH237998   4.994   3.296  12.380  0.3127 -0.2964  0.4753
 5528TIP3    H137999   4.929   3.226  12.371  0.1034 -0.0114 -0.2786
 5528TIP3    H238000   4.944   3.377  12.378  0.8473  0.2187 -4.2425
 5529TIP3   OH238001   3.942   2.965   3.771 -0.1062 -0.1929 -0.1308
 5529TIP3    H138002   3.986   2.880   3.764  1.5466  0.5850  0.2097
 5529TIP3    H238003   3.853   2.944   3.798  0.8124 -1.7602  1.9686
 5530TIP3   OH238004   4.884   0.301  11.553 -0.4004 -0.2707 -0.3501
 5530TIP3    H138005   4.837   0.343  11.625  0.6345 -0.9072  0.7202
 5530TIP3    H238006   4.977   0.318  11.572 -0.1170 -0.3404 -1.6035
 5531TIP3   OH238007   6.648   6.520   0.161  0.3930 -0.3418 -0.8699
 5531TIP3    H138008   6.708   6.544   0.090  0.2315  1.6207 -0.4014
 5531TIP3    H238009   6.570   6.573   0.145  0.5187  0.4562  0.9771
 5532TIP3   OH238010   1.066   3.175   4.985  0.3353  0.6779  0.0453
 5532TIP3    H138011   1.062   3.083   4.957 -2.8938  0.4726  0.7144
 5532TIP3    H238012   1.051   3.171   5.079  3.4298  1.7912  0.6715
 5533TIP3   OH238013   5.672   1.732  16.459  0.5179  0.8508  0.1047
 5533TIP3    H138014   5.742   1.679  16.498  2.1499  2.5010 -0.4404
 5533TIP3    H238015   5.609   1.743  16.530 -0.3141 -2.4218  0.0055
 5534TIP3   OH238016   3.379   4.321  16.233  0.3842  0.2490  0.1589
 5534TIP3    H138017   3.446   4.380  16.199  0.0203  1.1450  0.9765
 5534TIP3    H238018   3.342   4.280  16.155  1.5403  0.0925 -0.3365
 5535TIP3   OH238019   2.127   0.385   4.678 -0.2408 -1.0147 -0.0179
 5535TIP3    H138020   2.212   0.385   4.723  0.2717 -0.8944 -0.9712
 5535TIP3    H238021   2.110   0.477   4.659  0.2388 -1.1806 -1.3304
 5536TIP3   OH238022   3.439   6.354   5.798 -0.0822 -0.4149 -0.3652
 5536TIP3    H138023   3.503   6.406   5.847 -0.2218  0.7979 -1.4004
 5536TIP3    H238024   3.473   6.265   5.801  0.9682 -0.0148  0.2063
 5537TIP3   OH238025   2.259   6.769  16.937  0.3799 -0.0334 -0.2113
 5537TIP3    H138026   2.301   6.833  16.994 -2.0807  2.2843 -0.7775
 5537TIP3    H238027   2.268   6.806  16.849 -2.4804  0.5093 -0.3754
 5538TIP3   OH238028   5.658   0.091   1.002  0.5409 -0.2203  1.0978
 5538TIP3    H138029   5.715   0.092   1.079  0.0199  0.3905  1.4831
 5538TIP3    H238030   5.603   0.014   1.014 -0.1456  0.3572  1.8047
 5539TIP3   OH238031   2.398   0.911  12.941 -0.6096  0.0089 -0.7197
 5539TIP3    H138032   2.350   0.968  13.002 -1.5162  0.7435 -2.0410
 5539TIP3    H238033   2.480   0.890  12.986 -1.6569 -0.3272  1.1516
 5540TIP3   OH238034   1.486   3.264   4.698 -0.5278 -0.1132 -0.1524
 5540TIP3    H138035   1.426   3.199   4.663 -1.4220  0.9296 -0.6243
 5540TIP3    H238036   1.528   3.220   4.772 -1.3891 -1.0910 -0.2155
 5541TIP3   OH238037   5.892   1.899  11.746  0.0508 -0.1665  0.2020
 5541TIP3    H138038   5.896   1.853  11.662  0.4731  0.6262 -0.2269
 5541TIP3    H238039   5.938   1.841  11.807  0.7127 -0.2503 -0.3598
 5542TIP3   OH238040   3.496   3.970  13.806 -0.5578 -0.4498  0.4239
 5542TIP3    H138041   3.416   3.949  13.853 -0.8743  0.8541  0.5148
 5542TIP3    H238042   3.532   3.885  13.780 -0.6985 -1.1911  2.4673
 5543TIP3   OH238043   6.544   2.174   3.501  0.5229  0.0626  0.0306
 5543TIP3    H138044   6.533   2.265   3.531  2.8206  0.4885 -0.2193
 5543TIP3    H238045   6.535   2.179   3.405  1.0536  0.1090 -0.0192
 5544TIP3   OH238046   0.490   0.530  13.079  0.0635  0.5753 -0.7000
 5544TIP3    H138047   0.501   0.436  13.096  0.4423  1.0738  2.5622
 5544TIP3    H238048   0.569   0.555  13.031  0.9336 -0.4698  0.1099
 5545TIP3   OH238049   5.788   2.230   3.204  0.0938  0.5047  0.3780
 5545TIP3    H138050   5.719   2.164   3.195  1.6051 -1.0503 -0.4258
 5545TIP3    H238051   5.813   2.226   3.296 -0.7045  0.8852  0.6134
 5546TIP3   OH238052   6.730   4.453   4.411  0.8783 -0.2881 -0.0180
 5546TIP3    H138053   6.723   4.393   4.336 -0.4410 -0.6684  0.3786
 5546TIP3    H238054   6.754   4.537   4.372 -0.9620 -0.1833 -1.0378
 5547TIP3   OH238055   2.425   4.085  13.548 -0.4888 -0.1903 -0.5056
 5547TIP3    H138056   2.508   4.040  13.530 -0.7299 -0.5731 -0.6713
 5547TIP3    H238057   2.445   4.143  13.622 -0.0106 -0.0959 -0.6993
 5548TIP3   OH238058   1.066   1.266   4.931 -0.4044 -0.1014  0.8909
 5548TIP3    H138059   0.986   1.318   4.937 -0.1923  0.1324  1.7086
 5548TIP3    H238060   1.110   1.277   5.015  1.1861  0.8862 -0.0047
 5549TIP3   OH238061   5.120   0.028   0.911 -0.2718  0.3979 -0.1353
 5549TIP3    H138062   5.046   0.069   0.867 -0.5396 -0.2513 -0.3041
 5549TIP3    H238063   5.184   0.098   0.921  0.2430  0.3543 -2.5465
 5550TIP3   OH238064   3.801   0.129  16.398 -1.1210  0.1240  0.3099
 5550TIP3    H138065   3.780   0.184  16.473 -0.1785 -1.8010  2.0953
 5550TIP3    H238066   3.894   0.147  16.381 -1.2308  0.2648 -0.1391
 5551TIP3   OH238067   5.379   6.469  11.528  0.8119 -0.1360 -0.0356
 5551TIP3    H138068   5.399   6.509  11.444  1.3823 -1.3570 -0.5018
 5551TIP3    H238069   5.354   6.379  11.507 -1.1204  0.1139  0.9099
 5552TIP3   OH238070   2.863   6.551  13.063  0.5942 -0.2199  0.0755
 5552TIP3    H138071   2.936   6.612  13.079  0.9552  0.1805 -2.6951
 5552TIP3    H238072   2.841   6.563  12.971 -0.7390 -2.8212 -0.0326
 5553TIP3   OH238073   3.068   0.208  14.333  0.1572 -0.4628  0.1460
 5553TIP3    H138074   3.062   0.232  14.240 -2.1643 -0.3303  0.2768
 5553TIP3    H238075   3.116   0.280  14.373  0.2699  0.0035 -0.7948
 5554TIP3   OH238076   1.878   2.718   4.089 -0.5944 -0.0672  0.1279
 5554TIP3    H138077   1.940   2.737   4.019 -1.4270  0.9582 -0.3485
 5554TIP3    H238078   1.825   2.645   4.055  0.6782 -1.3397  0.7676
 5555TIP3   OH238079   6.124   3.133   3.917 -0.2279  0.2329 -0.1199
 5555TIP3    H138080   6.060   3.204   3.910  1.0440  1.8699  3.0410
 5555TIP3    H238081   6.207   3.173   3.893  0.1929 -0.8275 -0.4995
 5556TIP3   OH238082   2.873   4.156   3.702  0.4215 -0.5039 -0.2842
 5556TIP3    H138083   2.868   4.093   3.631 -0.6156  0.6875 -1.3264
 5556TIP3    H238084   2.799   4.215   3.687  1.7187  1.3551  0.2283
 5557TIP3   OH238085   3.039   6.761   3.997  0.0434 -0.3453  0.6779
 5557TIP3    H138086   3.033   6.761   4.093  1.6427  2.9264  0.9177
 5557TIP3    H238087   3.126   6.724   3.980 -1.5421 -4.3284  0.0990
 5558TIP3   OH238088   5.935   3.521  13.331 -0.1057 -0.1816  0.4068
 5558TIP3    H138089   6.014   3.559  13.294 -0.4032  2.7137  2.3502
 5558TIP3    H238090   5.965   3.442  13.375  1.1351 -0.7462 -1.3399
 5559TIP3   OH238091   2.704   2.310   4.511 -0.3178  0.2191  0.5939
 5559TIP3    H138092   2.622   2.278   4.548 -0.0041 -0.3150  0.8438
 5559TIP3    H238093   2.721   2.392   4.557 -0.7130  0.3328  0.5376
 5560TIP3   OH238094   1.335   5.201  12.505  0.0153 -0.0642  0.5223
 5560TIP3    H138095   1.407   5.213  12.568  0.2050  0.6641  0.1761
 5560TIP3    H238096   1.378   5.187  12.421 -0.2437 -0.6591  0.4839
 5561TIP3   OH238097   5.457   3.983   6.313  0.2831  1.0121  0.0719
 5561TIP3    H138098   5.397   4.042   6.359  1.8309  1.8902  1.0535
 5561TIP3    H238099   5.544   4.013   6.339  1.1399 -1.1111 -0.1668
 5562TIP3   OH238100   2.609   5.956  11.888 -0.3179  0.4300  0.3450
 5562TIP3    H138101   2.698   5.989  11.882  0.1018 -0.6254  0.7326
 5562TIP3    H238102   2.617   5.867  11.921 -1.5028  0.2490  0.2093
 5563TIP3   OH238103   4.553   4.929   3.340  0.1513 -0.3822  0.6052
 5563TIP3    H138104   4.475   4.937   3.285  0.8684  0.1550 -0.3828
 5563TIP3    H238105   4.520   4.915   3.428 -1.1143  2.0257  0.5769
 5564TIP3   OH238106   2.380   5.620  16.217  0.6058  0.4868  0.3773
 5564TIP3    H138107   2.459   5.674  16.218  1.5542 -0.8656  0.9615
 5564TIP3    H238108   2.308   5.683  16.222  1.6631  1.7151  0.6358
 5565TIP3   OH238109   1.467   0.061  16.303  0.5414  0.6079 -0.2194
 5565TIP3    H138110   1.535  -0.006  16.313 -1.7443 -1.7828  0.8311
 5565TIP3    H238111   1.500   0.137  16.350  2.6037 -0.3228 -0.0604
 5566TIP3   OH238112   0.323   1.086   2.603 -0.7815  0.1165 -0.4259
 5566TIP3    H138113   0.343   1.138   2.681 -0.4856 -0.7099  0.0714
 5566TIP3    H238114   0.345   1.142   2.530 -0.4684  0.6867  0.0974
 5567TIP3   OH238115   3.115   5.921  14.478  0.3779 -0.1171 -0.1295
 5567TIP3    H138116   3.198   5.917  14.431  1.4043  1.0107  1.4739
 5567TIP3    H238117   3.135   5.886  14.565 -0.0297  2.6468  1.2167
 5568TIP3   OH238118   5.605   1.212   3.226  0.0145 -0.1905 -0.2183
 5568TIP3    H138119   5.565   1.134   3.188 -0.7328  0.0053  0.1562
 5568TIP3    H238120   5.698   1.203   3.207 -0.1768 -0.7553 -0.9196
 5569TIP3   OH238121   6.597   4.631   1.428 -0.4150  0.5012  0.5050
 5569TIP3    H138122   6.685   4.630   1.391 -0.5770 -0.2933  0.1053
 5569TIP3    H238123   6.608   4.604   1.519 -0.4446 -1.7995 -0.1009
 5570TIP3   OH238124   6.364   2.738  13.015 -0.4263  0.0802  0.1753
 5570TIP3    H138125   6.344   2.672  12.948 -0.3375 -0.8967  1.0937
 5570TIP3    H238126   6.369   2.689  13.097 -0.2005  1.2101  0.8617
 5571TIP3   OH238127   0.807   0.098   2.258 -0.6074  0.0256 -0.1327
 5571TIP3    H138128   0.847   0.039   2.194  1.5391  1.2225  0.0185
 5571TIP3    H238129   0.849   0.182   2.243 -3.5693  1.6236 -0.3494
 5572TIP3   OH238130   3.261   3.209   5.679  0.3070 -0.4796 -0.1165
 5572TIP3    H138131   3.181   3.204   5.627  0.7117 -0.2864 -0.7604
 5572TIP3    H238132   3.247   3.285   5.736 -0.4294 -1.1124  0.5757
 5573TIP3   OH238133   3.738   3.207   0.243  0.2678  0.1052  0.6073
 5573TIP3    H138134   3.780   3.196   0.158 -1.0273  0.7637 -0.1548
 5573TIP3    H238135   3.784   3.146   0.301  1.1585 -0.3763 -0.5654
 5574TIP3   OH238136   6.188   2.574   4.785  0.4766  0.3832 -0.5090
 5574TIP3    H138137   6.097   2.563   4.813  0.4416  1.6677 -0.0638
 5574TIP3    H238138   6.185   2.567   4.690  0.1188 -0.8336 -0.4311
 5575TIP3   OH238139   2.895   0.147   4.577  0.6338  0.1116  0.0705
 5575TIP3    H138140   2.847   0.067   4.596 -0.5795  0.7525 -0.2117
 5575TIP3    H238141   2.986   0.125   4.597  0.1290 -0.8529  1.5063
 5576TIP3   OH238142   0.943   1.714  11.523  0.0974  0.1355  0.0273
 5576TIP3    H138143   0.886   1.776  11.477 -2.5215 -0.8069  1.7746
 5576TIP3    H238144   0.964   1.759  11.605  0.1105 -0.3545  0.2928
 5577TIP3   OH238145   2.216   4.364   0.620  0.2435 -0.6946  0.8021
 5577TIP3    H138146   2.232   4.274   0.650  1.1438  0.1508  3.0137
 5577TIP3    H238147   2.190   4.353   0.528  3.7617 -2.9771 -0.1305
 5578TIP3   OH238148   6.583   6.391  12.829 -0.2685 -0.5560 -0.4021
 5578TIP3    H138149   6.533   6.333  12.886 -0.9946  0.6201  0.2086
 5578TIP3    H238150   6.598   6.469  12.883  4.0408 -1.5721  0.2126
 5579TIP3   OH238151   1.417   3.290  14.568 -0.2791  0.0641 -0.4515
 5579TIP3    H138152   1.503   3.332  14.570 -0.0545 -0.3901  1.6826
 5579TIP3    H238153   1.355   3.363  14.574  0.0692  0.2520  1.3853
 5580TIP3   OH238154   2.737   0.693   5.696 -1.1890  0.3620  0.2519
 5580TIP3    H138155   2.645   0.670   5.682 -1.2835  0.4025  0.7933
 5580TIP3    H238156   2.762   0.647   5.776 -0.2160 -1.0670 -0.8308
 5581TIP3   OH238157   3.829   1.131   3.121  0.2012 -0.1918 -0.1165
 5581TIP3    H138158   3.843   1.062   3.186 -1.4367  0.4666  1.0060
 5581TIP3    H238159   3.790   1.203   3.170  2.4944  1.8614 -1.1256
 5582TIP3   OH238160   5.729   1.833  15.423  0.4600  0.0294 -1.4280
 5582TIP3    H138161   5.729   1.910  15.367 -0.7709  1.5279  0.4902
 5582TIP3    H238162   5.732   1.758  15.363  1.3253  1.5497 -3.3538
 5583TIP3   OH238163   2.077   2.348  14.566 -0.6150 -0.0817 -0.1410
 5583TIP3    H138164   2.030   2.335  14.648 -0.3384  0.3821  0.0973
 5583TIP3    H238165   2.101   2.259  14.537 -3.0978 -0.4965 -1.1738
 5584TIP3   OH238166   5.768   2.332  12.888 -0.5433 -0.4355 -0.7791
 5584TIP3    H138167   5.775   2.353  12.981 -1.1910  2.2291 -1.2586
 5584TIP3    H238168   5.674   2.329  12.871 -0.4317 -1.3349 -1.2733
 5585TIP3   OH238169   2.863   0.011  14.825 -0.2127  0.4036 -0.5059
 5585TIP3    H138170   2.900   0.041  14.743  0.2707 -0.0491 -0.4550
 5585TIP3    H238171   2.873  -0.084  14.824  2.7512  0.5626  1.4309
 5586TIP3   OH238172   1.124   3.513  16.760 -0.2672  0.4260  0.3161
 5586TIP3    H138173   1.152   3.424  16.737 -1.4694  0.0065  0.3952
 5586TIP3    H238174   1.164   3.569  16.693  0.4386 -0.1776  0.2208
 5587TIP3   OH238175   1.368   1.478   4.680 -0.3034  0.3592 -0.4213
 5587TIP3    H138176   1.363   1.553   4.621 -0.1580  1.6460  1.1317
 5587TIP3    H238177   1.283   1.434   4.672 -1.0961  1.7749  0.0047
 5588TIP3   OH238178   6.718   2.815   4.123 -0.0243  1.1001 -0.2776
 5588TIP3    H138179   6.649   2.879   4.105 -0.1703  1.0648  0.1463
 5588TIP3    H238180   6.680   2.730   4.100 -1.0871  0.7514  2.3482
 5589TIP3   OH238181   2.394   5.977  15.983 -0.0756 -0.2936  0.6688
 5589TIP3    H138182   2.479   5.949  15.950 -0.2974 -1.0542  0.7411
 5589TIP3    H238183   2.332   5.911  15.952 -0.5984  0.0875  0.8728
 5590TIP3   OH238184   3.527   0.988   3.165 -0.5007  0.5471 -0.3370
 5590TIP3    H138185   3.489   0.901   3.152 -0.4889  0.8788 -3.2264
 5590TIP3    H238186   3.615   0.971   3.198 -1.3915 -0.3927  1.6972
 5591TIP3   OH238187   5.749   6.366   5.114 -0.2827  0.1147 -0.4766
 5591TIP3    H138188   5.806   6.411   5.051 -0.0626 -1.0410 -1.1213
 5591TIP3    H238189   5.804   6.354   5.191  0.2314 -0.6314 -0.9486
 5592TIP3   OH238190   1.356   4.648   2.028 -0.0676 -0.4093  0.3531
 5592TIP3    H138191   1.414   4.628   2.101  0.2866  0.1051  0.2189
 5592TIP3    H238192   1.414   4.661   1.954 -0.4258 -0.9127 -0.0204
 5593TIP3   OH238193   5.141   3.753  14.825 -0.1618  0.8247 -0.0079
 5593TIP3    H138194   5.224   3.706  14.817 -0.8349 -0.6214  1.1447
 5593TIP3    H238195   5.132   3.770  14.919 -2.0803 -0.8254  0.1739
 5594TIP3   OH238196   6.001   0.529  11.438 -0.6691 -0.0395  0.0544
 5594TIP3    H138197   5.993   0.449  11.489  0.8686 -0.6866 -0.6708
 5594TIP3    H238198   6.041   0.502  11.356 -0.5446  1.3951 -0.3923
 5595TIP3   OH238199   3.865   2.311  15.504 -0.2987 -0.3791 -0.4384
 5595TIP3    H138200   3.905   2.267  15.579  0.1490  1.4433  0.4622
 5595TIP3    H238201   3.915   2.392  15.496 -2.8257  1.3129 -0.2087
 5596TIP3   OH238202   2.658   5.814   1.673  0.2559 -0.1938  0.1673
 5596TIP3    H138203   2.719   5.885   1.692  0.1710  0.0294 -0.3691
 5596TIP3    H238204   2.713   5.741   1.646  0.2294  0.6014 -2.2244
 5597TIP3   OH238205   4.253   2.862  15.926 -0.1409 -0.5053  0.5689
 5597TIP3    H138206   4.262   2.808  15.847 -1.7254 -0.3030  0.2001
 5597TIP3    H238207   4.339   2.903  15.938  0.2106 -0.7578 -0.9059
 5598TIP3   OH238208   1.964   5.812  13.835 -0.2625 -0.5485 -0.8620
 5598TIP3    H138209   1.871   5.794  13.819 -0.6395  0.7406 -0.2336
 5598TIP3    H238210   1.973   5.805  13.930 -0.1951  1.3462 -0.6892
 5599TIP3   OH238211   4.204   6.229  15.871  0.1361  0.3838 -0.1354
 5599TIP3    H138212   4.109   6.246  15.871  0.5811  3.4407  0.0852
 5599TIP3    H238213   4.214   6.151  15.925 -2.1523  0.8123  1.0490
 5600TIP3   OH238214   1.569   5.969  16.422 -0.2062 -0.6277  0.4230
 5600TIP3    H138215   1.532   5.996  16.506 -1.0284 -0.7357  0.1042
 5600TIP3    H238216   1.505   5.998  16.357 -0.1689 -1.6101 -0.0695
 5601TIP3   OH238217   5.731   5.432  11.062  0.3102 -0.4727 -0.3411
 5601TIP3    H138218   5.727   5.445  10.967 -0.6227  1.3883 -0.0697
 5601TIP3    H238219   5.789   5.501  11.093 -0.6674 -0.0735  0.6190
 5602TIP3   OH238220   0.753   2.779   5.442 -0.2833  0.1796  0.1284
 5602TIP3    H138221   0.722   2.789   5.533 -1.8210  0.1253 -0.3590
 5602TIP3    H238222   0.690   2.720   5.402  0.8684 -0.4594 -0.7678
 5603TIP3   OH238223   4.317   1.567  15.645  0.5448  0.3380 -0.2835
 5603TIP3    H138224   4.280   1.636  15.591  2.0336  1.7482  0.3918
 5603TIP3    H238225   4.249   1.499  15.648 -0.5343  1.2816 -1.8512
 5604TIP3   OH238226   3.927   3.514   1.296 -0.3121 -0.0545  0.0145
 5604TIP3    H138227   3.863   3.484   1.231 -0.0175 -1.6544  0.4061
 5604TIP3    H238228   3.967   3.591   1.257 -2.4738  1.0143 -0.2301
 5605TIP3   OH238229   1.872   2.987  16.872  0.3098  0.0238 -0.8556
 5605TIP3    H138230   1.960   2.985  16.834  1.0218  1.7410  0.5513
 5605TIP3    H238231   1.832   2.905  16.844  1.5205  0.2407 -3.4595
 5606TIP3   OH238232   3.423   5.022   5.459  0.6089 -0.2035 -0.4119
 5606TIP3    H138233   3.388   4.945   5.413 -1.3012  0.6372 -0.4906
 5606TIP3    H238234   3.506   4.993   5.495  0.8741 -1.7242 -2.0918
 5607TIP3   OH238235   0.898   6.208  12.402 -0.5018 -0.4176 -0.1238
 5607TIP3    H138236   0.942   6.142  12.349 -0.5333 -0.7758  0.2898
 5607TIP3    H238237   0.936   6.198  12.490 -1.7785 -1.1152  0.3777
 5608TIP3   OH238238   3.135   1.885   5.399 -0.4457  0.1404 -0.1767
 5608TIP3    H138239   3.112   1.840   5.480  1.1429 -2.5137 -1.0798
 5608TIP3    H238240   3.177   1.966   5.428  1.8241 -1.5846  1.8277
 5609TIP3   OH238241   0.838   3.174  13.445  0.3538  0.8420 -0.6746
 5609TIP3    H138242   0.841   3.153  13.352 -0.9691  0.8435 -0.7368
 5609TIP3    H238243   0.883   3.101  13.488 -0.2150  0.1583 -1.2153
 5610TIP3   OH238244   2.491   0.980   4.233  0.3251  0.3631  0.0133
 5610TIP3    H138245   2.546   0.902   4.229  1.1609  0.8529  1.3706
 5610TIP3    H238246   2.482   0.999   4.326 -0.1794  1.6700 -0.2698
 5611TIP3   OH238247   4.119   1.615  16.009  0.8234 -0.2928  0.6234
 5611TIP3    H138248   4.136   1.683  16.074 -2.7436  0.2632  1.1369
 5611TIP3    H238249   4.151   1.653  15.927  0.7002  1.1587  1.2201
 5612TIP3   OH238250   3.125   3.294   1.599 -0.0349  0.5450  0.0085
 5612TIP3    H138251   3.167   3.356   1.658 -0.9252  0.1374  1.1119
 5612TIP3    H238252   3.190   3.225   1.585  0.6196  1.2543 -0.4855
 5613TIP3   OH238253   2.884   0.710   1.145  0.6414 -0.0323  0.2085
 5613TIP3    H138254   2.797   0.739   1.117  0.5327  1.0206  1.5287
 5613TIP3    H238255   2.941   0.726   1.070  0.3499  2.5662  0.4663
 5614TIP3   OH238256   3.722   2.306   2.302  0.0868 -0.0153 -0.0945
 5614TIP3    H138257   3.703   2.234   2.361  2.8684 -0.6552  0.1881
 5614TIP3    H238258   3.818   2.308   2.297  0.0166  0.7209 -3.7450
 5615TIP3   OH238259   0.173   2.253   4.197  0.1759  0.0026 -0.1514
 5615TIP3    H138260   0.186   2.222   4.108  0.4492 -0.4525  0.0395
 5615TIP3    H238261   0.240   2.320   4.210 -0.9274  1.2726 -0.8322
 5616TIP3   OH238262   6.470   3.057  15.920  0.1575  0.0931 -0.2413
 5616TIP3    H138263   6.438   3.146  15.934 -1.0852  0.2474 -3.3064
 5616TIP3    H238264   6.391   3.004  15.906  0.9289 -1.1839  0.0233
 5617TIP3   OH238265   4.673   5.041   4.968 -0.2357  0.3249 -0.5314
 5617TIP3    H138266   4.593   5.054   5.019  0.3229 -0.3707  0.5625
 5617TIP3    H238267   4.708   5.129   4.956  0.4586  0.4375  1.7251
 5618TIP3   OH238268   2.451   0.104  17.061 -0.0660 -0.2598 -0.0451
 5618TIP3    H138269   2.474   0.045  17.133 -1.4663  2.4488  2.9361
 5618TIP3    H238270   2.535   0.129  17.023  0.8784 -0.7943  1.5740
 5619TIP3   OH238271   4.982   3.780   0.186 -0.3490 -0.3961  0.8370
 5619TIP3    H138272   4.962   3.725   0.110 -1.3546 -1.2995  1.7007
 5619TIP3    H238273   5.068   3.750   0.215 -0.5029 -0.9134  0.7745
 5620TIP3   OH238274   3.468   2.921   5.194  0.3933  0.3541 -0.2818
 5620TIP3    H138275   3.443   3.012   5.181  1.4619  0.6783 -0.1866
 5620TIP3    H238276   3.536   2.924   5.261 -0.6340 -0.6809  0.8498
 5621TIP3   OH238277   5.201   4.262   3.296 -0.1257  0.2313  0.0899
 5621TIP3    H138278   5.147   4.266   3.217 -0.2826  0.2745  0.1987
 5621TIP3    H238279   5.282   4.218   3.268  0.1813  1.0191 -0.3097
 5622TIP3   OH238280   1.086   5.880  16.827 -0.0766 -0.8411 -0.2194
 5622TIP3    H138281   1.158   5.884  16.763  0.5437 -0.7973  0.4615
 5622TIP3    H238282   1.130   5.866  16.910 -0.6236  1.7590  0.6058
 5623TIP3   OH238283   3.768   0.955  13.905 -0.0910 -0.1025 -0.7092
 5623TIP3    H138284   3.709   1.000  13.965 -0.4689 -0.0341 -1.1266
 5623TIP3    H238285   3.811   0.889  13.959  0.9043  1.1253  0.0423
 5624TIP3   OH238286   6.284   0.253   4.185 -0.2264 -0.0692  0.1627
 5624TIP3    H138287   6.328   0.291   4.109  0.5967  0.6102  0.9350
 5624TIP3    H238288   6.251   0.329   4.233 -1.1586 -0.5171  0.2403
 5625TIP3   OH238289   1.390   5.347   0.386 -0.5354  1.0019 -0.0196
 5625TIP3    H138290   1.396   5.271   0.328  0.3283  2.4103 -1.9193
 5625TIP3    H238291   1.328   5.321   0.454 -0.1125 -1.4380 -0.4673
 5626TIP3   OH238292   5.826   2.391  11.664  0.1243 -0.8392  0.3567
 5626TIP3    H138293   5.916   2.394  11.633 -0.6970 -0.5725 -2.1970
 5626TIP3    H238294   5.790   2.312  11.624 -1.7634  0.9862 -1.8239
 5627TIP3   OH238295   5.637   2.325  15.125 -0.6009  0.5676 -0.1982
 5627TIP3    H138296   5.651   2.318  15.220 -0.0458 -0.0898 -0.3273
 5627TIP3    H238297   5.564   2.266  15.107  1.3553 -1.8997 -0.6382
 5628TIP3   OH238298   4.367   2.948  14.774  0.1082 -0.5130 -0.4194
 5628TIP3    H138299   4.432   2.938  14.844  0.8502  0.1815 -0.9832
 5628TIP3    H238300   4.294   2.994  14.814  1.2822  1.5432 -0.5015
 5629TIP3   OH238301   0.328   0.705  15.766 -0.5140  0.2228 -0.3627
 5629TIP3    H138302   0.247   0.714  15.716 -0.3280 -1.3785 -0.9976
 5629TIP3    H238303   0.303   0.728  15.856 -1.4079  0.7946 -0.7425
 5630TIP3   OH238304   0.732   2.374   6.046  0.6209  0.0944  0.5032
 5630TIP3    H138305   0.704   2.440   6.109  1.2636 -0.9834  1.9886
 5630TIP3    H238306   0.692   2.293   6.077  1.3365 -0.5441 -0.1951
 5631TIP3   OH238307   0.380   2.127   1.162 -0.3691  0.8692  0.5457
 5631TIP3    H138308   0.470   2.115   1.134 -0.5899  0.3399  0.0254
 5631TIP3    H238309   0.352   2.208   1.119 -0.9116 -0.2804 -1.3725
 5632TIP3   OH238310   1.589   2.491   4.963  0.3973 -0.4419  0.3045
 5632TIP3    H138311   1.511   2.445   4.933  0.7266  0.0692 -1.4508
 5632TIP3    H238312   1.565   2.525   5.049 -2.1592  1.5693 -1.0657
 5633TIP3   OH238313   4.326   0.810   1.654 -0.3248 -0.5525 -0.2047
 5633TIP3    H138314   4.250   0.785   1.602 -0.0231 -0.9262 -0.4637
 5633TIP3    H238315   4.385   0.851   1.591 -0.0116 -0.8951 -0.1334
 5634TIP3   OH238316   4.821   5.334  12.163  0.3546 -0.3541  0.7935
 5634TIP3    H138317   4.757   5.264  12.177  0.0440 -0.1318  0.4816
 5634TIP3    H238318   4.897   5.291  12.126 -0.2031 -0.3824 -0.3468
 5635TIP3   OH238319   6.730   5.057  15.375  0.2410  0.3709  0.0729
 5635TIP3    H138320   6.768   4.980  15.417 -0.3763  0.5640  1.0105
 5635TIP3    H238321   6.790   5.129  15.397  0.1422  0.3930  0.2724
 5636TIP3   OH238322   1.281   2.688  13.479 -0.6797  0.7318 -0.0409
 5636TIP3    H138323   1.352   2.703  13.541 -0.8115 -3.0033  1.2069
 5636TIP3    H238324   1.323   2.690  13.393  0.4033  1.1957  0.4857
 5637TIP3   OH238325   4.503   5.670  11.483  0.2711  0.5378 -0.0371
 5637TIP3    H138326   4.487   5.581  11.451 -0.3472  1.1922 -1.6748
 5637TIP3    H238327   4.520   5.659  11.576  0.3617 -1.3117 -0.2250
 5638TIP3   OH238328   5.674   0.286  12.177 -0.0765  0.2650  0.2606
 5638TIP3    H138329   5.703   0.297  12.268  0.2066 -1.7900  0.4650
 5638TIP3    H238330   5.755   0.281  12.126 -0.2057  0.0307  0.0773
 5639TIP3   OH238331   4.060   5.715  13.766 -1.1270  0.1555 -0.3950
 5639TIP3    H138332   4.101   5.748  13.846 -2.7548 -0.0540  0.5877
 5639TIP3    H238333   4.067   5.787  13.703 -1.4684  1.0554  0.5639
 5640TIP3   OH238334   4.445   0.254  11.011  0.5300  0.0649  0.5471
 5640TIP3    H138335   4.493   0.302  11.079  1.4849 -0.6194  0.3792
 5640TIP3    H238336   4.358   0.240  11.049  0.4825  1.2319  0.9062
 5641TIP3   OH238337   3.437   6.334  12.388 -0.2602  0.1253  0.0216
 5641TIP3    H138338   3.346   6.365  12.388  0.0792  1.2171 -0.9277
 5641TIP3    H238339   3.437   6.259  12.446 -1.2942  1.5170  1.9231
 5642TIP3   OH238340   5.947   0.125   2.987  0.5738  0.1846 -0.1554
 5642TIP3    H138341   6.010   0.185   2.946  0.3266 -0.1614 -1.0773
 5642TIP3    H238342   5.904   0.178   3.054  1.4655  0.5792  0.1220
 5643TIP3   OH238343   0.840   2.327  14.702  0.4025 -0.4881 -0.5273
 5643TIP3    H138344   0.813   2.251  14.754  0.1595 -0.0984 -0.0801
 5643TIP3    H238345   0.876   2.289  14.621  1.5419 -1.1466  0.2562
 5644TIP3   OH238346   1.077   3.733  14.304  0.8224 -0.3667 -0.2009
 5644TIP3    H138347   1.019   3.720  14.379  0.1086 -0.7051 -0.8090
 5644TIP3    H238348   1.159   3.690  14.330  0.1033 -1.7689 -0.1809
 5645TIP3   OH238349   3.950   1.684   4.969  0.5351 -0.6826  0.4543
 5645TIP3    H138350   3.876   1.726   4.926  1.3307  0.1392 -0.1625
 5645TIP3    H238351   3.917   1.598   4.996 -0.7923 -0.1068  0.7109
 5646TIP3   OH238352   6.346   6.337  11.246  0.0664  0.5884  0.3834
 5646TIP3    H138353   6.351   6.424  11.286  1.0600  0.6989  0.0339
 5646TIP3    H238354   6.390   6.346  11.162 -2.1978  0.4216 -0.9134
 5647TIP3   OH238355   3.512   4.210   4.379  0.3592 -0.5395 -0.1513
 5647TIP3    H138356   3.580   4.167   4.430  0.0151 -1.1731 -0.2172
 5647TIP3    H238357   3.433   4.204   4.433  0.4716  0.7224  0.1911
 5648TIP3   OH238358   1.433   3.239   3.851  0.0973 -0.6765 -0.2273
 5648TIP3    H138359   1.516   3.264   3.812 -0.0680  1.3486  0.5403
 5648TIP3    H238360   1.371   3.240   3.778  0.5784 -1.2771 -0.6474
 5649TIP3   OH238361   1.577   6.458  13.955  0.2388  0.6853 -0.0813
 5649TIP3    H138362   1.624   6.509  14.021  1.1265 -0.5893  0.3152
 5649TIP3    H238363   1.620   6.481  13.872 -1.5680  3.0957 -0.4311
 5650TIP3   OH238364   2.078   6.785   1.439 -0.0730  0.4569 -0.0918
 5650TIP3    H138365   2.114   6.772   1.351 -1.2729  0.6521 -0.6312
 5650TIP3    H238366   2.012   6.716   1.448 -1.3510  1.6231 -0.1466
 5651TIP3   OH238367   0.482   1.979  13.724 -0.1857 -0.0058  0.4212
 5651TIP3    H138368   0.464   1.967  13.817  0.6689  2.2714  0.9428
 5651TIP3    H238369   0.539   2.055  13.720  3.0832 -2.2952 -1.6922
 5652TIP3   OH238370   2.530   0.736  16.510  0.4468  0.1588  0.4448
 5652TIP3    H138371   2.444   0.694  16.506  0.8682 -0.9398  1.9544
 5652TIP3    H238372   2.511   0.825  16.539 -0.2167  0.0626  0.3400
 5653TIP3   OH238373   1.562   4.773   2.643 -0.0657  0.2616  0.1640
 5653TIP3    H138374   1.534   4.771   2.735 -0.9527 -0.5487 -0.1178
 5653TIP3    H238375   1.657   4.789   2.648  0.1371 -1.0954  1.2640
 5654TIP3   OH238376   4.211   1.834  12.211 -0.2054  0.1830  0.2482
 5654TIP3    H138377   4.260   1.868  12.286  0.6365  0.8701 -0.5909
 5654TIP3    H238378   4.269   1.767  12.173 -0.1447  0.6139 -0.4330
 5655TIP3   OH238379   5.112   5.441   3.418 -0.3192  0.2835  0.1163
 5655TIP3    H138380   5.089   5.500   3.490 -0.9894  0.1435  0.0209
 5655TIP3    H238381   5.207   5.430   3.426 -0.0893  1.8417 -0.2275
 5656TIP3   OH238382   3.500   6.808   4.989 -0.5847 -0.3035 -0.7513
 5656TIP3    H138383   3.410   6.807   4.956 -0.2242 -0.3619 -1.7580
 5656TIP3    H238384   3.554   6.785   4.913  0.3033  0.0002 -0.2273
 5657TIP3   OH238385   3.033   2.848   0.028 -0.1447 -0.6204 -0.1259
 5657TIP3    H138386   2.959   2.788   0.021 -0.5412 -0.1240 -0.2588
 5657TIP3    H238387   2.997   2.926   0.070  0.4585 -0.6248  0.4149
 5658TIP3   OH238388   5.066   0.326   2.223 -0.0957  0.0950 -0.3662
 5658TIP3    H138389   5.066   0.349   2.130  0.1154  0.7362 -0.2162
 5658TIP3    H238390   5.120   0.247   2.228 -0.2302 -0.0252 -0.8092
 5659TIP3   OH238391   3.572   1.835  12.723 -0.0063  0.4686  0.0521
 5659TIP3    H138392   3.587   1.927  12.704 -2.7258  1.1407  0.7718
 5659TIP3    H238393   3.623   1.818  12.803  0.9849  1.1516 -0.4228
 5660TIP3   OH238394   0.259   2.821  10.176 -0.1840  0.3415 -0.2219
 5660TIP3    H138395   0.171   2.830  10.137  0.1015  1.1847 -0.6971
 5660TIP3    H238396   0.307   2.896  10.143  0.2327  0.8130  1.3612
 5661TIP3   OH238397   2.089   1.304  16.704  0.1426  0.2526 -0.5978
 5661TIP3    H138398   2.085   1.260  16.788 -0.1529  1.2790 -0.0577
 5661TIP3    H238399   2.177   1.340  16.699  0.1136  0.3165 -0.6641
 5662TIP3   OH238400   0.392   4.202   3.496 -0.1733 -0.0492 -0.7953
 5662TIP3    H138401   0.460   4.257   3.460 -0.2404  0.9528  0.5344
 5662TIP3    H238402   0.422   4.181   3.585 -1.0327 -0.5908 -0.6137
 5663TIP3   OH238403   3.319   6.584   0.698 -0.5055 -0.5152  0.2132
 5663TIP3    H138404   3.333   6.610   0.607 -0.3235  0.8269  0.5970
 5663TIP3    H238405   3.239   6.630   0.723  0.7646  1.1473  1.4406
 5664TIP3   OH238406   1.345   4.726   5.291 -0.5929 -0.2542 -0.1661
 5664TIP3    H138407   1.266   4.721   5.345 -0.8848  0.8652 -0.4659
 5664TIP3    H238408   1.344   4.646   5.239 -0.4483 -1.2278  1.2659
 5665TIP3   OH238409   5.440   1.233   2.410 -0.1572  0.1252  0.4758
 5665TIP3    H138410   5.411   1.142   2.399 -2.9987  1.0411 -0.5577
 5665TIP3    H238411   5.389   1.265   2.484  1.6037  0.6283  1.5105
 5666TIP3   OH238412   5.261   0.239   5.055  0.4643  0.5971 -0.1036
 5666TIP3    H138413   5.186   0.194   5.092  0.2381  0.4863 -0.6951
 5666TIP3    H238414   5.287   0.302   5.123 -1.4284  2.0922 -0.6765
 5667TIP3   OH238415   3.253   1.671   3.282 -0.4325 -0.1665  0.7635
 5667TIP3    H138416   3.185   1.696   3.219 -0.2543  0.6511  0.8900
 5667TIP3    H238417   3.285   1.754   3.317  0.4696 -0.5574  0.8795
 5668TIP3   OH238418   2.445   3.112  14.836 -0.5295 -0.3040  0.0988
 5668TIP3    H138419   2.480   3.122  14.925 -1.5114  1.2855  0.3439
 5668TIP3    H238420   2.350   3.111  14.848 -0.8444  2.8703 -1.0890
 5669TIP3   OH238421   1.962   3.803   0.593  0.3400  0.4057  0.0895
 5669TIP3    H138422   1.881   3.757   0.614  0.1849  0.4066 -0.5007
 5669TIP3    H238423   1.961   3.882   0.647  0.7990 -0.4694  1.4202
 5670TIP3   OH238424   3.226   0.261   2.214 -0.2637  0.2674 -0.2563
 5670TIP3    H138425   3.224   0.304   2.129 -0.5710  1.6908  0.4272
 5670TIP3    H238426   3.279   0.183   2.201  0.9623  1.2408 -1.4020
 5671TIP3   OH238427   6.392   3.668  12.796  0.4458  0.0040 -0.3327
 5671TIP3    H138428   6.484   3.679  12.774  1.1254 -1.3989  1.5619
 5671TIP3    H238429   6.391   3.607  12.869 -1.9093  0.9734  0.5761
 5672TIP3   OH238430   3.874   2.047  14.432 -0.2940 -0.1710  0.2743
 5672TIP3    H138431   3.916   2.128  14.461  0.1059 -0.2898  0.0286
 5672TIP3    H238432   3.801   2.077  14.377  0.5784  0.0207 -0.8246
 5673TIP3   OH238433   6.569   5.893   4.013  0.0166  0.1352 -0.6951
 5673TIP3    H138434   6.625   5.869   3.939 -0.5886 -0.1194 -1.0800
 5673TIP3    H238435   6.511   5.819   4.025  1.6913 -0.9184  1.6687
 5674TIP3   OH238436   5.624   0.469   4.921 -0.2987  0.2428 -0.0719
 5674TIP3    H138437   5.719   0.480   4.928  0.1804 -1.0017 -2.9157
 5674TIP3    H238438   5.606   0.384   4.961 -0.1005  0.1586 -0.1625
 5675TIP3   OH238439   2.275   4.691  13.918  0.1742  0.4429  0.3599
 5675TIP3    H138440   2.271   4.610  13.969  1.5074 -0.6006 -1.1167
 5675TIP3    H238441   2.235   4.668  13.834  1.3138  1.0667 -0.3713
 5676TIP3   OH238442   4.852   2.164  11.597 -0.5473  0.0000 -0.3525
 5676TIP3    H138443   4.821   2.190  11.683  2.1474  1.2341  0.3583
 5676TIP3    H238444   4.849   2.245  11.545  1.3648  0.1931 -0.2314
 5677TIP3   OH238445   5.022   4.968  15.249 -0.5210  0.1074 -0.1782
 5677TIP3    H138446   5.091   5.032  15.236 -0.5235  0.1966  0.2075
 5677TIP3    H238447   4.951   4.997  15.193  1.4322 -2.7477 -4.6748
 5678TIP3   OH238448   6.309   2.297  10.764  0.3107 -0.1590 -0.1208
 5678TIP3    H138449   6.287   2.284  10.672  0.1523  1.4883 -0.3556
 5678TIP3    H238450   6.252   2.238  10.812 -0.3468 -0.2827 -1.0409
 5679TIP3   OH238451   0.607   0.013   6.000  0.3998 -0.2614  0.3311
 5679TIP3    H138452   0.605   0.102   6.037 -1.1542 -0.7257  1.4750
 5679TIP3    H238453   0.520  -0.022   6.018  0.8163 -1.8509 -0.5727
 5680TIP3   OH238454   4.813   4.437   3.010  0.6551 -0.3156 -0.1816
 5680TIP3    H138455   4.822   4.532   3.008 -0.2772 -0.1983  0.4166
 5680TIP3    H238456   4.775   4.415   2.925  0.2036 -0.0724 -0.0442
 5681TIP3   OH238457   5.752   2.608  15.661 -0.6818  0.1135 -0.1160
 5681TIP3    H138458   5.710   2.692  15.642 -0.5361  0.0853 -0.5755
 5681TIP3    H238459   5.788   2.580  15.577 -0.1211 -0.0677  0.1810
 5682TIP3   OH238460   0.080   2.906   5.578  0.7168  0.4408  0.0239
 5682TIP3    H138461   0.126   2.908   5.495  0.1135  1.8129 -0.3021
 5682TIP3    H238462   0.002   2.959   5.564  0.3856  0.3510  1.3384
 5683TIP3   OH238463   4.690   3.822  15.418 -0.7329 -0.1265  0.3313
 5683TIP3    H138464   4.761   3.838  15.480 -1.5963  0.6675  1.1522
 5683TIP3    H238465   4.703   3.731  15.390 -0.6707 -0.7390  2.1697
 5684TIP3   OH238466   0.749   2.332   0.354 -0.3154  0.8698 -0.9973
 5684TIP3    H138467   0.739   2.419   0.393  2.3071  1.2249 -0.9270
 5684TIP3    H238468   0.685   2.331   0.282 -0.1413  3.0307 -1.2590
 5685TIP3   OH238469   4.014   6.072   0.619 -0.2826  0.6830  0.0531
 5685TIP3    H138470   3.929   6.051   0.581 -0.4902  0.6459  0.5323
 5685TIP3    H238471   4.068   5.996   0.601 -0.4177  0.6142 -0.0637
 5686TIP3   OH238472   5.581   3.109  16.356  0.1752  0.2722  0.5138
 5686TIP3    H138473   5.588   3.186  16.300  1.6309 -0.5801 -0.5690
 5686TIP3    H238474   5.512   3.056  16.315 -0.8695  0.9825  1.2938
 5687TIP3   OH238475   4.396   5.177   3.744 -0.0939  0.4631  1.0950
 5687TIP3    H138476   4.385   5.082   3.736  0.9671  0.1900  2.4580
 5687TIP3    H238477   4.458   5.199   3.676 -0.0843  0.1216  0.9889
 5688TIP3   OH238478   3.261   1.051   5.490 -0.4187  0.2416  0.0961
 5688TIP3    H138479   3.222   0.964   5.499 -2.1863  1.0878  1.2445
 5688TIP3    H238480   3.328   1.056   5.558 -1.2358  0.2263  0.9133
 5689TIP3   OH238481   3.840   6.404  17.024 -0.3548  0.6363  0.7135
 5689TIP3    H138482   3.759   6.456  17.020 -0.6469  0.1132 -1.0419
 5689TIP3    H238483   3.820   6.325  16.974  1.4995  0.9008 -0.5736
 5690TIP3   OH238484   5.244   2.562  12.110  0.5940 -0.4197  0.4875
 5690TIP3    H138485   5.307   2.577  12.040  1.4847 -1.9669  0.9290
 5690TIP3    H238486   5.284   2.600  12.188  0.5461 -0.5693  0.5850
 5691TIP3   OH238487   2.304   3.113  10.679  0.2567  0.5634  0.7523
 5691TIP3    H138488   2.328   3.021  10.685  0.6111  0.7079  1.6745
 5691TIP3    H238489   2.208   3.113  10.679  0.2122  0.1046 -1.0489
 5692TIP3   OH238490   0.303   2.306  11.442 -0.3670  0.3127 -0.7275
 5692TIP3    H138491   0.209   2.286  11.445 -0.1457 -0.7544 -0.1679
 5692TIP3    H238492   0.345   2.220  11.446  0.6393  0.8242  0.0766
 5693TIP3   OH238493   3.437   1.556  14.366 -0.3856 -0.6151 -1.1602
 5693TIP3    H138494   3.482   1.636  14.395  0.0542 -0.6856 -1.6248
 5693TIP3    H238495   3.351   1.562  14.406  0.2726 -0.8407  0.3570
 5694TIP3   OH238496   5.111   4.100  12.717 -0.3254 -0.2370 -0.2854
 5694TIP3    H138497   5.031   4.113  12.769 -0.3641  0.9087 -0.6066
 5694TIP3    H238498   5.177   4.074  12.781 -0.3188  1.3571  0.4088
 5695TIP3   OH238499   5.327   4.262   1.782  0.2113  0.7128  0.1485
 5695TIP3    H138500   5.411   4.306   1.792  0.7574 -0.0757 -0.7717
 5695TIP3    H238501   5.320   4.204   1.858  0.9085  0.1582 -0.1971
 5696TIP3   OH238502   2.342   2.038   2.447  0.2063  0.2524 -0.3151
 5696TIP3    H138503   2.332   2.012   2.538  1.0725  0.5293 -0.1363
 5696TIP3    H238504   2.340   1.956   2.398 -1.8760  0.1964 -0.2257
 5697TIP3   OH238505   2.692   6.657  14.382 -0.3404 -0.1558 -0.2416
 5697TIP3    H138506   2.770   6.702  14.349  1.0416  0.5389  3.4189
 5697TIP3    H238507   2.657   6.717  14.449 -3.6258 -0.8115 -1.1965
 5698TIP3   OH238508   5.311   5.089   2.746 -0.5906  0.2051  0.3646
 5698TIP3    H138509   5.264   5.008   2.763 -0.6355  0.1413 -0.0414
 5698TIP3    H238510   5.278   5.151   2.811  1.0272 -0.6893  2.1544
 5699TIP3   OH238511   5.343   4.652  15.463 -0.3802  0.4065 -0.3174
 5699TIP3    H138512   5.424   4.611  15.492 -0.0506  2.3955  1.9272
 5699TIP3    H238513   5.344   4.644  15.368  1.6566 -0.9902 -0.2417
 5700TIP3   OH238514   2.101   4.190   4.504  0.0944 -0.0859 -0.1448
 5700TIP3    H138515   2.164   4.255   4.472 -1.2035  0.7517 -1.1260
 5700TIP3    H238516   2.078   4.220   4.592  0.3963  0.0971 -0.1266
 5701TIP3   OH238517   5.188   6.615  12.401  0.1768  0.3299  1.0070
 5701TIP3    H138518   5.249   6.676  12.358  2.3133 -1.4386  1.3711
 5701TIP3    H238519   5.194   6.637  12.494 -0.1682  0.5027  0.9890
 5702TIP3   OH238520   3.258   0.165  12.935 -0.0857  0.7136 -0.0805
 5702TIP3    H138521   3.294   0.132  12.853  1.2644  2.3309 -0.1904
 5702TIP3    H238522   3.164   0.172  12.919  0.2301  1.5763 -1.7059
 5703TIP3   OH238523   1.321   0.212  13.687  0.2983  0.0752 -0.0992
 5703TIP3    H138524   1.282   0.132  13.651 -0.7247  0.6411 -0.2811
 5703TIP3    H238525   1.266   0.283  13.653  1.7786  0.9519 -0.7673
 5704TIP3   OH238526   5.247   0.159  10.891  0.4299  0.4089  0.1112
 5704TIP3    H138527   5.214   0.073  10.917  1.1944 -0.7906 -2.4935
 5704TIP3    H238528   5.175   0.220  10.912 -0.0181 -0.7698  2.2418
 5705TIP3   OH238529   3.094   1.324   2.240  0.3392  0.0428  0.0665
 5705TIP3    H138530   3.111   1.323   2.146  1.0628  0.3962  0.1894
 5705TIP3    H238531   3.176   1.295   2.280 -0.1481 -0.6909  0.5729
 5706TIP3   OH238532   0.422   6.553  14.891  0.2380 -0.3359 -0.4600
 5706TIP3    H138533   0.441   6.624  14.830  0.7152  0.5988  0.7284
 5706TIP3    H238534   0.327   6.559  14.905  0.1678 -0.3858 -0.8955
 5707TIP3   OH238535   6.747   4.766   2.098  0.0843  0.7033  0.0490
 5707TIP3    H138536   6.768   4.741   2.008  0.9686  1.3534  0.0633
 5707TIP3    H238537   6.752   4.684   2.148 -2.5293 -0.0838 -0.8180
 5708TIP3   OH238538   1.706   4.423   2.658 -0.0368 -0.2405 -0.1332
 5708TIP3    H138539   1.797   4.435   2.687 -0.3479  2.0183  0.0564
 5708TIP3    H238540   1.657   4.414   2.740 -0.2421  0.7413 -0.1410
 5709TIP3   OH238541   4.998   3.564  12.652 -0.1563  0.0973 -0.3799
 5709TIP3    H138542   5.081   3.572  12.605 -1.1126 -0.8819 -2.3617
 5709TIP3    H238543   4.975   3.654  12.675  1.8098  0.3191  0.9394
 5710TIP3   OH238544   1.703   2.823   0.440  0.0953 -0.0123 -0.0254
 5710TIP3    H138545   1.630   2.854   0.494 -0.5397  0.5827 -1.2096
 5710TIP3    H238546   1.735   2.901   0.395  2.2133 -0.0342  1.2964
 5711TIP3   OH238547   3.296   0.560   3.594  0.3751  0.4410  0.1067
 5711TIP3    H138548   3.277   0.592   3.683 -0.4314  1.4632 -0.4149
 5711TIP3    H238549   3.320   0.638   3.544 -2.9839  0.5961 -1.5445
 5712TIP3   OH238550   0.505   1.295   3.583  0.0206 -0.4596 -0.0404
 5712TIP3    H138551   0.562   1.277   3.508 -0.8585  0.5238 -0.9715
 5712TIP3    H238552   0.565   1.300   3.657  0.8943 -1.6197 -0.6273
 5713TIP3   OH238553   4.914   0.051   2.771  0.1596  0.2375  0.0099
 5713TIP3    H138554   4.936  -0.027   2.822  0.9716  0.1334 -0.4823
 5713TIP3    H238555   4.923   0.024   2.680  0.3967  0.8912 -0.1669
 5714TIP3   OH238556   1.496   0.428   0.115  0.4726  0.1771 -0.5959
 5714TIP3    H138557   1.515   0.504   0.060 -0.2613  0.0358 -1.0591
 5714TIP3    H238558   1.401   0.420   0.113  0.5629 -1.0119 -0.9040
 5715TIP3   OH238559   1.310   3.746  10.743 -0.0172 -0.6171  0.2346
 5715TIP3    H138560   1.347   3.815  10.687 -0.0714 -1.0358 -0.3215
 5715TIP3    H238561   1.366   3.670  10.728 -0.3191 -0.8716  0.3902
 5716TIP3   OH238562   0.594   4.578  13.400 -0.0650 -0.4273  0.0166
 5716TIP3    H138563   0.672   4.523  13.392 -0.7097 -1.5878  1.3374
 5716TIP3    H238564   0.603   4.620  13.486  0.1172  1.1097 -0.7081
 5717TIP3   OH238565   3.558   0.205  15.293 -0.1560 -0.3389  0.4596
 5717TIP3    H138566   3.607   0.125  15.312 -0.2251 -0.2666  0.9679
 5717TIP3    H238567   3.595   0.270  15.353  2.0048  0.8605 -1.9474
 5718TIP3   OH238568   2.981   2.303   4.319  0.5307  0.5639  0.1691
 5718TIP3    H138569   2.912   2.335   4.260  0.7878 -1.6568 -1.4893
 5718TIP3    H238570   2.934   2.260   4.390  0.1918  0.2015 -0.2702
 5719TIP3   OH238571   1.044   2.500   4.540  0.2072  0.3167  0.0823
 5719TIP3    H138572   0.994   2.556   4.600  0.0403 -0.1312  0.3676
 5719TIP3    H238573   1.004   2.413   4.550  1.0829 -0.0587  0.3653
 5720TIP3   OH238574   5.099   4.992   3.873 -0.0198  0.3011 -0.3614
 5720TIP3    H138575   5.144   4.972   3.791  1.3051  1.1328  0.1299
 5720TIP3    H238576   5.160   4.963   3.941 -0.7786  0.3016  0.3335
 5721TIP3   OH238577   4.234   0.384  12.627  0.0819  0.3176  0.3007
 5721TIP3    H138578   4.157   0.328  12.631 -0.6522  1.2350 -0.5945
 5721TIP3    H238579   4.220   0.439  12.550  1.8500  0.1819 -0.1587
 5722TIP3   OH238580   6.666   5.766  13.711 -0.1358  0.3897  0.3491
 5722TIP3    H138581   6.710   5.693  13.666 -0.7825  0.1983  0.0231
 5722TIP3    H238582   6.615   5.723  13.780 -0.2469  0.5634  0.3743
 5723TIP3   OH238583   5.986   4.173  13.671  0.1441 -0.5347 -0.2893
 5723TIP3    H138584   6.013   4.208  13.586  0.6636 -0.4140 -0.0756
 5723TIP3    H238585   5.904   4.219  13.691  1.2779  1.2825  0.4168
 5724TIP3   OH238586   1.690   1.616  14.196 -0.5921 -0.1370 -0.0919
 5724TIP3    H138587   1.756   1.582  14.136 -0.6315  1.1129 -0.9007
 5724TIP3    H238588   1.634   1.671  14.140 -0.2712  1.5418  1.1785
 5725TIP3   OH238589   1.108   1.625   5.159 -1.0468  0.3145  0.0444
 5725TIP3    H138590   1.073   1.605   5.246 -3.1249  0.1479 -0.7974
 5725TIP3    H238591   1.195   1.585   5.159 -0.7912  0.7184  2.1966
 5726TIP3   OH238592   3.116   1.919   1.593  0.0808 -0.1971 -0.2132
 5726TIP3    H138593   3.191   1.952   1.642 -0.5971  2.7073 -0.9452
 5726TIP3    H238594   3.137   1.938   1.501 -1.3210  0.1990 -0.4763
 5727TIP3   OH238595   4.680   1.898  14.007 -0.4405  0.1957  0.2450
 5727TIP3    H138596   4.754   1.957  14.023  0.0684 -0.4282  0.2164
 5727TIP3    H238597   4.610   1.933  14.062 -0.2641  1.0439 -0.0456
 5728TIP3   OH238598   3.558   1.842  14.359 -0.0145 -0.0413 -0.5509
 5728TIP3    H138599   3.488   1.809  14.302 -0.4718 -0.3034  0.1388
 5728TIP3    H238600   3.522   1.922  14.397 -1.3363 -1.8147  2.3186
 5729TIP3   OH238601   4.685   4.230  13.024  0.3211 -0.0343  0.2672
 5729TIP3    H138602   4.668   4.248  12.931 -0.3704 -0.5224  0.3002
 5729TIP3    H238603   4.608   4.263  13.070  0.5622  0.0034  0.6517
 5730TIP3   OH238604   2.386   5.453  11.334  0.2220  0.4105  0.2572
 5730TIP3    H138605   2.397   5.446  11.429 -1.1788  0.5867  0.4476
 5730TIP3    H238606   2.307   5.404  11.315  0.1022  0.9548 -0.7361
 5731TIP3   OH238607   0.219   3.053   5.757 -0.5208  0.3010  0.2173
 5731TIP3    H138608   0.167   3.133   5.759 -0.7890  0.1527 -0.5136
 5731TIP3    H238609   0.173   2.996   5.696 -0.4270 -0.4824  0.8659
 5732TIP3   OH238610   5.004   4.593   5.782 -0.5160  0.0551  0.6248
 5732TIP3    H138611   4.991   4.572   5.875 -0.3167  0.9566  0.8662
 5732TIP3    H238612   5.064   4.668   5.783 -1.1783  0.6114 -0.1963
 5733TIP3   OH238613   2.603   1.457  14.069  0.0836  0.0220  0.7693
 5733TIP3    H138614   2.678   1.428  14.121  2.3197  2.0457 -1.0543
 5733TIP3    H238615   2.642   1.514  14.002 -2.9515 -0.0793 -1.2493
 5734TIP3   OH238616   0.243   5.682  11.814  0.6032 -0.1217 -0.3504
 5734TIP3    H138617   0.188   5.670  11.892  0.9575  0.2466 -0.0448
 5734TIP3    H238618   0.199   5.629  11.747 -0.6380  0.8877 -0.3682
 5735TIP3   OH238619   3.982   2.561  16.551 -0.2565  0.2945 -0.3876
 5735TIP3    H138620   4.035   2.618  16.495 -0.0679  0.2795 -0.2270
 5735TIP3    H238621   3.936   2.504  16.490  1.0068 -0.6496 -0.5035
 5736TIP3   OH238622   3.410   5.125  11.257  0.4638  0.3982  0.4915
 5736TIP3    H138623   3.319   5.099  11.267  0.5926 -0.3439 -0.1556
 5736TIP3    H238624   3.408   5.220  11.255 -0.4237  0.3680 -0.6378
 5737TIP3   OH238625   6.519   3.879   1.930 -0.3900 -0.0260  0.0287
 5737TIP3    H138626   6.541   3.818   2.000 -0.1589  0.0181 -0.0038
 5737TIP3    H238627   6.485   3.824   1.860  0.0344 -0.1399 -0.0875
 5738TIP3   OH238628   3.234   5.344  16.711 -0.3139 -0.2706  0.4328
 5738TIP3    H138629   3.200   5.423  16.753  1.6730  0.4179  0.8650
 5738TIP3    H238630   3.306   5.375  16.656  0.5011 -1.7677  0.6084
 5739TIP3   OH238631   0.196   3.266   0.191 -0.0940 -0.2094  0.1409
 5739TIP3    H138632   0.215   3.290   0.101 -2.0540 -0.8279 -0.4907
 5739TIP3    H238633   0.261   3.199   0.213 -0.0414 -0.5630 -1.0482
 5740TIP3   OH238634   4.522   0.199  14.550 -0.1530  0.2214  0.4684
 5740TIP3    H138635   4.474   0.233  14.626 -0.0230 -0.3754  0.8191
 5740TIP3    H238636   4.471   0.124  14.521 -0.8457  1.1236 -0.7624
 5741TIP3   OH238637   1.571   2.508   0.539 -0.0757  0.0615  0.1792
 5741TIP3    H138638   1.666   2.501   0.551 -0.1858 -0.6165  0.7528
 5741TIP3    H238639   1.556   2.601   0.520  0.7096  0.1556 -0.0223
 5742TIP3   OH238640   4.349   1.805   1.137  0.1548 -0.4877 -0.1872
 5742TIP3    H138641   4.293   1.727   1.144 -0.6914  0.1706  0.6200
 5742TIP3    H238642   4.431   1.772   1.099  1.3814 -2.6050  3.7103
 5743TIP3   OH238643   1.259   2.755   2.130  0.0188 -0.3254 -0.5807
 5743TIP3    H138644   1.175   2.800   2.121 -1.4408 -2.1649  2.2467
 5743TIP3    H238645   1.240   2.664   2.105  0.7914 -1.0363  1.2693
 5744TIP3   OH238646   6.014   2.602  11.034 -0.3254 -0.0347  0.0985
 5744TIP3    H138647   6.085   2.567  10.980  0.0509 -0.3381  0.7877
 5744TIP3    H238648   6.004   2.539  11.105  0.5528  1.3552  1.5277
 5745TIP3   OH238649   0.985   1.299  14.471 -0.0072 -0.1335 -0.8431
 5745TIP3    H138650   0.891   1.286  14.461  0.1295 -1.0295 -1.1075
 5745TIP3    H238651   1.023   1.212  14.457  0.8268  0.1238 -0.2767
 5746TIP3   OH238652   3.273   1.223   4.006 -0.1788 -0.3910 -0.5174
 5746TIP3    H138653   3.359   1.182   4.021  0.3288  0.8872  0.2773
 5746TIP3    H238654   3.214   1.150   3.988  0.8338 -1.4024  0.1339
 5747TIP3   OH238655   0.600   4.440   3.079 -0.2809  0.1318  0.0347
 5747TIP3    H138656   0.505   4.442   3.085 -0.3239 -1.9017  0.6506
 5747TIP3    H238657   0.617   4.413   2.988 -0.2224  1.4950 -0.3945
 5748TIP3   OH238658   3.210   2.094   6.052  0.1392 -0.4631 -0.0143
 5748TIP3    H138659   3.272   2.024   6.071 -0.9565 -1.4906 -0.1135
 5748TIP3    H238660   3.261   2.174   6.060  1.1799 -1.2087  1.1677
 5749TIP3   OH238661   1.621   2.991  12.564  0.6554  0.4401 -0.2203
 5749TIP3    H138662   1.536   2.950  12.547  1.5726 -1.9607  0.4896
 5749TIP3    H238663   1.605   3.051  12.637 -0.3336 -0.3986  0.2803
 5750TIP3   OH238664   0.716   1.319  14.445 -0.4745  0.2728  0.1058
 5750TIP3    H138665   0.646   1.260  14.476 -0.8055  0.7235  0.2323
 5750TIP3    H238666   0.712   1.312  14.349  1.0580 -1.7136  0.1305
 5751TIP3   OH238667   5.658   3.682   6.305 -0.0606 -0.4591 -0.5940
 5751TIP3    H138668   5.749   3.656   6.296 -0.1766 -0.4993 -1.7675
 5751TIP3    H238669   5.642   3.681   6.399  0.9201 -1.2413 -0.4201
 5752TIP3   OH238670   1.766   0.007   4.004 -0.5511 -0.0617  0.1497
 5752TIP3    H138671   1.815  -0.038   4.072 -1.9002 -0.9033  0.6123
 5752TIP3    H238672   1.757   0.097   4.036  2.3880  0.7305 -0.8970
 5753TIP3   OH238673   1.751   0.340  15.941 -0.4755  0.1536  0.0197
 5753TIP3    H138674   1.675   0.394  15.918 -0.6099 -0.2045 -0.3984
 5753TIP3    H238675   1.820   0.403  15.961  0.1759  0.5637 -3.0559
 5754TIP3   OH238676   0.693   1.755   3.282 -0.9458  0.4618  0.0542
 5754TIP3    H138677   0.738   1.687   3.332  0.9916  0.7859 -1.1470
 5754TIP3    H238678   0.652   1.709   3.209  0.5012  0.5544 -0.8500
 5755TIP3   OH238679   6.762   2.152  16.339 -0.4424 -0.5208 -0.5135
 5755TIP3    H138680   6.686   2.193  16.298  1.3614  1.1101 -2.4829
 5755TIP3    H238681   6.787   2.212  16.409 -0.0806 -0.2411 -0.8764
 5756TIP3   OH238682   4.776   2.801  13.892  0.0776  0.2882 -0.2685
 5756TIP3    H138683   4.847   2.863  13.874 -1.0072  1.5726 -0.2369
 5756TIP3    H238684   4.733   2.788  13.808 -0.1801  0.1722 -0.1196
 5757TIP3   OH238685   1.967   6.304  12.007 -0.3495  0.1612 -0.2998
 5757TIP3    H138686   2.059   6.298  12.034 -0.5050 -2.1291 -0.0559
 5757TIP3    H238687   1.929   6.368  12.067  0.7009 -0.2362  0.8435
 5758TIP3   OH238688   6.523   3.796   0.799  0.4018 -0.5340 -0.4895
 5758TIP3    H138689   6.528   3.812   0.893  3.3482 -0.7519 -0.5224
 5758TIP3    H238690   6.515   3.700   0.791  0.5004 -0.5437 -0.4687
 5759TIP3   OH238691   5.275   1.278  11.786 -0.2450  0.0099  0.2290
 5759TIP3    H138692   5.204   1.298  11.846  0.6144  0.2261  1.2020
 5759TIP3    H238693   5.341   1.236  11.841  0.0856 -0.8569 -0.7966
 5760TIP3   OH238694   4.754   6.086   4.833  0.4090  0.0813 -0.3841
 5760TIP3    H138695   4.659   6.096   4.833  0.4805  1.7919  2.1848
 5760TIP3    H238696   4.770   6.001   4.791 -2.2847 -0.6076 -0.1613
 5761TIP3   OH238697   4.792   1.213   1.057 -0.4406 -0.1504 -0.6773
 5761TIP3    H138698   4.868   1.166   1.023 -2.0505 -2.1294 -1.7545
 5761TIP3    H238699   4.768   1.274   0.987  0.6012  1.1090  0.0128
 5762TIP3   OH238700   0.393   0.776  13.010 -0.2292  0.2541  0.6229
 5762TIP3    H138701   0.301   0.749  13.002  0.3567 -2.1237  1.1180
 5762TIP3    H238702   0.443   0.697  12.991  1.8424  1.9659 -1.7507
 5763TIP3   OH238703   4.509   4.609  16.267  0.6161 -0.1865  0.1250
 5763TIP3    H138704   4.584   4.665  16.286  0.2124  0.1116  0.8619
 5763TIP3    H238705   4.514   4.539  16.333 -0.6471  0.7125  1.2181
 5764TIP3   OH238706   0.361   6.621   3.007 -0.3025 -0.2098 -0.9124
 5764TIP3    H138707   0.378   6.540   2.959  0.6178  1.2329 -3.1930
 5764TIP3    H238708   0.432   6.625   3.072 -0.9556 -1.6842 -0.0649
 5765TIP3   OH238709   1.733   6.020   0.702 -0.5607  0.0966 -0.4310
 5765TIP3    H138710   1.754   6.090   0.641 -2.8154  2.6216  1.4974
 5765TIP3    H238711   1.818   5.993   0.737  0.3454  2.7266 -0.3793
 5766TIP3   OH238712   1.531   0.806   2.493  0.0440  0.0323  0.1617
 5766TIP3    H138713   1.436   0.792   2.492  0.1743 -0.9944 -1.1614
 5766TIP3    H238714   1.542   0.899   2.512 -1.2586  0.2805 -0.2104
 5767TIP3   OH238715   6.209   6.068   4.258 -0.3250 -0.0977  0.5972
 5767TIP3    H138716   6.280   6.117   4.217 -1.1132 -0.0291 -0.7238
 5767TIP3    H238717   6.156   6.133   4.303 -0.8447  0.1709 -0.3744
 5768TIP3   OH238718   2.988   4.053  11.265  0.4934 -0.2714  0.9254
 5768TIP3    H138719   3.016   4.141  11.239 -2.4913  0.6620  0.4697
 5768TIP3    H238720   3.046   4.029  11.337  1.3091  2.1168  1.1401
 5769TIP3   OH238721   1.387   6.793   1.367  0.0246  0.1024 -0.1018
 5769TIP3    H138722   1.342   6.774   1.449 -0.4691 -0.4579 -0.4919
 5769TIP3    H238723   1.479   6.799   1.391 -0.1534  0.2940  0.5500
 5770TIP3   OH238724   4.816   3.085  14.316 -0.3006  0.1535  0.1530
 5770TIP3    H138725   4.770   3.046  14.241 -0.1599 -0.0572  0.1737
 5770TIP3    H238726   4.904   3.103  14.284  0.3060 -1.5441  0.7441
 5771TIP3   OH238727   1.754   4.440   4.394  0.1583  0.3221  0.1869
 5771TIP3    H138728   1.748   4.382   4.318  0.7650 -1.6455  1.5463
 5771TIP3    H238729   1.667   4.480   4.400  0.0527  0.4073 -1.4268
 5772TIP3   OH238730   5.565   2.709   6.489 -0.7932  0.4673  0.6919
 5772TIP3    H138731   5.558   2.694   6.583 -0.9451 -0.9803  0.4863
 5772TIP3    H238732   5.488   2.666   6.452 -0.7534  1.0500 -0.0923
 5773TIP3   OH238733   4.891   4.118  12.873  0.8242 -0.8876  0.7051
 5773TIP3    H138734   4.842   4.057  12.929  0.2336 -0.8573  0.2325
 5773TIP3    H238735   4.830   4.190  12.858  0.2733 -1.7545 -1.4946
 5774TIP3   OH238736   3.244   6.502   2.942  0.7333  0.1291 -0.9810
 5774TIP3    H138737   3.296   6.443   2.997  0.0921  0.7825  0.3781
 5774TIP3    H238738   3.192   6.443   2.887  0.8815 -0.5603 -0.4008
 5775TIP3   OH238739   3.033   2.157  13.780 -0.4184 -0.3193 -0.1274
 5775TIP3    H138740   3.087   2.217  13.830  1.5251 -1.3724 -0.8164
 5775TIP3    H238741   3.057   2.070  13.813 -1.2718 -0.8529 -0.8598
 5776TIP3   OH238742   3.339   3.778   1.904 -0.6426  0.0493  0.3253
 5776TIP3    H138743   3.262   3.820   1.867 -0.0883  1.5891  0.8206
 5776TIP3    H238744   3.305   3.699   1.946 -1.9833  0.7631  0.6537
 5777TIP3   OH238745   5.845   3.837  16.051 -0.0610  0.1913  0.0553
 5777TIP3    H138746   5.816   3.777  16.119 -0.7215 -0.3289 -0.6623
 5777TIP3    H238747   5.897   3.903  16.097  1.4879 -1.4415  0.7655
 5778TIP3   OH238748   1.682   0.062   6.124  0.7936 -0.2073 -0.6366
 5778TIP3    H138749   1.646   0.002   6.189  0.1562 -0.1548 -0.9397
 5778TIP3    H238750   1.723   0.005   6.059  0.2180 -0.3210 -0.9062
 5779TIP3   OH238751   0.266   2.596  16.225  0.1720  0.1504 -0.5773
 5779TIP3    H138752   0.263   2.515  16.175  0.4216 -1.4057  1.7746
 5779TIP3    H238753   0.338   2.646  16.185  1.6740 -1.8847 -0.6049
 5780TIP3   OH238754   6.176   0.325  12.150  0.0960 -0.6828 -0.3874
 5780TIP3    H138755   6.133   0.304  12.233 -1.3137 -0.2098 -0.9660
 5780TIP3    H238756   6.250   0.264  12.145 -0.1640 -1.1350  0.9155
 5781TIP3   OH238757   5.340   0.447   5.983 -0.5462  0.1354  0.4683
 5781TIP3    H138758   5.333   0.420   6.075  0.5895  0.6576  0.7303
 5781TIP3    H238759   5.409   0.513   5.983 -0.5861  0.1952 -0.7576
 5782TIP3   OH238760   6.079   3.080   6.163 -0.1485 -0.4828  0.1503
 5782TIP3    H138761   6.155   3.028   6.187  0.8831  0.9337  0.0880
 5782TIP3    H238762   6.063   3.136   6.238  0.4857  1.0199 -0.7870
 5783TIP3   OH238763   0.242   0.953   4.661 -0.1072  0.4065  0.2643
 5783TIP3    H138764   0.302   1.020   4.630  0.3179 -0.0276  0.1299
 5783TIP3    H238765   0.235   0.891   4.588  0.4539 -0.3224  0.8110
 5784TIP3   OH238766   2.434   0.634   5.113  0.5522  0.0457  0.6295
 5784TIP3    H138767   2.466   0.553   5.155  0.4799  0.3684  1.3288
 5784TIP3    H238768   2.429   0.697   5.185  3.8531  1.7220 -0.3931
 5785TIP3   OH238769   4.865   4.486  14.541  0.1579  0.3355 -0.4399
 5785TIP3    H138770   4.820   4.520  14.464 -0.8588  1.2562  0.5234
 5785TIP3    H238771   4.865   4.560  14.603  1.5441 -0.1724  0.1963
 5786TIP3   OH238772   1.850   5.352  10.660 -0.2445 -0.2837 -0.3908
 5786TIP3    H138773   1.837   5.295  10.585  0.5263  0.5108 -1.1510
 5786TIP3    H238774   1.840   5.294  10.736  0.1070 -1.3361 -1.1210
 5787TIP3   OH238775   3.503   2.321   0.270  0.5794 -0.5952 -0.1673
 5787TIP3    H138776   3.556   2.241   0.268 -0.7120 -1.4710 -1.1178
 5787TIP3    H238777   3.442   2.308   0.343  1.9608  0.6613  1.2994
 5788TIP3   OH238778   2.930   3.524   0.895 -0.5147 -0.7752 -0.7544
 5788TIP3    H138779   2.982   3.515   0.975 -2.5243  0.2298  0.7615
 5788TIP3    H238780   2.918   3.618   0.886  1.0336 -0.7314 -3.2450
 5789TIP3   OH238781   5.178   5.211  16.270 -0.2071  0.0692 -0.5144
 5789TIP3    H138782   5.207   5.145  16.207 -0.4982  0.3484 -0.9415
 5789TIP3    H238783   5.105   5.255  16.227 -0.7668 -0.1034  0.2404
 5790TIP3   OH238784   6.212   1.180   2.650 -0.3127 -0.0326 -0.5007
 5790TIP3    H138785   6.189   1.191   2.743 -1.3719 -4.0467 -0.1165
 5790TIP3    H238786   6.303   1.208   2.645  0.1673 -0.8511  2.0609
 5791TIP3   OH238787   1.119   1.614   6.259  0.3102  0.5922  0.3217
 5791TIP3    H138788   1.190   1.650   6.313  0.1609  2.4547 -0.6103
 5791TIP3    H238789   1.109   1.524   6.288  0.2043  1.4776  3.4107
 5792TIP3   OH238790   5.666   5.119  14.787  0.2231  0.2931  0.4064
 5792TIP3    H138791   5.647   5.065  14.710 -1.0429 -1.6477  2.0081
 5792TIP3    H238792   5.736   5.073  14.832  0.1859  0.8172  1.0153
 5793TIP3   OH238793   3.063   3.634  12.995  0.1366 -0.1522  0.1556
 5793TIP3    H138794   3.076   3.633  12.900  1.0854  0.1365  0.2799
 5793TIP3    H238795   3.151   3.632  13.032 -0.2368 -1.3610  1.0483
 5794TIP3   OH238796   3.041   6.342   3.521 -0.1353 -0.2385 -0.0887
 5794TIP3    H138797   3.077   6.371   3.438 -0.3331 -0.6564 -0.3199
 5794TIP3    H238798   3.044   6.421   3.577  1.3640 -0.3190 -0.0079
 5795TIP3   OH238799   0.981   2.996  14.336 -0.2536  0.3224 -0.4929
 5795TIP3    H138800   0.994   2.998  14.431 -0.4202  3.0953 -0.4301
 5795TIP3    H238801   0.901   2.947  14.323  0.5724 -1.4119  0.6445
 5796TIP3   OH238802   4.457   4.185  16.625 -0.4099 -0.1251  0.2237
 5796TIP3    H138803   4.454   4.203  16.531 -2.0054  0.7865  0.4151
 5796TIP3    H238804   4.425   4.266  16.666  0.9259 -0.2609  1.5951
 5797TIP3   OH238805   2.016   4.089  14.731 -0.2387  0.4778 -0.5425
 5797TIP3    H138806   2.028   4.116  14.822  1.7215  0.8416 -0.8585
 5797TIP3    H238807   1.939   4.033  14.732 -0.5228  0.8476  1.2593
 5798TIP3   OH238808   0.256   4.222  11.122 -0.2307  0.2731 -0.1998
 5798TIP3    H138809   0.195   4.160  11.162 -1.8456  0.6743 -1.8628
 5798TIP3    H238810   0.316   4.168  11.072 -1.0157 -0.0230 -0.8406
 5799TIP3   OH238811   5.205   5.523  16.889  0.1415 -0.0086  0.5879
 5799TIP3    H138812   5.267   5.568  16.947 -0.4681  0.8485  0.5991
 5799TIP3    H238813   5.124   5.519  16.940  0.3842 -1.8213  0.8766
 5800TIP3   OH238814   6.715   1.965   1.940 -0.2652 -0.8913  0.3254
 5800TIP3    H138815   6.654   1.909   1.892 -1.2130  1.0768 -0.8951
 5800TIP3    H238816   6.659   2.023   1.992  0.6754 -0.8816  1.3632
 5801TIP3   OH238817   0.354   1.286  13.907  0.0502  0.1772 -0.1260
 5801TIP3    H138818   0.368   1.226  13.981  1.2126  0.1595 -0.3435
 5801TIP3    H238819   0.260   1.302  13.907  0.0951  0.7074  1.7892
 5802TIP3   OH238820   2.182   4.109   3.619  0.5652 -0.2294  0.0713
 5802TIP3    H138821   2.126   4.042   3.659  1.8076 -1.6625 -0.4789
 5802TIP3    H238822   2.200   4.075   3.531  0.2572  1.4376 -0.6736
 5803TIP3   OH238823   5.997   1.207  16.456  0.3983 -0.0952 -0.6764
 5803TIP3    H138824   5.989   1.112  16.456  2.1602 -0.3491  1.8714
 5803TIP3    H238825   5.966   1.233  16.543 -0.4999  1.7515 -1.4836
 5804TIP3   OH238826   6.460   2.814  13.869 -0.4081 -0.4263 -0.3949
 5804TIP3    H138827   6.470   2.784  13.960  1.2196  0.5826 -0.1917
 5804TIP3    H238828   6.510   2.751  13.818 -1.1745 -0.8892 -0.5928
 5805TIP3   OH238829   4.352   0.563   4.997 -0.3164 -0.0502 -0.2803
 5805TIP3    H138830   4.348   0.622   5.072 -2.4276  0.5609 -0.7875
 5805TIP3    H238831   4.351   0.475   5.035 -0.7115  0.2504  0.4198
 5806TIP3   OH238832   4.099   0.171  16.638  0.3934 -0.2141  0.0343
 5806TIP3    H138833   4.046   0.218  16.574  1.9252 -2.1093 -2.8514
 5806TIP3    H238834   4.176   0.226  16.651 -0.5468  0.8492  1.4866
 5807TIP3   OH238835   2.602   2.413   2.225  0.9288 -0.2152  0.0891
 5807TIP3    H138836   2.528   2.396   2.284  1.2914  0.3937  0.7354
 5807TIP3    H238837   2.564   2.408   2.137 -0.0023  0.6693  0.4244
 5808TIP3   OH238838   5.213   0.884  11.387  0.3637 -0.6613  0.4064
 5808TIP3    H138839   5.258   0.839  11.459  0.0034 -1.5630  0.0723
 5808TIP3    H238840   5.127   0.905  11.422  0.6976  0.2348  0.7287
 5809TIP3   OH238841   0.298   5.943   2.710 -0.1103 -0.3403  0.2374
 5809TIP3    H138842   0.375   5.978   2.664 -0.0785 -1.4200 -0.5739
 5809TIP3    H238843   0.298   5.987   2.794  0.1952  1.2575 -0.5556
 5810TIP3   OH238844   4.792   2.546  13.981  0.0492  0.0644  0.4783
 5810TIP3    H138845   4.801   2.492  13.903 -0.1152 -0.3138  0.7196
 5810TIP3    H238846   4.807   2.635  13.950 -0.1809 -0.0663 -0.0176
 5811TIP3   OH238847   3.907   4.211   1.357  0.9194  0.1709 -0.1512
 5811TIP3    H138848   3.963   4.255   1.292  0.5435 -0.7214 -1.1174
 5811TIP3    H238849   3.840   4.276   1.378  0.4744  0.1578 -1.4168
 5812TIP3   OH238850   1.218   4.958  14.082 -0.3790  0.8307  0.2024
 5812TIP3    H138851   1.266   5.026  14.130  2.5015 -2.2247  2.0230
 5812TIP3    H238852   1.128   4.991  14.078  0.7941  4.6617  0.9839
 5813TIP3   OH238853   2.375   5.423   3.288 -0.2526 -0.5053  0.5218
 5813TIP3    H138854   2.365   5.464   3.202  0.0632  0.5524  0.9667
 5813TIP3    H238855   2.391   5.496   3.347  0.9145 -1.3349  1.2668
 5814TIP3   OH238856   3.635   5.466   2.457  0.3784  0.4650 -0.0607
 5814TIP3    H138857   3.613   5.378   2.490 -2.4202  1.6091  1.4695
 5814TIP3    H238858   3.550   5.504   2.433  1.4837  2.8851 -0.3520
 5815TIP3   OH238859   0.265   3.538  12.209  0.0861 -0.8999  0.3850
 5815TIP3    H138860   0.170   3.541  12.200 -0.0022  1.2898  1.4265
 5815TIP3    H238861   0.280   3.514  12.300  0.5709 -2.1823 -0.0188
 5816TIP3   OH238862   2.163   2.193   1.533  0.0141 -0.1854 -0.0089
 5816TIP3    H138863   2.144   2.099   1.531 -1.3926  0.0274  1.2909
 5816TIP3    H238864   2.077   2.234   1.524  0.8296  1.0957 -3.5409
 5817TIP3   OH238865   4.046   0.757  12.854  0.4220 -0.1666 -0.1526
 5817TIP3    H138866   4.057   0.825  12.788  1.2816  1.0486  1.1683
 5817TIP3    H238867   4.129   0.710  12.855  0.4379 -0.1376  0.0945
 5818TIP3   OH238868   1.770   2.236  12.371 -0.2808 -0.5137  0.0669
 5818TIP3    H138869   1.859   2.252  12.340  0.3697 -3.2120  0.2272
 5818TIP3    H238870   1.776   2.151  12.415 -2.5592  0.1181  1.7638
 5819TIP3   OH238871   4.518   3.674  16.537  0.4908  0.1923  0.0212
 5819TIP3    H138872   4.528   3.617  16.614  1.1712  0.5171  0.1786
 5819TIP3    H238873   4.432   3.651  16.502  0.5368 -0.5706  0.3789
 5820TIP3   OH238874   4.613   2.251  16.545 -0.1504  0.6214  0.0836
 5820TIP3    H138875   4.603   2.160  16.573  1.5350  0.8185  1.4534
 5820TIP3    H238876   4.573   2.254  16.458 -0.4479 -1.3617  0.1177
 5821TIP3   OH238877   0.615   2.928  12.808  0.6936  0.1486 -0.4724
 5821TIP3    H138878   0.669   2.862  12.853  0.1558  0.5580  0.8256
 5821TIP3    H238879   0.554   2.877  12.756  1.6892 -0.3364 -1.2019
 5822TIP3   OH238880   0.744   2.024   2.311 -0.2324 -0.0093  0.2239
 5822TIP3    H138881   0.838   2.023   2.296 -0.3417  0.9307 -0.6523
 5822TIP3    H238882   0.715   2.110   2.279 -1.4436 -0.4501  0.0567
 5823TIP3   OH238883   5.918   6.071   4.094 -0.8026 -0.3723 -0.1697
 5823TIP3    H138884   5.832   6.054   4.056 -0.2122 -0.2195 -1.6384
 5823TIP3    H238885   5.978   6.070   4.019  0.2865  0.8400  0.6383
 5824TIP3   OH238886   4.214   1.796   3.860 -0.2022 -0.6892 -0.2695
 5824TIP3    H138887   4.140   1.737   3.843  0.1827 -0.7857 -1.6812
 5824TIP3    H238888   4.255   1.809   3.775 -0.9052  2.5142 -0.2461
 5825TIP3   OH238889   3.853   3.470   4.209  0.2278  0.3292  1.1601
 5825TIP3    H138890   3.880   3.383   4.178  0.1534  0.8388 -0.4620
 5825TIP3    H238891   3.780   3.452   4.268 -0.3673 -0.7021  0.1740
 5826TIP3   OH238892   0.522   3.258  16.569 -0.4144  0.8609 -0.1848
 5826TIP3    H138893   0.600   3.277  16.517 -0.9402 -0.2804 -1.4635
 5826TIP3    H238894   0.528   3.164  16.588 -0.8689  1.0122  0.7788
 5827TIP3   OH238895   1.697   0.778  14.978  0.8388  0.3332  0.8266
 5827TIP3    H138896   1.644   0.855  14.961 -0.1285  0.0432  2.3186
 5827TIP3    H238897   1.715   0.781  15.072  0.3126 -1.5154  1.0335
 5828TIP3   OH238898   5.314   6.486   6.185  0.1371  0.1185 -0.1805
 5828TIP3    H138899   5.312   6.576   6.151  2.0092  0.6075  0.8417
 5828TIP3    H238900   5.352   6.495   6.272  0.3113 -1.6786 -0.0522
 5829TIP3   OH238901   5.282   6.097  10.880 -0.3776  0.2472 -0.1863
 5829TIP3    H138902   5.206   6.042  10.899  0.4054 -1.0546 -0.6168
 5829TIP3    H238903   5.293   6.152  10.957 -0.9616 -0.4916  0.4342
 5830TIP3   OH238904   5.043   2.908  15.251  0.3511 -0.0516 -0.4209
 5830TIP3    H138905   5.099   2.983  15.273  1.9032 -0.5002 -2.4574
 5830TIP3    H238906   5.101   2.832  15.256 -0.3198 -0.6731 -1.6242
 5831TIP3   OH238907   2.156   3.498  14.447  0.4878  0.0650 -0.4477
 5831TIP3    H138908   2.241   3.483  14.487  0.0526  0.4989  0.6841
 5831TIP3    H238909   2.149   3.594  14.442 -0.4705  0.0815  0.7175
 5832TIP3   OH238910   4.464   3.497   6.296 -0.1257  0.4480 -0.1166
 5832TIP3    H138911   4.421   3.474   6.213  3.2300  0.0193 -1.8933
 5832TIP3    H238912   4.406   3.562   6.335 -2.1655  0.2115 -2.4594
 5833TIP3   OH238913   2.527   4.437   2.304 -0.8327 -0.1566 -0.7996
 5833TIP3    H138914   2.561   4.373   2.241 -2.2890  0.5390 -2.4062
 5833TIP3    H238915   2.448   4.395   2.339  0.1126 -0.6479  0.8246
 5834TIP3   OH238916   5.623   4.023  15.239 -0.2094  0.4063  0.4788
 5834TIP3    H138917   5.632   4.036  15.144  2.3500  2.2048  0.8612
 5834TIP3    H238918   5.643   3.930  15.252 -2.9009 -0.4768 -0.8688
 5835TIP3   OH238919   4.182   1.819   5.110 -0.0196 -0.0098  0.4429
 5835TIP3    H138920   4.153   1.847   5.197  0.0093 -1.5712  0.9872
 5835TIP3    H238921   4.104   1.781   5.069  0.5024 -1.4623  0.7373
 5836TIP3   OH238922   2.657   0.547  16.795 -0.9660 -0.6271  0.1853
 5836TIP3    H138923   2.630   0.638  16.792 -1.7527 -0.8745 -1.4417
 5836TIP3    H238924   2.582   0.501  16.834 -0.3072 -0.5287  1.6401
 5837TIP3   OH238925   3.315   5.786   5.876  0.3052 -0.6368  0.1976
 5837TIP3    H138926   3.261   5.865   5.869  0.6614 -0.5217 -1.5738
 5837TIP3    H238927   3.352   5.791   5.965  0.1666  1.0815  0.2038
 5838TIP3   OH238928   3.988   0.405   4.121 -0.2922  0.6096  0.3489
 5838TIP3    H138929   3.966   0.491   4.158 -0.9862  0.5028  0.2010
 5838TIP3    H238930   3.941   0.403   4.037 -1.7192 -0.5841  1.1235
 5839TIP3   OH238931   4.460   4.510   1.441  0.2721 -0.0623  0.3760
 5839TIP3    H138932   4.496   4.465   1.517 -0.0170  0.4780  0.8401
 5839TIP3    H238933   4.365   4.502   1.451  0.2313 -1.5749 -0.8952
 5840TIP3   OH238934   4.962   1.796   0.430  0.3579 -0.2559 -0.3899
 5840TIP3    H138935   5.000   1.880   0.456  1.1004 -0.4751 -0.7524
 5840TIP3    H238936   4.887   1.819   0.376 -0.6432  0.1938  1.1387
 5841TIP3   OH238937   1.476   5.930   5.407  0.0239  0.5572 -0.4248
 5841TIP3    H138938   1.562   5.923   5.449 -0.6763  0.4641  1.0559
 5841TIP3    H238939   1.425   5.860   5.447 -1.5841  2.3709  0.8368
 5842TIP3   OH238940   5.237   4.516  12.143 -0.1047 -0.8308 -0.3532
 5842TIP3    H138941   5.330   4.540  12.144 -0.5389  1.0375  0.2521
 5842TIP3    H238942   5.195   4.581  12.201 -1.7671 -1.7061 -0.5141
 5843TIP3   OH238943   1.648   4.065   2.338  0.6317  0.5294 -0.3603
 5843TIP3    H138944   1.664   4.010   2.414  1.3497  0.0822 -0.8140
 5843TIP3    H238945   1.553   4.068   2.329  0.5849 -1.0221 -0.5942
 5844TIP3   OH238946   6.145   0.631   0.303 -0.8224  0.1388  0.5279
 5844TIP3    H138947   6.232   0.660   0.275 -1.5110  1.0222 -0.8382
 5844TIP3    H238948   6.161   0.550   0.352  0.6434 -0.5825 -1.0250
 5845TIP3   OH238949   3.598   4.618   1.444  0.1838  0.0155  0.4925
 5845TIP3    H138950   3.664   4.555   1.419 -1.1641 -1.9051  1.5274
 5845TIP3    H238951   3.522   4.597   1.390 -0.2219  0.8974  0.6927
 5846TIP3   OH238952   2.842   6.754   3.172 -0.5368 -0.0134  0.1647
 5846TIP3    H138953   2.921   6.715   3.135 -1.2811  0.4430 -2.0914
 5846TIP3    H238954   2.854   6.848   3.159 -0.7127  0.1904  1.4014
 5847TIP3   OH238955   5.002   5.175  13.961  0.2586  0.2752  0.3119
 5847TIP3    H138956   5.047   5.243  14.011  0.6546 -0.1719  0.5660
 5847TIP3    H238957   4.990   5.103  14.023  0.4050 -0.1301 -0.1283
 5848TIP3   OH238958   2.184   3.673  15.628  0.1890  0.4936 -0.0226
 5848TIP3    H138959   2.109   3.627  15.590  2.4567 -1.6241 -2.3162
 5848TIP3    H238960   2.205   3.622  15.707 -0.9341  1.3264  0.8508
 5849TIP3   OH238961   6.633   2.671  17.046  0.4202  0.1751  0.5495
 5849TIP3    H138962   6.537   2.674  17.051  0.1889 -1.5096 -1.5994
 5849TIP3    H238963   6.656   2.744  16.988  0.1199 -1.2467 -1.4418
 5850TIP3   OH238964   0.278   2.377   0.327 -0.0542 -0.0342 -0.2443
 5850TIP3    H138965   0.295   2.317   0.399 -2.5488 -0.0432  0.4297
 5850TIP3    H238966   0.211   2.333   0.274 -2.8004  2.4530  0.8726
 5851TIP3   OH238967   6.418   5.842  15.901  0.5606  0.0866 -0.8585
 5851TIP3    H138968   6.383   5.762  15.942 -0.0376 -0.2921 -2.0710
 5851TIP3    H238969   6.490   5.811  15.847  1.0570  0.5298 -0.4598
 5852TIP3   OH238970   5.833   6.085   0.827  0.4720 -0.4130  0.2119
 5852TIP3    H138971   5.882   6.013   0.867  0.0387 -0.2517  1.0554
 5852TIP3    H238972   5.897   6.128   0.770  1.5106  0.1272  1.7041
 5853TIP3   OH238973   3.265   5.896  12.049  0.0725 -0.1472  0.0512
 5853TIP3    H138974   3.271   5.856  12.136  0.9337  0.1510  0.1445
 5853TIP3    H238975   3.294   5.987  12.063  0.4136 -0.1555 -0.5758
 5854TIP3   OH238976   4.105   3.993   2.433 -0.4861 -0.1934 -0.2427
 5854TIP3    H138977   4.200   3.992   2.449 -0.2026 -2.5796 -1.6496
 5854TIP3    H238978   4.067   3.977   2.519  0.2505  2.4100  0.6549
 5855TIP3   OH238979   1.042   2.570  14.968  0.4376  0.8938  0.0209
 5855TIP3    H138980   1.017   2.575  15.060 -1.7675 -2.5834 -0.1898
 5855TIP3    H238981   0.964   2.601  14.921  0.7944  0.7530 -0.6629
 5856TIP3   OH238982   0.593   2.023  15.076 -0.5885 -0.4693  0.2781
 5856TIP3    H138983   0.560   2.055  15.160 -0.0895 -1.6971  0.9612
 5856TIP3    H238984   0.560   2.086  15.012 -1.5824  0.0874  1.3018
 5857TIP3   OH238985   2.252   0.315   5.752 -0.3836 -0.2527 -0.5048
 5857TIP3    H138986   2.209   0.233   5.775  1.1946 -0.5789  1.6683
 5857TIP3    H238987   2.344   0.302   5.778 -0.0940  2.2157  0.0128
 5858TIP3   OH238988   2.037   4.702   5.651 -0.3517 -0.0259  0.3787
 5858TIP3    H138989   1.988   4.685   5.731 -0.2466 -1.7829  0.0957
 5858TIP3    H238990   2.094   4.626   5.640 -0.7687 -0.1092 -1.6743
 5859TIP3   OH238991   5.117   5.275   3.742  0.0240  0.4460  0.0954
 5859TIP3    H138992   5.053   5.263   3.671  0.5114  0.0647 -0.2823
 5859TIP3    H238993   5.106   5.198   3.798 -0.6740  0.9615  0.6982
 5860TIP3   OH238994   1.136   0.350   3.879 -0.1928 -0.7148  0.0255
 5860TIP3    H138995   1.101   0.393   3.957 -0.2221  0.2653 -0.5120
 5860TIP3    H238996   1.187   0.418   3.835  0.1280 -1.3618 -0.6260
 5861TIP3   OH238997   0.317   3.437   5.745  0.5368  0.1410 -0.1392
 5861TIP3    H138998   0.225   3.419   5.726  0.5418  0.1599 -0.1822
 5861TIP3    H238999   0.365   3.369   5.699  0.5565  0.2782 -0.3241
 5862TIP3   OH239000   3.576   2.803   0.265 -0.5888 -0.2873 -0.1151
 5862TIP3    H139001   3.647   2.843   0.215  0.7299 -0.8059  1.2480
 5862TIP3    H239002   3.539   2.737   0.207  0.6118 -0.5870 -0.5669
 5863TIP3   OH239003   0.075   3.953   2.592  0.2170 -0.4376  0.0968
 5863TIP3    H139004   0.153   3.924   2.638  1.1394 -0.4182 -1.4078
 5863TIP3    H239005   0.032   3.872   2.563 -0.7809 -0.4862  1.5752
 5864TIP3   OH239006   0.595   6.614  11.383 -0.3391 -0.0632 -0.4239
 5864TIP3    H139007   0.573   6.608  11.290 -0.1017 -1.9336 -0.4003
 5864TIP3    H239008   0.619   6.706  11.397 -1.1997  0.4276 -2.0104
 5865TIP3   OH239009   1.210   1.879   4.203  0.1812  0.2829  0.4121
 5865TIP3    H139010   1.212   1.968   4.168  2.3374 -0.4707 -1.5583
 5865TIP3    H239011   1.298   1.864   4.238  0.0766 -1.3252  0.0618
 5866TIP3   OH239012   4.314   2.152   2.853 -0.2882 -0.2161 -0.5966
 5866TIP3    H139013   4.253   2.125   2.922  1.1704 -0.9346  0.4670
 5866TIP3    H239014   4.294   2.093   2.780 -1.1154 -0.1890 -0.4025
 5867TIP3   OH239015   4.077   1.505  13.052  0.5275  0.4671 -0.2618
 5867TIP3    H139016   4.093   1.496  13.146  1.4087 -1.8967 -0.5722
 5867TIP3    H239017   4.086   1.599  13.035  0.8859  0.8825  1.8947
 5868TIP3   OH239018   4.007   6.813   2.630  0.2264  0.0516  0.4872
 5868TIP3    H139019   4.010   6.833   2.537  0.5037 -1.5153  0.1475
 5868TIP3    H239020   4.090   6.770   2.649  0.1184  0.2310  1.4297
 5869TIP3   OH239021   3.355   3.978   5.458  0.5648  0.2920 -0.1062
 5869TIP3    H139022   3.339   4.028   5.538  2.1389 -1.4785  1.4218
 5869TIP3    H239023   3.407   4.037   5.403 -1.9181  2.1435 -0.6318
 5870TIP3   OH239024   4.863   2.548   5.523  0.6098  0.4074  0.2627
 5870TIP3    H139025   4.939   2.586   5.480 -0.0841 -0.5905 -2.0187
 5870TIP3    H239026   4.792   2.560   5.461 -0.3678 -1.5112  0.9239
 5871TIP3   OH239027   3.354   2.040  15.824  0.3728 -0.5455  0.2944
 5871TIP3    H139028   3.296   2.065  15.752  0.5196 -0.6826  0.1289
 5871TIP3    H239029   3.296   2.034  15.900  0.5348  1.7909  0.6878
 5872TIP3   OH239030   4.560   0.739   5.887 -0.3116  0.1050  0.1166
 5872TIP3    H139031   4.520   0.752   5.973  1.6040  0.3152  1.0283
 5872TIP3    H239032   4.597   0.650   5.891  0.4086  0.3792 -0.2205
 5873TIP3   OH239033   2.485   1.955   1.499  0.0143  0.4637 -0.4436
 5873TIP3    H139034   2.509   1.883   1.558  1.3665  2.1706  1.2333
 5873TIP3    H239035   2.403   1.989   1.534  1.4110  2.2473  1.3744
 5874TIP3   OH239036   6.515   1.436   1.582 -0.1855 -0.2722 -0.2856
 5874TIP3    H139037   6.494   1.347   1.611 -0.1095 -0.3939 -0.6036
 5874TIP3    H239038   6.605   1.449   1.609 -0.8439  0.5140  1.7349
 5875TIP3   OH239039   1.883   4.036  13.665  0.0105 -0.2881  0.4044
 5875TIP3    H139040   1.936   4.015  13.588 -0.2701  0.8063 -0.1134
 5875TIP3    H239041   1.830   3.958  13.680  0.3736 -0.6732 -0.2548
 5876TIP3   OH239042   0.052   0.965  11.193  0.6496 -0.2198 -0.0641
 5876TIP3    H139043   0.008   0.880  11.188  1.6774 -0.7012 -1.9937
 5876TIP3    H239044   0.017   1.014  11.119  1.9556  0.0688 -0.5121
 5877TIP3   OH239045   0.518   2.445   6.375 -0.1955 -0.0532  0.1924
 5877TIP3    H139046   0.438   2.468   6.329  0.6976  0.6930 -1.0684
 5877TIP3    H239047   0.587   2.494   6.329  1.4062 -2.8556 -0.6359
 5878TIP3   OH239048   4.658   5.303  13.375 -0.1394 -0.4863  0.4355
 5878TIP3    H139049   4.637   5.396  13.359  2.5999  0.0823 -0.3325
 5878TIP3    H239050   4.657   5.263  13.288 -0.2329 -0.9338  0.6426
 5879TIP3   OH239051   2.279   0.173   3.929  0.3693  0.1619  0.8942
 5879TIP3    H139052   2.346   0.237   3.904 -0.4597  1.1288  1.1112
 5879TIP3    H239053   2.240   0.209   4.009 -1.6956  0.5780 -0.2349
 5880TIP3   OH239054   1.998   1.430  10.428  0.0620 -0.2198 -0.7401
 5880TIP3    H139055   1.937   1.422  10.355  0.3110 -0.5758 -0.9165
 5880TIP3    H239056   1.943   1.445  10.504 -0.3429 -1.7225 -0.6986
 5881TIP3   OH239057   4.125   3.958  13.177  0.1111  0.4906  0.6044
 5881TIP3    H139058   4.170   3.947  13.261 -2.2120  1.0782  2.0404
 5881TIP3    H239059   4.040   3.916  13.190 -0.1574  0.2169 -1.6443
 5882TIP3   OH239060   3.141   4.662  14.833 -0.0075 -0.3171 -0.4759
 5882TIP3    H139061   3.234   4.646  14.848  0.4563  0.8522 -1.8478
 5882TIP3    H239062   3.101   4.661  14.920  0.8522 -3.1516 -0.0225
 5883TIP3   OH239063   5.467   0.355  16.824  0.2816  0.1432  0.0515
 5883TIP3    H139064   5.482   0.436  16.776 -1.4660  0.6902  0.3398
 5883TIP3    H239065   5.447   0.290  16.756  0.4691  0.2600 -0.1162
 5884TIP3   OH239066   6.284   3.786  14.736 -0.4244 -0.3249  0.7140
 5884TIP3    H139067   6.331   3.706  14.759  0.3493 -0.0469  0.1874
 5884TIP3    H239068   6.203   3.783  14.786  0.3746 -0.5934  2.0516
 5885TIP3   OH239069   3.198   3.003   2.760 -0.2028  0.0264  0.6006
 5885TIP3    H139070   3.236   3.091   2.765 -0.3015  0.0392  1.3040
 5885TIP3    H239071   3.114   3.010   2.805 -0.2872 -0.3908  0.5176
 5886TIP3   OH239072   6.518   0.618  13.220 -0.2655  0.5922 -0.2263
 5886TIP3    H139073   6.580   0.648  13.286  0.4425 -2.1847  0.5319
 5886TIP3    H239074   6.571   0.567  13.159 -1.3858  0.5962 -1.2397
 5887TIP3   OH239075   0.258   6.558   5.327  0.0625 -0.4070 -0.5913
 5887TIP3    H139076   0.183   6.577   5.270  0.9273 -0.4079 -1.7808
 5887TIP3    H239077   0.277   6.642   5.370 -0.1114 -0.1909 -0.9285
 5888TIP3   OH239078   4.169   2.967  13.862 -0.2453 -0.3192  0.4261
 5888TIP3    H139079   4.190   2.967  13.769 -1.4315  0.6856  0.1308
 5888TIP3    H239080   4.118   2.888  13.876 -2.0075  0.6418 -0.2856
 5889TIP3   OH239081   5.490   2.925  16.129  0.4513 -0.1618  0.0489
 5889TIP3    H139082   5.524   2.867  16.061  0.6422  0.8156 -0.6970
 5889TIP3    H239083   5.395   2.913  16.125  0.4787 -0.2823 -0.2287
 5890TIP3   OH239084   4.427   1.476  15.908  0.6169 -0.5532 -0.0661
 5890TIP3    H139085   4.386   1.504  15.826  0.4694  2.0945  0.8298
 5890TIP3    H239086   4.506   1.430  15.880  1.2880  1.4532 -1.7074
 5891TIP3   OH239087   5.384   3.603  14.894  0.4716  0.4851  0.1110
 5891TIP3    H139088   5.464   3.629  14.938  0.7046 -1.7050  1.1116
 5891TIP3    H239089   5.317   3.608  14.962  0.2149  0.0760 -0.1107
 5892TIP3   OH239090   1.650   3.216   3.466  0.3577  0.4507 -0.0798
 5892TIP3    H139091   1.632   3.125   3.490 -1.1217  0.9535  0.8271
 5892TIP3    H239092   1.564   3.255   3.452  1.0078  1.2057 -2.5740
 5893TIP3   OH239093   0.153   4.472  16.067  0.9018  0.1290 -0.4298
 5893TIP3    H139094   0.090   4.531  16.107 -0.1488 -0.4813 -1.1572
 5893TIP3    H239095   0.156   4.396  16.126 -0.2370 -0.5287 -1.1823
 5894TIP3   OH239096   5.764   2.803  13.412  0.6182 -0.0559  0.3341
 5894TIP3    H139097   5.762   2.862  13.337  1.9489 -2.1122 -1.4661
 5894TIP3    H239098   5.853   2.770  13.413  0.1936 -1.2376  1.8882
 5895TIP3   OH239099   2.030   1.625  11.481 -0.2520 -0.1522  0.1387
 5895TIP3    H139100   1.967   1.679  11.528  2.0701  3.5374 -0.5274
 5895TIP3    H239101   1.983   1.595  11.403 -1.2119  2.7896 -0.5393
 5896TIP3   OH239102   0.012   6.107  11.324 -0.3193  0.1232 -0.3191
 5896TIP3    H139103  -0.015   6.016  11.341 -2.4763  0.8462  0.4457
 5896TIP3    H239104   0.102   6.111  11.357  0.0713 -1.8802 -0.9673
 5897TIP3   OH239105   1.616   3.721   0.512 -0.4904 -0.9239 -0.0308
 5897TIP3    H139106   1.637   3.814   0.516  0.5014 -0.8541 -3.3404
 5897TIP3    H239107   1.573   3.702   0.595  1.3445  1.9256  1.7339
 5898TIP3   OH239108   0.103   3.988  15.877  1.1086  0.1139 -0.1975
 5898TIP3    H139109   0.068   3.945  15.799  0.0252  0.0201  0.3166
 5898TIP3    H239110   0.070   3.936  15.950  0.3087  1.3951  0.4073
 5899TIP3   OH239111   2.988   0.110  15.809  0.5219 -0.0355  0.6927
 5899TIP3    H139112   2.980   0.042  15.876  0.6892 -0.1759  0.5674
 5899TIP3    H239113   3.000   0.191  15.859 -0.9325  0.0933  0.8850
 5900TIP3   OH239114   0.731   5.969   4.930  0.5280  0.6493  0.1633
 5900TIP3    H139115   0.642   5.995   4.955  1.2380  2.5280  0.8757
 5900TIP3    H239116   0.726   5.959   4.834 -1.0015 -1.7641  0.4007
 5901TIP3   OH239117   6.652   3.797   2.919  0.2041 -0.0739  0.8097
 5901TIP3    H139118   6.715   3.734   2.882 -0.6133  0.0291 -0.8296
 5901TIP3    H239119   6.706   3.857   2.970  1.1489 -1.3428  1.3829
 5902TIP3   OH239120   1.390   6.642   4.357 -0.1192 -0.4816  0.2244
 5902TIP3    H139121   1.466   6.618   4.409  0.8434 -0.1875 -1.0073
 5902TIP3    H239122   1.402   6.734   4.337  0.8781 -1.1332 -2.6080
 5903TIP3   OH239123   3.398   0.731  15.150 -0.3433 -0.3456 -0.5443
 5903TIP3    H139124   3.463   0.669  15.118  1.1125  0.6061  0.4359
 5903TIP3    H239125   3.315   0.703  15.110  0.0484 -3.4170  0.5738
 5904TIP3   OH239126   3.374   5.923   1.049 -0.0489  0.5269 -0.0877
 5904TIP3    H139127   3.360   5.909   0.955 -0.4831 -0.2548  0.0799
 5904TIP3    H239128   3.312   5.992   1.072 -1.6665 -0.8910  0.0605
 5905TIP3   OH239129   0.599   3.434   2.155  0.6857 -0.0896 -0.0943
 5905TIP3    H139130   0.611   3.340   2.152  0.2496 -0.1611  0.2781
 5905TIP3    H239131   0.524   3.447   2.214  0.9942  0.5051  0.1828
 5906TIP3   OH239132   1.120   0.657  11.942 -0.1837 -0.0933  0.2818
 5906TIP3    H139133   1.070   0.636  11.864 -0.5358  0.3752  0.3748
 5906TIP3    H239134   1.172   0.579  11.960 -0.5561 -0.4227 -0.0657
 5907TIP3   OH239135   5.421   1.455   2.011  0.6092  0.3985 -0.1461
 5907TIP3    H139136   5.475   1.393   1.963 -0.1891 -3.0341  2.8897
 5907TIP3    H239137   5.484   1.515   2.052  1.8137 -0.8701 -0.0712
 5908TIP3   OH239138   6.387   0.781  11.036  0.4669  0.1312 -0.4691
 5908TIP3    H139139   6.458   0.764  10.974  0.5096 -0.6340 -0.2261
 5908TIP3    H239140   6.308   0.751  10.991  0.5100 -0.5216 -0.1366
 5909TIP3   OH239141   0.663   6.565  15.954  0.0187  0.5828 -0.2319
 5909TIP3    H139142   0.582   6.554  16.004  0.8079  0.1993  1.0115
 5909TIP3    H239143   0.690   6.655  15.972  0.0146  0.6227 -0.4239
 5910TIP3   OH239144   1.146   0.904  10.723  0.1039  0.2944 -0.3911
 5910TIP3    H139145   1.132   0.810  10.716 -0.6534  0.4488 -1.0714
 5910TIP3    H239146   1.239   0.913  10.744 -0.3009 -0.6788  2.0722
 5911TIP3   OH239147   2.073   1.209   2.334  0.5784 -0.0014 -0.8563
 5911TIP3    H139148   2.112   1.125   2.360 -0.5823 -0.6042 -0.9755
 5911TIP3    H239149   2.006   1.227   2.401  1.6484  1.4762 -0.1398
 5912TIP3   OH239150   1.192   5.458  14.902  0.4416 -0.0260 -0.0046
 5912TIP3    H139151   1.172   5.440  14.994 -1.0483  0.9010 -0.1052
 5912TIP3    H239152   1.285   5.481  14.901  0.8069 -1.3722  1.0427
 5913TIP3   OH239153   2.702   4.446  11.904  0.2881  0.5709  0.3828
 5913TIP3    H139154   2.712   4.525  11.958 -0.5646  0.3100  0.9438
 5913TIP3    H239155   2.641   4.473  11.834  0.6043  0.6211  0.1222
 5914TIP3   OH239156   2.089   5.047  11.579 -0.0857 -0.0683  0.4167
 5914TIP3    H139157   2.137   5.017  11.502  0.3128  0.2259  0.5435
 5914TIP3    H239158   2.014   4.989  11.585 -0.4470  0.2842 -0.5435
 5915TIP3   OH239159   3.008   3.679  16.137  0.0796 -0.1985 -0.0261
 5915TIP3    H139160   3.016   3.761  16.088 -0.8230 -0.6409 -0.9367
 5915TIP3    H239161   2.991   3.613  16.071  0.4471 -1.0762  0.7360
 5916TIP3   OH239162   1.266   0.656   4.758  0.4391  0.4577 -0.1750
 5916TIP3    H139163   1.185   0.643   4.807  0.7635  3.1939  1.2712
 5916TIP3    H239164   1.246   0.726   4.697  1.6814  1.1108  0.1448
 5917TIP3   OH239165   5.620   4.982   3.609 -0.4980 -0.0963 -0.1371
 5917TIP3    H139166   5.543   5.009   3.559 -1.3536  0.8943  1.6190
 5917TIP3    H239167   5.660   4.913   3.557 -2.9114 -1.0604 -0.8318
 5918TIP3   OH239168   1.020   4.360  13.012  0.2281  0.9423 -0.4283
 5918TIP3    H139169   0.960   4.311  13.068  0.3386  1.4921  0.1816
 5918TIP3    H239170   1.091   4.386  13.070  0.2947  1.6085 -0.8052
 5919TIP3   OH239171   0.167   5.851  15.422  0.3219  0.6597  0.2602
 5919TIP3    H139172   0.177   5.804  15.504 -0.8130  0.7740  0.4831
 5919TIP3    H239173   0.237   5.917  15.422 -0.1294  1.1604  1.4938
 5920TIP3   OH239174   0.718   1.845  17.068  0.0740 -0.2063 -0.3761
 5920TIP3    H139175   0.776   1.921  17.054 -0.7771  0.4596 -0.3259
 5920TIP3    H239176   0.631   1.876  17.043 -0.5795 -0.6584  1.2153
 5921TIP3   OH239177   1.307   1.607   6.464  0.2621 -0.4961 -0.2080
 5921TIP3    H139178   1.353   1.689   6.447 -0.8853  0.2199 -0.0010
 5921TIP3    H239179   1.255   1.624   6.542  0.9895 -1.8612  0.6149
 5922TIP3   OH239180   0.357   4.101   0.115 -0.5873  0.5591 -0.3707
 5922TIP3    H139181   0.277   4.113   0.166  1.3248 -2.4141  3.9668
 5922TIP3    H239182   0.427   4.127   0.174  1.8414 -1.3839 -2.1615
 5923TIP3   OH239183   3.009   5.735  15.536 -0.2753 -0.3214  0.1812
 5923TIP3    H139184   3.058   5.818  15.536 -0.0755 -0.4379  0.4138
 5923TIP3    H239185   2.919   5.761  15.519 -0.0912 -0.1282 -0.5036
 5924TIP3   OH239186   2.776   2.233  13.927  0.2712 -0.3800 -0.2340
 5924TIP3    H139187   2.856   2.276  13.958  0.9124 -0.2697 -1.9270
 5924TIP3    H239188   2.781   2.144  13.963  0.5575 -0.0193  0.6380
 5925TIP3   OH239189   3.325   4.192   3.135  0.5769 -0.5335  0.0280
 5925TIP3    H139190   3.271   4.247   3.193  1.8198 -1.7723  2.5231
 5925TIP3    H239191   3.408   4.239   3.129  0.9188 -1.0856  0.4035
 5926TIP3   OH239192   1.798   6.803   1.930 -0.2725  0.6866 -0.2618
 5926TIP3    H139193   1.754   6.881   1.896 -2.2477 -0.9648 -1.6955
 5926TIP3    H239194   1.891   6.827   1.930 -0.7738  2.8735 -1.0976
 5927TIP3   OH239195   2.739   1.240  16.551  0.1914  0.0493  0.4111
 5927TIP3    H139196   2.695   1.263  16.469 -0.2754  0.1452  0.6834
 5927TIP3    H239197   2.782   1.157  16.533  0.5995  0.3682 -0.1126
 5928TIP3   OH239198   5.871   2.485   3.828  0.3412  0.4295 -0.1581
 5928TIP3    H139199   5.783   2.517   3.808  0.8224  1.4182 -0.7477
 5928TIP3    H239200   5.863   2.389   3.825 -0.6260  0.5120 -0.5850
 5929TIP3   OH239201   0.261   3.461   0.379  0.3802 -0.3747  0.1719
 5929TIP3    H139202   0.237   3.406   0.304 -1.6900  1.3495 -0.5496
 5929TIP3    H239203   0.235   3.409   0.455 -1.0498 -0.6662 -0.4641
 5930TIP3   OH239204   1.884   6.697  10.937 -0.0256 -0.3062  0.3988
 5930TIP3    H139205   1.850   6.608  10.943  1.4606 -0.8965  0.6571
 5930TIP3    H239206   1.940   6.706  11.014 -0.1231  0.8356  0.3476
 5931TIP3   OH239207   5.444   1.746   3.950 -0.1226 -0.5842 -0.4284
 5931TIP3    H139208   5.467   1.687   4.022  0.9541  1.5565  1.0805
 5931TIP3    H239209   5.366   1.791   3.980  0.7431  0.8425 -0.2325
 5932TIP3   OH239210   0.227   0.086  10.621  0.3347 -0.0586  0.1289
 5932TIP3    H139211   0.219   0.021  10.551  1.8564 -0.5201  0.3574
 5932TIP3    H239212   0.308   0.063  10.667 -0.5686  0.2862  1.9977
 5933TIP3   OH239213   6.475   2.142   0.836 -0.0447 -0.0588 -0.3656
 5933TIP3    H139214   6.481   2.071   0.899 -0.2477  0.6637  0.4751
 5933TIP3    H239215   6.530   2.211   0.872  0.7956 -0.0478 -1.5627
 5934TIP3   OH239216   3.195   0.123  13.755  0.0234  0.0895 -0.0427
 5934TIP3    H139217   3.220   0.145  13.845 -0.0574 -1.5579  0.4266
 5934TIP3    H239218   3.139   0.046  13.765 -0.8792  0.5291 -1.4460
 5935TIP3   OH239219   4.373   1.774  15.438  0.0806  0.0514  0.3098
 5935TIP3    H139220   4.413   1.741  15.357 -4.0725 -0.3966 -1.8498
 5935TIP3    H239221   4.376   1.869  15.428 -0.0875  0.0054 -0.2113
 5936TIP3   OH239222   2.495   2.205   2.002  0.0467  0.0212  0.4274
 5936TIP3    H139223   2.576   2.205   1.952 -1.3603 -0.5494 -2.0155
 5936TIP3    H239224   2.471   2.298   2.009 -1.0819  0.0535 -2.4739
 5937TIP3   OH239225   4.183   1.767   3.024 -0.1005  0.0611  0.5033
 5937TIP3    H139226   4.224   1.755   2.938  1.0572  0.2191  1.0221
 5937TIP3    H239227   4.130   1.688   3.036  2.4526 -1.6757  1.1128
 5938TIP3   OH239228   5.301   2.188  12.374 -0.4057 -0.6720  0.4313
 5938TIP3    H139229   5.309   2.172  12.468  0.8790  0.3731  0.5146
 5938TIP3    H239230   5.244   2.264  12.368  2.6711  1.8245  0.6282
 5939TIP3   OH239231   4.617   6.651   1.375  0.0181  0.3062 -0.8363
 5939TIP3    H139232   4.643   6.669   1.284  1.3967 -0.9089 -0.7218
 5939TIP3    H239233   4.587   6.735   1.408  1.4917  1.2679 -1.7934
 5940TIP3   OH239234   2.032   3.058  12.817 -0.6878  0.2729 -0.0752
 5940TIP3    H139235   2.018   3.003  12.740 -1.8730  0.9388 -0.3592
 5940TIP3    H239236   1.967   3.128  12.808 -0.1115  0.9596  0.9742
 5941TIP3   OH239237   4.147   0.562  11.468  0.0258  0.2996 -0.2123
 5941TIP3    H139238   4.063   0.560  11.515  0.1507 -1.4173  0.0090
 5941TIP3    H239239   4.183   0.474  11.480  0.1263 -0.2045 -3.4381
 5942TIP3   OH239240   2.394   6.285   0.633 -0.4466  0.0999 -0.5299
 5942TIP3    H139241   2.402   6.380   0.641  1.4426 -0.1719  2.4332
 5942TIP3    H239242   2.383   6.254   0.723  0.8742 -2.5839 -1.1952
 5943TIP3   OH239243   3.168   1.715   1.979 -0.5115 -0.2060  0.2690
 5943TIP3    H139244   3.243   1.657   1.977 -1.4949 -1.5299  0.4038
 5943TIP3    H239245   3.094   1.659   1.954 -1.2931  1.3125 -1.0183
 5944TIP3   OH239246   5.306   6.709   1.547  0.4956 -0.3012  0.4790
 5944TIP3    H139247   5.325   6.800   1.526  0.6775 -0.6059 -0.7257
 5944TIP3    H239248   5.364   6.658   1.491 -1.0561 -1.1851 -0.4040
 5945TIP3   OH239249   2.869   2.716   5.950  0.1256 -0.1004  0.0778
 5945TIP3    H139250   2.844   2.769   5.875  4.7410 -0.1119 -1.7944
 5945TIP3    H239251   2.900   2.780   6.015  0.2984 -0.2758  0.1684
 5946TIP3   OH239252   0.066   6.453   5.934  0.6800 -0.0145  0.4281
 5946TIP3    H139253   0.082   6.504   6.013  0.7871 -0.6143  0.8040
 5946TIP3    H239254   0.149   6.409   5.917  0.5322 -0.2170  0.2213
 5947TIP3   OH239255   6.544   2.231  16.218  0.5429 -0.0453  0.1930
 5947TIP3    H139256   6.532   2.212  16.124 -2.2542 -1.9021  0.7940
 5947TIP3    H239257   6.480   2.299  16.237  0.1190 -0.6488  0.9871
 5948TIP3   OH239258   3.244   2.130   2.279  0.0697  0.3631 -0.9087
 5948TIP3    H139259   3.245   2.109   2.373 -0.1765  1.9357 -0.5172
 5948TIP3    H239260   3.264   2.047   2.236  0.3243 -0.3750  0.5390
 5949TIP3   OH239261   0.439   4.299  13.262  0.2905 -0.3175  0.1520
 5949TIP3    H139262   0.477   4.359  13.327  0.1236 -0.8359  0.7396
 5949TIP3    H239263   0.345   4.300  13.280 -0.3773  2.5483 -2.6075
 5950TIP3   OH239264   3.574   1.445  13.123  0.3528  0.0284 -0.4135
 5950TIP3    H139265   3.632   1.514  13.090 -0.2672 -0.6648 -3.2543
 5950TIP3    H239266   3.488   1.486  13.128  0.4513  0.1444  0.5113
 5951TIP3   OH239267   4.126   2.988   1.038  0.4627 -0.5120 -0.4164
 5951TIP3    H139268   4.120   2.964   0.946  1.3904 -2.8351  0.0795
 5951TIP3    H239269   4.078   3.071   1.044  3.8996  2.0234 -3.7381
 5952TIP3   OH239270   5.404   1.304   1.138  0.4933 -0.3879  1.2015
 5952TIP3    H139271   5.486   1.342   1.171  0.8434 -1.1232  1.1835
 5952TIP3    H239272   5.429   1.260   1.057 -0.3044  1.1302  0.0863
 5953TIP3   OH239273   5.811   5.252   1.621  0.1551 -0.3565 -0.4090
 5953TIP3    H139274   5.731   5.303   1.608 -2.4149 -3.0589  2.8077
 5953TIP3    H239275   5.805   5.182   1.556 -0.1852 -0.5768 -0.1497
 5954TIP3   OH239276   0.476   1.258   2.448  0.1595 -0.0904  0.2436
 5954TIP3    H139277   0.481   1.347   2.484 -1.6623  0.0901  0.1083
 5954TIP3    H239278   0.397   1.258   2.394 -0.9323 -2.2913  1.6933
 5955TIP3   OH239279   4.452   0.577  14.854 -0.4668  0.2319 -0.0146
 5955TIP3    H139280   4.447   0.545  14.944  0.7255  0.6244  0.2096
 5955TIP3    H239281   4.374   0.632  14.843 -1.6422 -1.3422  0.1348
 5956TIP3   OH239282   3.812   6.649   2.216 -0.3828  0.3809 -0.4555
 5956TIP3    H139283   3.824   6.663   2.310 -2.1499 -0.7595 -0.0289
 5956TIP3    H239284   3.879   6.704   2.175 -0.0363  1.4392  1.4403
 5957TIP3   OH239285   6.189   3.786  10.884  0.0952  0.8619 -0.4391
 5957TIP3    H139286   6.251   3.859  10.878 -1.1526  1.9262 -0.7571
 5957TIP3    H239287   6.174   3.760  10.793 -2.0858  2.5357 -0.6365
 5958TIP3   OH239288   5.904   2.346  12.620 -0.6035 -0.6853  0.0411
 5958TIP3    H139289   5.932   2.256  12.636 -0.0417 -0.1534  2.3038
 5958TIP3    H239290   5.835   2.362  12.683 -0.3528  0.6246  0.0162
 5959TIP3   OH239291   2.483   3.140   5.365 -0.6744  0.1985 -0.2572
 5959TIP3    H139292   2.490   3.202   5.292  1.3701  0.2932 -0.0206
 5959TIP3    H239293   2.525   3.185   5.439 -3.4769  0.4970  1.3252
 5960TIP3   OH239294   3.275   2.364  13.856  0.6864  0.3026  0.0365
 5960TIP3    H139295   3.230   2.323  13.930  1.5237 -4.2449 -1.6347
 5960TIP3    H239296   3.211   2.426  13.821 -1.5359 -0.8213  1.8140
 5961TIP3   OH239297   2.424   0.912  16.053  0.0526 -0.2774 -0.6059
 5961TIP3    H139298   2.488   0.842  16.037  0.7572  0.1913  0.1283
 5961TIP3    H239299   2.383   0.888  16.136  2.7534  1.8937  1.5684
 5962TIP3   OH239300   6.119   5.643  14.385  0.5769  0.0694  0.0462
 5962TIP3    H139301   6.067   5.566  14.365  0.6921  0.3211 -1.2931
 5962TIP3    H239302   6.183   5.649  14.314  0.0167  1.8699 -0.3661
 5963TIP3   OH239303   5.286   3.471  14.040 -0.2179 -0.0090 -0.3160
 5963TIP3    H139304   5.221   3.428  14.096 -0.4228 -0.9408 -1.2476
 5963TIP3    H239305   5.239   3.492  13.960  0.1231  1.1599 -0.2259
 5964TIP3   OH239306   1.259   1.443   3.361 -0.4244 -0.8150 -0.3909
 5964TIP3    H139307   1.290   1.523   3.404 -1.1072 -0.2555 -0.9175
 5964TIP3    H239308   1.322   1.376   3.387 -0.4687 -0.3620  0.9729
 5965TIP3   OH239309   6.432   4.406  16.333 -0.1520 -0.1641 -0.1578
 5965TIP3    H139310   6.456   4.495  16.357  2.9445 -0.6512 -1.0244
 5965TIP3    H239311   6.459   4.353  16.408  3.1170 -0.8806 -1.6745
 5966TIP3   OH239312   4.578   1.670   4.637 -0.7083  0.1310  0.2123
 5966TIP3    H139313   4.611   1.654   4.549 -0.4942  0.3688  0.2491
 5966TIP3    H239314   4.500   1.724   4.624 -0.9720 -0.2623  0.1380
 5967TIP3   OH239315   6.740   2.439  14.024  0.7309  0.6177  0.0495
 5967TIP3    H139316   6.785   2.384  14.087 -0.5464 -1.2244 -0.5336
 5967TIP3    H239317   6.684   2.496  14.077 -0.1569 -0.7465  0.6424
 5968TIP3   OH239318   3.178   3.399   2.199 -0.3795  0.3540  0.7705
 5968TIP3    H139319   3.221   3.379   2.282 -0.7694  0.2311  0.9460
 5968TIP3    H239320   3.091   3.360   2.207 -0.0071 -0.7193 -0.1715
 5969TIP3   OH239321   4.687   0.895   4.127  0.0671  0.3578 -0.2747
 5969TIP3    H139322   4.680   0.802   4.150  0.5637  0.0527 -1.2963
 5969TIP3    H239323   4.747   0.932   4.193 -4.1352  1.2415  3.5859
 5970TIP3   OH239324   1.560   3.232   3.073  0.4706  0.1755 -0.0360
 5970TIP3    H139325   1.633   3.195   3.123  0.4250 -1.5997 -1.2101
 5970TIP3    H239326   1.587   3.322   3.054  0.1603  1.2448  3.7366
 5971TIP3   OH239327   1.839   5.227   2.297 -0.9179  0.2269 -0.0131
 5971TIP3    H139328   1.758   5.209   2.344 -0.3029 -1.4319  0.4846
 5971TIP3    H239329   1.903   5.167   2.336 -0.4754 -1.6419 -3.2828
 5972TIP3   OH239330   5.771   2.087   4.638 -0.5781  0.4222 -0.8071
 5972TIP3    H139331   5.838   2.154   4.651 -0.3611 -0.2190  1.9898
 5972TIP3    H239332   5.820   2.008   4.614 -0.7839  0.9885 -3.4044
 5973TIP3   OH239333   1.234   4.186   1.810 -0.0780  0.0050  0.8152
 5973TIP3    H139334   1.316   4.235   1.797  0.2584 -1.0308 -1.2486
 5973TIP3    H239335   1.252   4.130   1.885  1.4501 -0.8281 -0.1207
 5974TIP3   OH239336   1.348   4.541   5.095 -0.4438 -0.0730 -0.2438
 5974TIP3    H139337   1.335   4.459   5.047 -1.3599  1.7779 -3.4230
 5974TIP3    H239338   1.374   4.604   5.028 -1.4636  2.6679  1.7691
 5975TIP3   OH239339   4.004   2.594   5.985 -0.3400 -0.7797 -0.3393
 5975TIP3    H139340   4.000   2.546   6.068 -0.1336  1.5831  1.1130
 5975TIP3    H239341   3.912   2.608   5.962 -0.4587  1.0666  1.0765
 5976TIP3   OH239342   0.650   5.600   0.773 -0.4803 -0.5668  0.0276
 5976TIP3    H139343   0.636   5.566   0.685  1.1264  0.1041 -0.5320
 5976TIP3    H239344   0.624   5.692   0.767  1.9198  0.1471 -0.4766
 5977TIP3   OH239345   3.903   4.362  15.041  0.5525 -0.3351 -0.0517
 5977TIP3    H139346   3.844   4.289  15.019 -0.9220  0.0494  2.2720
 5977TIP3    H239347   3.958   4.329  15.111  0.3636  0.5420  0.5290
 5978TIP3   OH239348   4.953   0.237  14.354 -0.1816  0.6839  0.9793
 5978TIP3    H139349   4.973   0.162  14.410  0.9002 -0.1588 -0.4689
 5978TIP3    H239350   4.859   0.252  14.367 -1.5171 -3.5668 -1.7076
 5979TIP3   OH239351   3.050   4.650   4.030 -0.0782 -0.3500 -0.1324
 5979TIP3    H139352   3.028   4.562   4.061 -0.6653  0.0604  0.6674
 5979TIP3    H239353   3.012   4.708   4.096 -2.4215  0.6450 -2.1783
 5980TIP3   OH239354   4.097   0.494   0.355  0.0197 -0.3140  0.7532
 5980TIP3    H139355   4.041   0.548   0.411  0.8048  1.7358 -0.3254
 5980TIP3    H239356   4.053   0.494   0.270  1.6569  1.4574 -0.1490
 5981TIP3   OH239357   5.795   6.381   1.883  0.1553 -0.3238 -0.8916
 5981TIP3    H139358   5.883   6.369   1.847  0.9416 -1.3749  1.1951
 5981TIP3    H239359   5.742   6.313   1.841  1.7687 -3.6491  1.8952
 5982TIP3   OH239360   4.209   0.713  15.244 -0.9198  0.0329 -0.1172
 5982TIP3    H139361   4.185   0.695  15.154  1.3909 -1.9728 -0.4395
 5982TIP3    H239362   4.152   0.786  15.271 -2.3543  0.0075 -2.8167
 5983TIP3   OH239363   0.084   1.078   3.200  0.2013  0.4596 -0.0641
 5983TIP3    H139364   0.148   1.119   3.258  0.6954  1.6255 -1.3620
 5983TIP3    H239365  -0.001   1.094   3.242  0.6319  0.3470  0.8521
 5984TIP3   OH239366   4.346   4.096  16.032  0.0597 -0.2414  0.2073
 5984TIP3    H139367   4.419   4.157  16.043 -0.4238  0.6084 -1.0035
 5984TIP3    H239368   4.384   4.010  16.049  1.2519  0.2210 -0.0123
 5985TIP3   OH239369   6.485   5.143  15.464 -0.1899 -0.4909 -0.0481
 5985TIP3    H139370   6.492   5.204  15.538 -0.7785 -1.7523  1.0832
 5985TIP3    H239371   6.575   5.133  15.432  0.3034 -1.0857  1.4714
 5986TIP3   OH239372   3.165   5.541   2.612  0.1980 -0.3902  0.1251
 5986TIP3    H139373   3.107   5.496   2.550  1.2498 -1.4328 -0.1369
 5986TIP3    H239374   3.106   5.583   2.674 -0.8474 -0.6934 -0.6365
 5987TIP3   OH239375   1.305   4.561   1.250 -0.0347 -0.7178  0.1899
 5987TIP3    H139376   1.273   4.478   1.283 -1.2920 -0.0271  0.7594
 5987TIP3    H239377   1.243   4.626   1.282 -1.0259  0.0893 -2.9897
 5988TIP3   OH239378   5.200   1.755  14.633 -0.3609 -0.1616 -0.4174
 5988TIP3    H139379   5.167   1.833  14.677  1.8497  0.6967 -0.1378
 5988TIP3    H239380   5.186   1.773  14.540 -1.2294 -0.1244 -0.2895
 5989TIP3   OH239381   5.310   3.736   0.179 -0.2364  0.3941  0.2096
 5989TIP3    H139382   5.324   3.712   0.088  2.8962 -2.5284  1.2310
 5989TIP3    H239383   5.381   3.796   0.200 -0.7650  0.8351  0.7871
 5990TIP3   OH239384   1.872   1.823   5.349  0.1286 -0.6205 -0.8161
 5990TIP3    H139385   1.827   1.835   5.265 -2.0053 -0.8865  0.2124
 5990TIP3    H239386   1.824   1.879   5.410  0.8467 -1.3647  0.4756
 5991TIP3   OH239387   2.479   0.362   1.571  0.3332  0.0665 -0.3535
 5991TIP3    H139388   2.389   0.343   1.598 -0.4176 -0.6274 -3.0340
 5991TIP3    H239389   2.473   0.444   1.521  1.0128 -0.4168 -1.2644
 5992TIP3   OH239390   6.735   5.212  12.450  0.7365 -0.4858  0.0258
 5992TIP3    H139391   6.790   5.188  12.524  1.3898 -0.4983 -0.4479
 5992TIP3    H239392   6.697   5.129  12.420 -0.6312 -0.3075  1.1778
 5993TIP3   OH239393   1.583   3.542  16.295 -0.6385  0.2874  0.0228
 5993TIP3    H139394   1.637   3.524  16.218 -1.0643  1.6381 -0.6103
 5993TIP3    H239395   1.639   3.594  16.353 -0.3605 -0.6204  0.5888
 5994TIP3   OH239396   3.217   2.712  14.401  0.1209 -0.1177  0.6897
 5994TIP3    H139397   3.308   2.740  14.408  0.1780 -0.5053  1.6124
 5994TIP3    H239398   3.201   2.659  14.479 -0.7563 -0.4664  0.2961
 5995TIP3   OH239399   3.680   2.601   5.125 -0.0432  0.1604  0.1842
 5995TIP3    H139400   3.743   2.532   5.144  1.2732  0.8323 -1.4584
 5995TIP3    H239401   3.594   2.560   5.137  0.6896 -1.1711  1.1454
 5996TIP3   OH239402   0.828   6.781  13.412  0.2863  0.1445  0.2011
 5996TIP3    H139403   0.749   6.728  13.402  1.3941 -1.8640  1.5792
 5996TIP3    H239404   0.811   6.833  13.491 -0.7250  1.8516 -1.0524
 5997TIP3   OH239405   6.801   5.628   4.786 -0.9461  0.0743 -0.2191
 5997TIP3    H139406   6.882   5.657   4.745 -0.5950 -0.6862 -0.0599
 5997TIP3    H239407   6.757   5.576   4.719 -1.3609  0.5685 -0.3421
 5998TIP3   OH239408   3.473   2.012  11.732 -0.4472 -0.5251  0.1304
 5998TIP3    H139409   3.428   2.096  11.725  0.2518  0.0330  1.8008
 5998TIP3    H239410   3.505   1.994  11.644 -3.1509 -0.5481 -0.9622
 5999TIP3   OH239411   3.518   2.254   0.642  0.5445  0.1234  0.2217
 5999TIP3    H139412   3.472   2.227   0.563  0.3998 -1.0131  0.6717
 5999TIP3    H239413   3.458   2.314   0.686  0.7896  1.0749 -0.7074
 6000TIP3   OH239414   0.655   0.690   3.493 -0.4158  0.1682  0.5578
 6000TIP3    H139415   0.592   0.752   3.530 -1.7695 -0.4724 -0.5577
 6000TIP3    H239416   0.621   0.671   3.406  1.1476 -0.5052  0.0611
 6001TIP3   OH239417   2.480   6.479  11.556  0.2223  0.0940 -0.0660
 6001TIP3    H139418   2.502   6.570  11.572  0.6638 -0.2190  1.2352
 6001TIP3    H239419   2.386   6.473  11.573 -0.3351  0.7802 -2.5478
 6002TIP3   OH239420   2.389   4.682   0.124  0.2879  0.1134 -0.1323
 6002TIP3    H139421   2.445   4.746   0.080 -0.8069  1.2234  0.0244
 6002TIP3    H239422   2.423   4.678   0.213 -0.1500  1.1745  0.1077
 6003TIP3   OH239423   5.278   6.209   5.306  0.0006 -0.5352 -0.4834
 6003TIP3    H139424   5.357   6.257   5.332  0.3862 -0.9519 -0.8745
 6003TIP3    H239425   5.219   6.217   5.381  0.6158 -0.6591  0.0215
 6004TIP3   OH239426   1.879   2.608   0.545 -0.0506  0.0675  0.6778
 6004TIP3    H139427   1.815   2.674   0.520  1.1380  0.1602 -2.6988
 6004TIP3    H239428   1.955   2.658   0.575  0.1657  0.2196 -0.0826
 6005TIP3   OH239429   5.380   1.212   0.529 -0.5198 -0.5086 -0.8557
 6005TIP3    H139430   5.379   1.307   0.519 -2.6376 -0.1685  1.5971
 6005TIP3    H239431   5.457   1.194   0.583 -0.3902 -0.1424 -0.9182
 6006TIP3   OH239432   6.294   1.499   5.212  0.3961  0.2907  0.6745
 6006TIP3    H139433   6.262   1.500   5.302 -1.2031 -0.7702  0.1691
 6006TIP3    H239434   6.265   1.415   5.177 -0.3206  1.2727 -1.2660
 6007TIP3   OH239435   5.664   0.309  11.532  0.3477  0.1584  0.0058
 6007TIP3    H139436   5.705   0.223  11.525  0.2540 -0.0805  1.9492
 6007TIP3    H239437   5.625   0.324  11.446  1.9547 -0.9057 -0.9610
 6008TIP3   OH239438   3.838   0.635  16.116  0.1892 -0.4726  0.0430
 6008TIP3    H139439   3.751   0.649  16.079 -0.3426 -1.0001  1.0613
 6008TIP3    H239440   3.854   0.713  16.169  0.1966 -0.5294  0.1232
 6009TIP3   OH239441   2.698   5.074  14.572  0.2628 -0.6212 -0.0554
 6009TIP3    H139442   2.688   5.103  14.663 -0.2602 -2.2212  0.4317
 6009TIP3    H239443   2.639   5.000  14.564  0.6119 -0.7648 -1.6001
 6010TIP3   OH239444   4.197   2.341  14.469  0.3934  0.5033 -0.8731
 6010TIP3    H139445   4.102   2.336  14.470  0.3005  1.7507  0.1715
 6010TIP3    H239446   4.226   2.266  14.520 -0.1451  1.2051  0.5199
 6011TIP3   OH239447   3.184   0.041   1.448  0.1545 -0.2618 -0.4239
 6011TIP3    H139448   3.164   0.129   1.481 -1.7541 -0.5248 -0.7805
 6011TIP3    H239449   3.185   0.051   1.353  2.8285 -0.0905 -0.4623
 6012TIP3   OH239450   5.678   5.524   0.566 -0.0412 -0.3520  0.3507
 6012TIP3    H139451   5.666   5.455   0.631  4.0223 -0.7351  0.9142
 6012TIP3    H239452   5.716   5.597   0.615 -1.5262  1.2779 -0.7944
 6013TIP3   OH239453   5.046   1.041   1.508 -0.1712 -0.1485  0.0112
 6013TIP3    H139454   5.085   1.008   1.427  1.2385  0.3875  0.4481
 6013TIP3    H239455   5.109   1.020   1.576  0.1632  2.1778  0.5135
 6014TIP3   OH239456   1.062   0.133   4.878 -0.2194  0.6446 -0.1744
 6014TIP3    H139457   1.106   0.192   4.940  0.4232  0.0526 -0.0590
 6014TIP3    H239458   0.988   0.184   4.846 -0.1914  1.1972  0.5949
 6015TIP3   OH239459   0.004   5.594  11.271  0.2115  0.3129  0.1433
 6015TIP3    H139460  -0.044   5.514  11.291 -0.7711  1.0739  0.8642
 6015TIP3    H239461   0.018   5.589  11.176  1.6012 -1.4789  0.3777
 6016TIP3   OH239462   1.806   5.903   0.201  0.1676 -0.0223 -0.5878
 6016TIP3    H139463   1.870   5.957   0.246 -0.0369  1.4019 -1.9464
 6016TIP3    H239464   1.855   5.861   0.130 -0.1640  0.2232 -0.9671
 6017TIP3   OH239465   3.514   5.233   2.276  0.0351 -0.1841 -0.2504
 6017TIP3    H139466   3.511   5.231   2.371  0.7481 -0.4756 -0.2265
 6017TIP3    H239467   3.605   5.254   2.255 -0.2929  0.6637 -0.8662
 6018TIP3   OH239468   0.473   6.041  11.746 -0.0069  0.5478 -0.0666
 6018TIP3    H139469   0.463   6.135  11.733  0.8966  0.5229 -1.1894
 6018TIP3    H239470   0.559   6.021  11.708  2.0050 -0.0011  4.1430
 6019TIP3   OH239471   3.650   5.026  13.197  0.3530  0.2390  0.2287
 6019TIP3    H139472   3.656   5.031  13.102 -0.7713 -0.3802  0.1020
 6019TIP3    H239473   3.697   4.946  13.220 -0.5549 -0.3627  0.0404
 6020TIP3   OH239474   5.312   3.038  14.776  0.1861  0.1761  0.0623
 6020TIP3    H139475   5.384   3.064  14.719  0.9640  2.0193  1.7612
 6020TIP3    H239476   5.244   3.104  14.759 -0.3475 -0.4209 -0.1415
 6021TIP3   OH239477   1.258   6.376  13.486 -0.1648 -0.1270 -0.8391
 6021TIP3    H139478   1.338   6.404  13.532  0.8427 -1.3400 -1.7766
 6021TIP3    H239479   1.242   6.445  13.423 -0.2002  0.4092 -0.2564
 6022TIP3   OH239480   6.128   5.702   3.322 -0.0349 -0.1324 -0.4603
 6022TIP3    H139481   6.075   5.769   3.365  0.7327  0.0056  0.3062
 6022TIP3    H239482   6.073   5.669   3.251 -0.1062  1.9439 -1.4574
 6023TIP3   OH239483   5.681   1.393   4.120 -0.1835  0.0785 -0.3282
 6023TIP3    H139484   5.597   1.426   4.087  0.7105  1.6810 -1.1678
 6023TIP3    H239485   5.728   1.365   4.042  0.7194  0.8512 -0.0857
 6024TIP3   OH239486   6.547   1.190   1.331 -0.4015  0.2295  0.0680
 6024TIP3    H139487   6.471   1.135   1.344 -0.8371  0.4653 -1.3072
 6024TIP3    H239488   6.590   1.155   1.252  0.4497  0.6074  0.3428
 6025TIP3   OH239489   0.752   5.210  13.402  0.0470 -0.1970 -0.3601
 6025TIP3    H139490   0.765   5.246  13.490 -1.2672 -2.3361  0.8045
 6025TIP3    H239491   0.696   5.274  13.358  1.2478  1.2228  0.1076
 6026TIP3   OH239492   5.106   4.733  16.675 -0.1933  0.7925 -0.7403
 6026TIP3    H139493   5.047   4.658  16.678  1.0712 -0.2137  0.0818
 6026TIP3    H239494   5.109   4.757  16.582  0.4114 -1.0276 -1.2346
 6027TIP3   OH239495   4.709   2.687   4.937  0.3706 -0.0843  0.5177
 6027TIP3    H139496   4.682   2.775   4.909 -1.9050 -0.5917  0.9329
 6027TIP3    H239497   4.706   2.634   4.857 -0.8555 -0.3383  0.7115
 6028TIP3   OH239498   6.059   4.648   2.496  0.1091  0.1050 -0.2197
 6028TIP3    H139499   6.121   4.721   2.504 -0.0279  0.3223 -1.0103
 6028TIP3    H239500   6.064   4.623   2.404  1.1788 -1.8072  0.2946
 6029TIP3   OH239501   3.544   5.056  13.863 -0.1980  0.0664 -0.3547
 6029TIP3    H139502   3.504   5.000  13.797 -1.3567 -0.5529  0.8160
 6029TIP3    H239503   3.636   5.063  13.837 -0.1139 -2.0179 -0.7828
 6030TIP3   OH239504   4.159   4.462   1.494  0.2717 -0.0376 -0.7323
 6030TIP3    H139505   4.112   4.457   1.577  2.0076  3.3202  0.6344
 6030TIP3    H239506   4.118   4.535   1.447  0.8421 -0.3650 -1.7761
 6031TIP3   OH239507   2.879   1.643  12.207  0.1914  0.1753  0.3445
 6031TIP3    H139508   2.901   1.550  12.205  0.5088  0.2482  0.4309
 6031TIP3    H239509   2.847   1.662  12.119  5.6317  1.3159 -1.7698
 6032TIP3   OH239510   6.805   6.052   1.081  0.6765 -0.1830 -0.3655
 6032TIP3    H139511   6.786   5.959   1.070  0.7016 -0.1183 -1.0113
 6032TIP3    H239512   6.901   6.057   1.078  0.6503 -0.0452 -1.1693
 6033TIP3   OH239513   1.839   2.270  12.654 -0.6099 -0.3943  0.2534
 6033TIP3    H139514   1.883   2.330  12.714 -0.7391 -1.7611  1.7965
 6033TIP3    H239515   1.757   2.314  12.631  0.0566  0.7309 -0.0026
 6034TIP3   OH239516   3.530   5.567  13.738 -0.4199 -0.0173  0.3768
 6034TIP3    H139517   3.613   5.605  13.768 -0.5265  0.4349  0.0963
 6034TIP3    H239518   3.556   5.487  13.692 -0.0631  0.6008 -0.5166
 6035TIP3   OH239519   5.665   4.114   5.473 -1.0699 -0.1072  0.7424
 6035TIP3    H139520   5.700   4.185   5.420 -0.2816 -0.7129  0.4321
 6035TIP3    H239521   5.581   4.094   5.432 -0.9402  0.1239  0.3515
 6036TIP3   OH239522   6.277   2.755  15.466 -0.1387  0.2998 -0.3165
 6036TIP3    H139523   6.354   2.734  15.414 -0.9602 -1.0655 -1.0590
 6036TIP3    H239524   6.204   2.714  15.418 -0.9035 -1.4121  2.0801
 6037TIP3   OH239525   5.296   3.415  12.796  0.0066 -0.2948 -0.1036
 6037TIP3    H139526   5.344   3.379  12.722  1.9137  1.9813 -0.1225
 6037TIP3    H239527   5.266   3.501  12.765  1.2686  0.9167  1.8449
 6038TIP3   OH239528   0.278   2.340  14.292 -0.1071  0.0762 -0.2075
 6038TIP3    H139529   0.361   2.354  14.338 -0.8234  0.5568  0.9643
 6038TIP3    H239530   0.266   2.245  14.292  0.8539 -0.0729 -1.1719
 6039TIP3   OH239531   1.080   1.892  14.437  0.3448  0.2886 -0.6252
 6039TIP3    H139532   1.082   1.908  14.343 -0.0262 -0.6362 -0.7944
 6039TIP3    H239533   1.130   1.811  14.449  1.9581  1.3389  0.1915
 6040TIP3   OH239534   3.889   2.781   3.296  0.0036 -0.0388 -0.7572
 6040TIP3    H139535   3.970   2.817   3.332  0.2310 -0.3512 -0.9554
 6040TIP3    H239536   3.824   2.793   3.365  0.2368  0.1427 -0.5700
 6041TIP3   OH239537   6.028   2.560  15.986 -0.4513 -0.2127 -0.2968
 6041TIP3    H139538   6.090   2.630  16.007 -0.2561 -0.3528 -0.4037
 6041TIP3    H239539   6.039   2.497  16.057 -0.2461 -0.3845 -0.4777
 6042TIP3   OH239540   0.363   5.050   2.838  0.4498 -0.1798 -0.1139
 6042TIP3    H139541   0.415   5.123   2.805 -0.0952 -0.1335 -0.8989
 6042TIP3    H239542   0.273   5.071   2.814  0.0359 -0.2269  1.2847
 6043TIP3   OH239543   1.142   6.635   5.680 -0.7489  0.1643  0.6796
 6043TIP3    H139544   1.180   6.697   5.742  0.4568  2.3167 -2.0205
 6043TIP3    H239545   1.190   6.649   5.598 -4.6925  0.2488 -1.9034
 6044TIP3   OH239546   0.678   3.713   0.874  0.1669  0.0746  0.6129
 6044TIP3    H139547   0.758   3.668   0.903  0.3763 -0.5901 -0.8747
 6044TIP3    H239548   0.642   3.752   0.953  0.9404 -1.2391  1.6573
 6045TIP3   OH239549   6.816   0.447  14.236  0.3046 -0.1606 -0.3405
 6045TIP3    H139550   6.744   0.384  14.233 -0.0202  0.2310 -1.2219
 6045TIP3    H239551   6.776   0.527  14.270  0.8608 -0.5876  1.4122
 6046TIP3   OH239552   1.240   2.456   4.746 -0.3458 -0.6619 -0.4507
 6046TIP3    H139553   1.225   2.520   4.816 -0.9740 -1.9142  0.6149
 6046TIP3    H239554   1.182   2.484   4.675 -0.7916 -0.1789  0.0937
 6047TIP3   OH239555   1.096   6.221   3.071  0.0720  0.1703  0.2823
 6047TIP3    H139556   1.005   6.191   3.062 -0.8138  1.7749  2.6433
 6047TIP3    H239557   1.141   6.149   3.114 -0.1616 -0.4855 -0.5421
 6048TIP3   OH239558   5.319   0.710   1.155 -0.2184  0.4406 -0.5910
 6048TIP3    H139559   5.401   0.732   1.197 -1.1159  2.9980 -0.0416
 6048TIP3    H239560   5.345   0.665   1.074  1.5688 -2.4750  1.4064
 6049TIP3   OH239561   6.591   2.237   5.673  0.0340  0.3091  0.0542
 6049TIP3    H139562   6.560   2.148   5.658  0.5648  0.2634 -0.8608
 6049TIP3    H239563   6.595   2.246   5.768 -0.8570 -0.3440  0.1641
 6050TIP3   OH239564   3.605   1.174  15.959 -0.0650 -0.1746 -0.2912
 6050TIP3    H139565   3.674   1.129  16.009  0.5318 -0.8073 -1.6468
 6050TIP3    H239566   3.626   1.157  15.868 -1.5274  0.3880 -0.7622
 6051TIP3   OH239567   5.209   4.769  12.280 -0.5189 -0.2010 -0.6094
 6051TIP3    H139568   5.115   4.787  12.287 -0.3603  0.6765 -0.6917
 6051TIP3    H239569   5.242   4.783  12.369 -0.1151  1.6230 -1.0064
 6052TIP3   OH239570   1.294   3.760  16.513  0.0636 -0.3342  0.2451
 6052TIP3    H139571   1.324   3.834  16.461  0.2892 -0.3798  0.3126
 6052TIP3    H239572   1.292   3.686  16.452 -0.0241 -0.3063  0.2134
 6053TIP3   OH239573   4.930   3.527  16.924 -0.1199 -0.0290  0.2358
 6053TIP3    H139574   4.989   3.505  16.997  0.2191 -1.4616 -0.4350
 6053TIP3    H239575   4.989   3.543  16.850 -0.5082  0.2849 -0.0044
 6054TIP3   OH239576   1.760   1.601   0.633 -0.0046  0.5011 -0.7724
 6054TIP3    H139577   1.750   1.694   0.612 -2.4407  0.0640 -1.8958
 6054TIP3    H239578   1.812   1.566   0.561  1.2811  1.0285 -0.1318
 6055TIP3   OH239579   5.101   6.231   0.441  0.2474  0.0080  0.0463
 6055TIP3    H139580   5.032   6.297   0.437  1.5559  1.4972  1.0704
 6055TIP3    H239581   5.137   6.229   0.352 -0.0921  0.3543 -0.0999
 6056TIP3   OH239582   0.309   0.565   1.066 -0.2705  0.6747 -0.0666
 6056TIP3    H139583   0.281   0.571   1.158  1.0347  1.4768  0.3090
 6056TIP3    H239584   0.254   0.495   1.029 -1.4137  0.9163  1.0856
 6057TIP3   OH239585   6.681   0.498  16.013 -0.1132 -0.1167  0.2220
 6057TIP3    H139586   6.586   0.492  16.009 -0.3399  0.9175  2.4682
 6057TIP3    H239587   6.698   0.581  16.057  1.7405 -1.2420  1.7953
 6058TIP3   OH239588   3.988   3.211   3.911 -0.0477  0.2864 -0.2610
 6058TIP3    H139589   3.989   3.116   3.901  2.6089  0.3310 -1.5583
 6058TIP3    H239590   3.904   3.238   3.875 -1.8394 -1.6355  2.1260
 6059TIP3   OH239591   4.997   4.516  16.195  0.4090 -0.0444 -0.0566
 6059TIP3    H139592   4.936   4.585  16.220 -0.2437 -0.3767 -0.7047
 6059TIP3    H239593   5.048   4.553  16.123  0.5784  0.0293  0.1002
 6060TIP3   OH239594   5.145   1.859   5.341  0.1076  0.4400  0.3611
 6060TIP3    H139595   5.094   1.926   5.385 -0.0807  1.0016 -0.6716
 6060TIP3    H239596   5.228   1.902   5.319  0.7707 -0.2518  1.3849
 6061TIP3   OH239597   2.617   0.727  15.328 -0.2869 -0.0698  0.6471
 6061TIP3    H139598   2.613   0.785  15.404 -0.9413 -1.0367  1.3684
 6061TIP3    H239599   2.705   0.741  15.292 -0.4576  1.4220  0.7363
 6062TIP3   OH239600   3.113   5.673   5.170 -0.3561 -0.2479 -0.1466
 6062TIP3    H139601   3.097   5.657   5.077 -0.3790  0.9730 -0.3644
 6062TIP3    H239602   3.069   5.601   5.214 -2.1681  0.2826 -0.9740
 6063TIP3   OH239603   0.968   0.211   1.127  0.1607  0.6522  0.1144
 6063TIP3    H139604   0.949   0.305   1.128 -2.8966  0.1204  1.7975
 6063TIP3    H239605   1.004   0.193   1.214 -0.1913  0.1188  0.1568
 6064TIP3   OH239606   6.473   0.292   4.494 -0.5125 -0.0544 -0.1705
 6064TIP3    H139607   6.447   0.293   4.586  2.3118 -0.9389  0.7545
 6064TIP3    H239608   6.418   0.359   4.453 -0.7108  1.5977  2.5228
 6065TIP3   OH239609   3.556   4.302  14.106  0.2321 -0.2975 -0.4093
 6065TIP3    H139610   3.589   4.356  14.035 -1.4733  0.9749 -0.2816
 6065TIP3    H239611   3.629   4.243  14.126  3.1293  3.3038  0.9144
 6066TIP3   OH239612   2.597   0.589  13.953  0.4225  0.2588 -1.3242
 6066TIP3    H139613   2.552   0.598  14.037  1.4075 -0.1537 -0.7407
 6066TIP3    H239614   2.656   0.663  13.948 -0.3950  0.8876 -2.1664
 6067TIP3   OH239615   0.868   6.475  11.949 -0.0281 -0.3614  0.0391
 6067TIP3    H139616   0.783   6.487  11.991 -0.0765 -1.1953  0.2136
 6067TIP3    H239617   0.894   6.562  11.920 -1.4784 -0.2573 -1.0663
 6068TIP3   OH239618   6.676   5.881   5.018  0.1250  0.9837 -0.4813
 6068TIP3    H139619   6.728   5.813   4.976 -0.6666  0.4859 -0.6564
 6068TIP3    H239620   6.612   5.834   5.071 -0.1657  1.5932 -0.2774
 6069TIP3   OH239621   6.471   1.663   5.553 -0.5702 -0.4009 -0.5601
 6069TIP3    H139622   6.520   1.736   5.513 -1.9645  0.1889 -1.2678
 6069TIP3    H239623   6.383   1.698   5.564 -0.7697 -1.3263  1.0039
 6070TIP3   OH239624   4.628   6.798  13.327 -0.2012 -0.8995 -0.2706
 6070TIP3    H139625   4.598   6.851  13.401 -2.6830 -0.7095 -1.3340
 6070TIP3    H239626   4.599   6.709  13.348 -1.7480 -0.6862 -1.3937
 6071TIP3   OH239627   4.499   3.867  16.046 -1.0091 -0.6247  0.2978
 6071TIP3    H139628   4.585   3.903  16.063 -0.8794 -0.1376 -1.2006
 6071TIP3    H239629   4.497   3.853  15.951 -2.0807 -1.9189  0.4748
 6072TIP3   OH239630   1.760   5.322  14.870 -0.1640  0.0996  0.4369
 6072TIP3    H139631   1.735   5.231  14.854 -1.7494  0.6683 -0.5717
 6072TIP3    H239632   1.792   5.354  14.786  2.5058 -0.0867  1.2866
 6073TIP3   OH239633   2.218   3.183   0.917  0.2152 -0.1357  0.4328
 6073TIP3    H139634   2.182   3.104   0.958 -1.2839 -0.1531 -0.8369
 6073TIP3    H239635   2.243   3.239   0.991  1.0211 -1.6470  1.3450
 6074TIP3   OH239636   2.251   0.696   0.613 -0.1887 -0.1196  0.0231
 6074TIP3    H139637   2.288   0.652   0.537  0.9245  1.4833 -0.4309
 6074TIP3    H239638   2.258   0.789   0.592  0.2899  0.3785  2.1380
 6075TIP3   OH239639   1.495   1.220   6.187 -0.8672 -0.1829 -0.3675
 6075TIP3    H139640   1.444   1.278   6.243 -0.7474 -0.9305  0.5302
 6075TIP3    H239641   1.549   1.280   6.134 -2.7215  0.6399 -1.4534
 6076TIP3   OH239642   2.472   3.860  16.776 -0.5208 -0.0656  0.1954
 6076TIP3    H139643   2.418   3.905  16.712  0.1735 -1.1565 -1.2219
 6076TIP3    H239644   2.438   3.771  16.778 -0.3947 -0.0958  1.1897
 6077TIP3   OH239645   6.675   4.257  14.100  0.1617 -0.5320  0.3688
 6077TIP3    H139646   6.596   4.216  14.134  0.2497 -1.6066 -0.6757
 6077TIP3    H239647   6.703   4.201  14.028 -0.0999  1.6985 -1.6032
 6078TIP3   OH239648   1.393   3.834   4.439  0.2002  0.4033  0.1827
 6078TIP3    H139649   1.470   3.797   4.397  0.1274  1.1536 -0.6568
 6078TIP3    H239650   1.389   3.924   4.405 -1.7040  0.0241 -0.7460
 6079TIP3   OH239651   1.656   1.526  15.904 -0.2162  0.3044 -0.3066
 6079TIP3    H139652   1.741   1.567  15.919 -0.4270  0.2635  1.1709
 6079TIP3    H239653   1.651   1.456  15.970 -0.6102 -0.9416 -1.5997
 6080TIP3   OH239654   3.265   4.379   4.882 -0.3898  0.3778 -0.3540
 6080TIP3    H139655   3.317   4.433   4.942 -0.3377 -2.2310  2.1969
 6080TIP3    H239656   3.174   4.406   4.898 -0.3585 -0.1331  0.8382
 6081TIP3   OH239657   5.263   3.610  12.556  0.4345 -0.2262  0.3286
 6081TIP3    H139658   5.316   3.688  12.576 -0.1469  0.3595 -0.3540
 6081TIP3    H239659   5.324   3.537  12.565  0.4719  0.0530  3.1615
 6082TIP3   OH239660   4.763   5.857   2.462 -0.8841  0.7422 -0.2530
 6082TIP3    H139661   4.698   5.816   2.518  1.1236 -0.5422  1.2695
 6082TIP3    H239662   4.811   5.916   2.519  0.8641 -0.1976 -0.6658
 6083TIP3   OH239663   0.451   3.821   6.190  0.2523 -0.1078  0.2083
 6083TIP3    H139664   0.366   3.851   6.221  0.3336 -0.5815  0.9103
 6083TIP3    H239665   0.511   3.893   6.208  0.2992 -0.3781  1.1620
 6084TIP3   OH239666   0.913   6.667   4.512 -0.1804 -0.8096 -0.0004
 6084TIP3    H139667   0.977   6.613   4.465 -0.2542 -1.0068  0.1250
 6084TIP3    H239668   0.966   6.737   4.551 -0.1596 -0.4468 -0.6511
 6085TIP3   OH239669   1.216   0.886   4.552 -0.4958 -0.3887 -0.3323
 6085TIP3    H139670   1.200   0.953   4.619 -0.1653  0.3434 -0.9719
 6085TIP3    H239671   1.255   0.934   4.479 -0.0005 -1.3235 -0.7029
 6086TIP3   OH239672   5.213   1.518  16.998  0.2003 -0.9028  0.7854
 6086TIP3    H139673   5.223   1.450  16.932 -2.0798 -1.1475  0.5838
 6086TIP3    H239674   5.130   1.497  17.042  0.2592  0.8070  1.8333
 6087TIP3   OH239675   1.349   5.677  11.794 -0.2862 -0.3444  0.6551
 6087TIP3    H139676   1.434   5.697  11.834 -0.1187 -1.6685  1.0104
 6087TIP3    H239677   1.300   5.759  11.799  0.1684 -0.1527  2.4897
 6088TIP3   OH239678   6.719   2.804  12.543  0.5808 -0.1449  0.1792
 6088TIP3    H139679   6.702   2.717  12.577 -1.5168 -0.7546 -2.1133
 6088TIP3    H239680   6.711   2.795  12.448  1.6569  2.2797 -0.2241
 6089TIP3   OH239681   5.925   3.990   3.642 -0.5632  0.3141 -0.3468
 6089TIP3    H139682   6.002   4.032   3.681  0.4580  0.3858 -2.3333
 6089TIP3    H239683   5.854   4.053   3.655 -0.8066 -0.4985  3.1224
 6090TIP3   OH239684   0.240   5.632  13.352  0.0140 -0.0630 -0.0513
 6090TIP3    H139685   0.276   5.720  13.359 -0.8089  0.3290 -0.6444
 6090TIP3    H239686   0.229   5.618  13.258 -0.6143 -0.4878  0.0787
 6091TIP3   OH239687   4.989   6.338  13.193  0.0126 -0.4076  0.0521
 6091TIP3    H139688   5.069   6.367  13.148  0.8355  1.4486  2.5184
 6091TIP3    H239689   5.020   6.285  13.266 -0.8178  1.3420  1.7823
 6092TIP3   OH239690   3.932   0.190  14.127  0.4169 -0.5231 -0.3210
 6092TIP3    H139691   3.845   0.214  14.094  0.8054  0.0610 -0.9440
 6092TIP3    H239692   3.985   0.269  14.113  1.3946 -1.3151 -1.2338
 6093TIP3   OH239693   3.019   5.462   6.580  0.2853 -0.2666  0.2971
 6093TIP3    H139694   2.930   5.431   6.565  0.5870 -0.9181 -0.1693
 6093TIP3    H239695   3.012   5.557   6.575 -0.5959 -0.2503  1.4516
 6094TIP3   OH239696   2.877   0.788  15.212 -0.3698  0.6006 -0.7576
 6094TIP3    H139697   2.933   0.850  15.257  0.0460 -0.9125  0.9240
 6094TIP3    H239698   2.851   0.832  15.131 -0.6363  3.1827  0.6509
 6095TIP3   OH239699   0.164   5.130   6.045  0.2250 -0.5713 -0.0269
 6095TIP3    H139700   0.109   5.068   6.094 -0.4935 -0.9485 -1.2739
 6095TIP3    H239701   0.121   5.214   6.057  1.1457 -0.2728  1.5841
 6096TIP3   OH239702   0.519   5.544   3.231 -0.4103  0.3939 -0.0238
 6096TIP3    H139703   0.461   5.584   3.165  1.7933  1.4475 -1.4246
 6096TIP3    H239704   0.514   5.603   3.306 -1.5178  0.1725  0.1078
 6097TIP3   OH239705   1.869   5.318   2.034 -0.1523  0.0755 -0.6152
 6097TIP3    H139706   1.809   5.311   2.108 -0.1654 -2.1990 -0.7744
 6097TIP3    H239707   1.917   5.235   2.034  1.4521  0.9464 -1.8133
 6098TIP3   OH239708   6.173   3.506   5.353 -0.1641  0.2433  0.1058
 6098TIP3    H139709   6.266   3.528   5.363 -0.3460  0.8753  0.4430
 6098TIP3    H239710   6.154   3.446   5.425  0.2088 -0.6581 -0.5221
 6099TIP3   OH239711   0.607   3.375   5.095 -0.2714 -0.4497 -0.0911
 6099TIP3    H139712   0.515   3.398   5.079  0.0027  0.8802  0.2039
 6099TIP3    H239713   0.656   3.424   5.031  0.2929 -0.6593  0.1731
 6100TIP3   OH239714   3.341   2.238   1.680 -0.4356  0.0557 -0.0420
 6100TIP3    H139715   3.389   2.320   1.695  0.3151 -0.5447  0.9802
 6100TIP3    H239716   3.330   2.201   1.768 -1.0591 -0.7738 -0.4594
 6101TIP3   OH239717   4.199   6.559  11.336 -0.2820  0.1212 -0.4657
 6101TIP3    H139718   4.123   6.584  11.388  1.2935 -0.1876  2.1563
 6101TIP3    H239719   4.235   6.482  11.380  0.8778 -0.5006 -2.3493
 6102TIP3   OH239720   5.844   1.747   6.041 -0.0290  0.1073  0.3223
 6102TIP3    H139721   5.922   1.803   6.044  0.3204 -0.3732  0.2742
 6102TIP3    H239722   5.791   1.784   5.971 -0.5139  1.3015  1.2702
 6103TIP3   OH239723   5.160   1.851   4.610 -0.4314 -0.4771  0.1305
 6103TIP3    H139724   5.254   1.840   4.599 -0.0836  0.6037  1.6283
 6103TIP3    H239725   5.145   1.833   4.703 -1.5101  0.4772  0.1612
 6104TIP3   OH239726   4.739   5.522   4.558  0.1546  0.1450  0.2544
 6104TIP3    H139727   4.750   5.516   4.652 -0.6031 -0.2280  0.3309
 6104TIP3    H239728   4.670   5.458   4.538  2.0668 -1.7290 -0.8764
 6105TIP3   OH239729   3.807   0.700  16.990 -0.4268 -0.6212 -0.4370
 6105TIP3    H139730   3.737   0.751  16.948  1.1389  1.8766 -0.2330
 6105TIP3    H239731   3.767   0.666  17.070 -1.0563  2.2166  0.5779
 6106TIP3   OH239732   5.006   6.393   6.700  0.4608 -0.4510  0.0367
 6106TIP3    H139733   4.963   6.478   6.693  0.5983 -0.5162 -2.9189
 6106TIP3    H239734   4.934   6.329   6.703  0.3661 -0.3153  1.8030
 6107TIP3   OH239735   6.087   2.497   2.671 -0.0109  0.0375  0.1117
 6107TIP3    H139736   6.137   2.579   2.671  0.1970 -0.0892  0.4785
 6107TIP3    H239737   6.098   2.462   2.583  1.6147 -0.6438  0.5632
 6108TIP3   OH239738   3.628   3.003  13.367  0.3593 -0.2714  0.1646
 6108TIP3    H139739   3.703   2.967  13.415  1.6262  2.9983  0.9215
 6108TIP3    H239740   3.665   3.075  13.315 -2.1676  1.2333  0.2614
 6109TIP3   OH239741   3.781   5.243   2.235  0.5661 -0.1575 -0.2728
 6109TIP3    H139742   3.816   5.253   2.146  1.2990 -1.2145 -0.1119
 6109TIP3    H239743   3.859   5.234   2.290  0.1521  1.3755  0.6124
 6110TIP3   OH239744   6.177   4.219   4.254 -0.6486 -0.5914 -0.2288
 6110TIP3    H139745   6.246   4.170   4.211  0.1546 -1.8177  2.2787
 6110TIP3    H239746   6.217   4.303   4.278 -0.4665 -0.7159 -0.0944
 6111TIP3   OH239747   5.650   3.459   2.059 -0.0566  0.5937 -0.4236
 6111TIP3    H139748   5.683   3.375   2.027  0.7965  1.5198 -2.1033
 6111TIP3    H239749   5.559   3.442   2.082 -0.8179 -0.1627 -3.5824
 6112TIP3   OH239750   3.147   5.473   1.512  0.3681  0.0724 -0.7521
 6112TIP3    H139751   3.240   5.473   1.534  0.7584  0.7771 -2.2936
 6112TIP3    H239752   3.129   5.383   1.485  0.2384 -0.4192  0.8524
 6113TIP3   OH239753   5.440   2.908   2.690 -0.2557  0.4258 -0.3846
 6113TIP3    H139754   5.500   2.867   2.752 -1.7366 -1.2206  0.0100
 6113TIP3    H239755   5.498   2.955   2.629  1.3633 -0.1646  0.6259
 6114TIP3   OH239756   3.969   1.649   3.789  0.4552  0.2247  0.5986
 6114TIP3    H139757   3.967   1.637   3.694 -2.3582 -0.4461  0.6345
 6114TIP3    H239758   3.975   1.561   3.825  1.0993  0.4461  1.0486
 6115TIP3   OH239759   2.482   0.319   0.176 -0.2626  0.4994  0.3400
 6115TIP3    H139760   2.433   0.270   0.110  0.8204 -0.1335 -0.0270
 6115TIP3    H239761   2.519   0.251   0.233  0.8178  0.8976  0.1420
 6116TIP3   OH239762   3.014   2.915  11.412 -0.3880 -0.7917  0.0993
 6116TIP3    H139763   3.088   2.856  11.401 -0.3762 -0.7622  0.0216
 6116TIP3    H239764   3.039   2.973  11.484  0.8384  1.0236 -1.6618
 6117TIP3   OH239765   2.694   2.609   4.936 -0.0280  0.0774  0.0861
 6117TIP3    H139766   2.773   2.585   4.986 -1.3706 -0.7691  1.9066
 6117TIP3    H239767   2.623   2.603   4.999 -1.4570  1.8403 -1.2609
 6118TIP3   OH239768   4.105   5.286   6.573  0.1247 -0.7979 -0.1106
 6118TIP3    H139769   4.171   5.323   6.516 -1.8253  2.0754 -0.7216
 6118TIP3    H239770   4.034   5.259   6.515 -0.4506 -1.1104  0.7048
 6119TIP3   OH239771   5.121   3.047  14.047  0.2292  0.5266 -0.4451
 6119TIP3    H139772   5.138   3.113  14.114  0.8270  1.0390 -1.0845
 6119TIP3    H239773   5.186   3.065  13.979  1.5728 -1.7923  0.1141
 6120TIP3   OH239774   6.056   5.457  16.170  0.0687  0.3597  0.6835
 6120TIP3    H139775   6.067   5.379  16.226  1.0362 -0.1283 -0.1355
 6120TIP3    H239776   6.078   5.530  16.227 -0.6093  0.0227  1.4019
 6121TIP3   OH239777   1.691   6.710  16.345  0.2781 -0.0702  0.5941
 6121TIP3    H139778   1.678   6.615  16.350  1.5333 -0.2075  1.5713
 6121TIP3    H239779   1.728   6.734  16.430  1.9613  0.9792 -0.3925
 6122TIP3   OH239780   3.268   4.000   1.004  0.4464  0.4428  0.9330
 6122TIP3    H139781   3.324   4.073   0.978  0.2495 -0.2997 -1.8351
 6122TIP3    H239782   3.305   3.924   0.959 -1.2904 -0.5301  1.0635
 6123TIP3   OH239783   2.695   0.008   3.656 -0.3359  0.1564 -0.0957
 6123TIP3    H139784   2.678   0.082   3.598 -0.1234  0.3922  0.1479
 6123TIP3    H239785   2.615  -0.046   3.649  0.2322 -0.5550 -1.7022
 6124TIP3   OH239786   4.273   4.447  12.665 -0.3256 -0.0349  0.6121
 6124TIP3    H139787   4.181   4.421  12.657  0.0111 -0.9311 -0.5827
 6124TIP3    H239788   4.278   4.491  12.750 -1.6058 -1.0654  1.2600
 6125TIP3   OH239789   5.832   2.807  13.827 -0.2453 -0.1000  0.0810
 6125TIP3    H139790   5.889   2.734  13.806 -1.1979 -0.3612 -1.8024
 6125TIP3    H239791   5.813   2.797  13.921 -0.7321 -2.5686 -0.2231
 6126TIP3   OH239792   0.719   1.728  16.708  0.4185 -0.4927  0.3531
 6126TIP3    H139793   0.719   1.701  16.616  0.1664  1.0995 -0.1427
 6126TIP3    H239794   0.644   1.787  16.715  0.7848 -0.1475  1.4444
 6127TIP3   OH239795   4.349   5.350   4.902  0.9604 -0.7439  0.2435
 6127TIP3    H139796   4.373   5.442   4.913  1.0322 -0.8303  0.8334
 6127TIP3    H239797   4.310   5.346   4.815  0.1214  0.0249  0.5707
 6128TIP3   OH239798   2.717   1.317  10.917 -0.4608  0.2100  0.1634
 6128TIP3    H139799   2.717   1.228  10.953  0.2318 -0.9273 -2.3843
 6128TIP3    H239800   2.764   1.309  10.834 -0.5600  2.9501 -0.2563
 6129TIP3   OH239801   1.695   0.687   2.678  1.0410 -0.1619  0.4833
 6129TIP3    H139802   1.636   0.749   2.635 -0.2927 -0.2607  2.0650
 6129TIP3    H239803   1.762   0.742   2.720  1.5053  0.0120 -0.4628
 6130TIP3   OH239804   3.480   3.662  11.676  0.2478  0.0984 -0.0572
 6130TIP3    H139805   3.435   3.729  11.728  0.3855 -0.2595  0.5439
 6130TIP3    H239806   3.568   3.658  11.715  0.8791  0.9235 -1.3298
 6131TIP3   OH239807   3.074   4.477  13.086 -0.0352  0.3268 -0.1155
 6131TIP3    H139808   3.140   4.413  13.111  0.8516  1.1772 -0.2302
 6131TIP3    H239809   3.087   4.491  12.993 -0.1302  0.7797 -0.0629
 6132TIP3   OH239810   1.531   5.002   5.699 -0.0471  0.4126  0.2179
 6132TIP3    H139811   1.532   4.960   5.785 -2.1319 -0.2529 -0.0241
 6132TIP3    H239812   1.573   4.939   5.641 -1.9716 -0.8499  0.1049
 6133TIP3   OH239813   3.922   1.343   6.516  0.2678  0.4949  0.7291
 6133TIP3    H139814   3.886   1.432   6.518  0.4162  0.5977 -0.3237
 6133TIP3    H239815   4.013   1.355   6.490  0.0967 -0.0102 -0.1262
 6134TIP3   OH239816   5.954   5.192   3.301 -0.4252 -0.7469 -0.2427
 6134TIP3    H139817   6.001   5.151   3.374 -1.1442 -2.1344 -0.5159
 6134TIP3    H239818   6.017   5.252   3.262  0.3291 -0.8056  0.8419
 6135TIP3   OH239819   1.902   6.531  16.755 -0.0877  0.4666 -0.0045
 6135TIP3    H139820   1.975   6.505  16.810 -0.6472 -2.3761 -0.4474
 6135TIP3    H239821   1.943   6.571  16.678  0.7800  2.3132  1.3668
 6136TIP3   OH239822   5.082   0.043   4.338 -0.2239  0.3359  0.5491
 6136TIP3    H139823   5.002   0.089   4.313  0.2612  0.2277 -1.3295
 6136TIP3    H239824   5.130   0.106   4.393 -1.0497  0.8254  0.7250
 6137TIP3   OH239825   4.421   3.831  11.755 -0.4635  0.3054  0.1479
 6137TIP3    H139826   4.403   3.793  11.841 -2.6562  2.9228  0.9892
 6137TIP3    H239827   4.336   3.832  11.711  0.3490  0.3263 -1.5153
 6138TIP3   OH239828   1.417   5.053  10.609  0.2312 -0.1178 -0.0605
 6138TIP3    H139829   1.411   4.975  10.664 -0.5240 -0.5606 -0.7391
 6138TIP3    H239830   1.491   5.103  10.645 -0.3269 -0.3060  1.4390
 6139TIP3   OH239831   2.771   5.937   2.763 -0.6817  0.0179 -0.5143
 6139TIP3    H139832   2.844   5.954   2.822 -0.4976 -0.1632 -0.6878
 6139TIP3    H239833   2.720   6.018   2.764 -1.6018 -0.5357  1.1843
 6140TIP3   OH239834   2.830   4.520  10.707 -0.1737 -0.3969  0.1507
 6140TIP3    H139835   2.891   4.586  10.739  0.3249 -0.3159 -0.9239
 6140TIP3    H239836   2.838   4.523  10.611  0.1031 -2.2184  0.0727
 6141TIP3   OH239837   4.101   1.844  15.820 -0.0737 -0.3703 -0.0218
 6141TIP3    H139838   4.072   1.899  15.747 -2.9759 -1.1243  0.4051
 6141TIP3    H239839   4.196   1.848  15.817 -0.1020  0.9107 -2.8481
 6142TIP3   OH239840   2.924   5.774  13.595 -0.3054 -0.2786  0.5937
 6142TIP3    H139841   2.950   5.692  13.637 -0.5045 -0.3716  0.5378
 6142TIP3    H239842   2.897   5.749  13.507  2.4700  0.2291 -0.4961
 6143TIP3   OH239843   3.155   4.651  14.136  0.3726  0.6021  0.2561
 6143TIP3    H139844   3.152   4.742  14.165 -0.4367  0.4564  0.6776
 6143TIP3    H239845   3.105   4.650  14.055  1.8069  0.8295 -0.6504
 6144TIP3   OH239846   3.681   6.522   2.016  0.0789  0.0258  0.8191
 6144TIP3    H139847   3.722   6.547   1.934 -1.8227 -0.6571 -0.4178
 6144TIP3    H239848   3.730   6.569   2.083  1.6574  0.6386 -0.6936
 6145TIP3   OH239849   1.805   1.531   1.392  0.1097 -0.4953  0.3377
 6145TIP3    H139850   1.900   1.518   1.381  0.1863  0.9954 -1.0601
 6145TIP3    H239851   1.793   1.625   1.385 -1.6342 -0.7721 -0.8583
 6146TIP3   OH239852   4.240   2.442   1.229  0.5119 -0.0006 -0.2636
 6146TIP3    H139853   4.192   2.443   1.146 -1.5558  1.8062  0.8605
 6146TIP3    H239854   4.327   2.409   1.206  0.3788  1.4830 -3.3525
 6147TIP3   OH239855   5.369   1.246  16.203  0.5833  0.3018 -0.2619
 6147TIP3    H139856   5.341   1.154  16.201  2.7229 -0.3957 -1.0388
 6147TIP3    H239857   5.396   1.265  16.114 -1.7732  2.4194 -0.6209
 6148TIP3   OH239858   0.273   0.063   2.334 -0.6923 -0.9276  0.0482
 6148TIP3    H139859   0.356   0.028   2.367 -0.4824 -0.0385  0.5028
 6148TIP3    H239860   0.277   0.157   2.354 -1.5723 -0.7789 -0.4232
 6149TIP3   OH239861   3.443   5.765  16.650 -0.5258 -0.5807 -0.1158
 6149TIP3    H139862   3.524   5.757  16.701 -1.3853  1.2204  1.6913
 6149TIP3    H239863   3.471   5.807  16.568  0.3224  0.7179  0.7919
 6150TIP3   OH239864   6.727   1.338   4.776  0.1505 -0.0084  0.0280
 6150TIP3    H139865   6.664   1.368   4.842  0.2376  0.2390  0.0012
 6150TIP3    H239866   6.674   1.295   4.709  0.1612 -1.3334  0.8348
 6151TIP3   OH239867   2.009   0.936  16.471  0.0550 -1.2051  0.2641
 6151TIP3    H139868   1.966   1.020  16.456 -0.4359 -1.1542  1.7687
 6151TIP3    H239869   2.042   0.910  16.385  0.4457  0.6377 -0.1871
 6152TIP3   OH239870   4.599   5.850   4.485 -0.1434 -0.4697 -0.0109
 6152TIP3    H139871   4.570   5.761   4.467 -0.3307 -0.7642  1.5974
 6152TIP3    H239872   4.693   5.842   4.501  0.0916 -0.1576 -1.1837
 6153TIP3   OH239873   2.770   2.505  13.030 -0.5671  0.5181  0.0472
 6153TIP3    H139874   2.860   2.531  13.013 -0.2139 -0.0722  0.9165
 6153TIP3    H239875   2.746   2.552  13.110 -1.2184  1.0883 -0.4771
 6154TIP3   OH239876   5.462   0.557   3.068 -0.0330  0.4436 -0.1483
 6154TIP3    H139877   5.455   0.479   3.122 -2.1553  0.6243 -0.0712
 6154TIP3    H239878   5.556   0.577   3.066  0.5941 -2.1138 -0.2325
 6155TIP3   OH239879   3.488   4.572   0.699 -0.1745 -0.7893 -0.1549
 6155TIP3    H139880   3.490   4.561   0.604 -0.4021 -1.2806 -0.1056
 6155TIP3    H239881   3.434   4.500   0.730 -1.3285  0.2235  0.2315
 6156TIP3   OH239882   1.599   0.284   4.993 -0.0009 -0.0149 -0.6604
 6156TIP3    H139883   1.681   0.291   5.041 -0.5911  0.6012  0.2871
 6156TIP3    H239884   1.579   0.374   4.968 -1.2573  0.1009  0.6311
 6157TIP3   OH239885   3.539   1.646   2.429  0.4873  0.3988  0.1570
 6157TIP3    H139886   3.572   1.736   2.434 -0.1748  0.8672 -2.3859
 6157TIP3    H239887   3.445   1.655   2.420  0.0877 -0.7337  2.4230
 6158TIP3   OH239888   1.506   1.666  15.166  0.4084 -0.0006 -0.3543
 6158TIP3    H139889   1.495   1.741  15.107 -1.9567 -0.2310 -0.2633
 6158TIP3    H239890   1.517   1.705  15.252 -0.1140  0.2658 -0.4052
 6159TIP3   OH239891   0.549   6.559   2.500 -0.1814 -0.0069  0.3852
 6159TIP3    H139892   0.534   6.611   2.579  0.1476 -0.6456  0.8680
 6159TIP3    H239893   0.530   6.469   2.526 -0.0606 -0.2233 -0.2627
 6160TIP3   OH239894   2.909   1.368  12.479  0.1892 -0.7103 -0.2047
 6160TIP3    H139895   2.902   1.273  12.481  1.2441 -0.8396 -1.2376
 6160TIP3    H239896   2.918   1.389  12.386  1.2934  0.2588  0.0927
 6161TIP3   OH239897   5.661   6.508  14.260 -0.9069 -0.3323  0.3858
 6161TIP3    H139898   5.713   6.471  14.189 -0.9758 -0.9069  0.6323
 6161TIP3    H239899   5.574   6.468  14.250 -0.9215 -0.4041  0.7832
 6162TIP3   OH239900   2.398   2.432   5.499  0.0195  0.1976  0.1490
 6162TIP3    H139901   2.304   2.452   5.497  0.1038  0.5689 -0.2297
 6162TIP3    H239902   2.411   2.387   5.582 -0.5931 -0.3462 -0.0436
 6163TIP3   OH239903   1.989   0.526   5.223  1.1255  0.1301 -0.6150
 6163TIP3    H139904   2.038   0.451   5.259  0.4330 -0.7431 -1.4304
 6163TIP3    H239905   2.037   0.550   5.144  0.4726 -0.4810 -1.2074
 6164TIP3   OH239906   6.063   2.501  11.473  0.0408  1.1959  0.5041
 6164TIP3    H139907   6.081   2.471  11.562 -1.2155 -0.0670  0.3713
 6164TIP3    H239908   6.150   2.512  11.433  0.5989  0.3375  1.4287
 6165TIP3   OH239909   5.766   3.566  14.592  0.3899 -0.2856  0.3042
 6165TIP3    H139910   5.688   3.607  14.630  0.8267 -0.0371  0.9466
 6165TIP3    H239911   5.732   3.494  14.540 -0.3833  0.6765 -0.5744
 6166TIP3   OH239912   1.376   6.608  16.257 -0.8196 -0.4786 -0.4832
 6166TIP3    H139913   1.372   6.687  16.311 -3.4708 -0.0397 -1.1882
 6166TIP3    H239914   1.384   6.537  16.320  2.6688  0.2611  0.1423
 6167TIP3   OH239915   2.282   5.716   0.949  0.3915 -0.1810  0.3222
 6167TIP3    H139916   2.187   5.710   0.959  0.4909 -0.3491  1.1957
 6167TIP3    H239917   2.312   5.760   1.029  1.1642 -1.1516  0.5871
 6168TIP3   OH239918   5.865   0.709   1.943 -0.1243  0.6165 -0.3933
 6168TIP3    H139919   5.800   0.695   1.875 -0.3385  1.3988 -0.3527
 6168TIP3    H239920   5.934   0.759   1.901 -0.0464  0.7078 -0.1598
 6169TIP3   OH239921   6.174   3.367   0.200  0.0977  0.2779 -0.1033
 6169TIP3    H139922   6.249   3.390   0.256 -0.3666  1.9320 -0.0967
 6169TIP3    H239923   6.133   3.293   0.244  1.8010 -0.7838 -0.1896
 6170TIP3   OH239924   0.280   5.443   5.200  0.3118  0.5864 -0.5786
 6170TIP3    H139925   0.255   5.358   5.164  0.0378  0.2112  0.4541
 6170TIP3    H239926   0.365   5.463   5.159 -0.7222  0.9763 -2.6709
 6171TIP3   OH239927   1.716   0.239   1.932 -0.0702 -0.1241 -0.1866
 6171TIP3    H139928   1.710   0.312   1.994 -1.5897  0.1853 -0.6549
 6171TIP3    H239929   1.717   0.281   1.846 -2.6569 -0.6348 -0.5443
 6172TIP3   OH239930   3.393   3.224  15.041  0.1604 -0.4685  0.0222
 6172TIP3    H139931   3.472   3.220  14.987 -0.3856 -0.2799 -0.8130
 6172TIP3    H239932   3.355   3.310  15.020 -1.1251 -1.2201 -0.8313
 6173TIP3   OH239933   3.716   2.661   3.634 -0.1641  0.4304  0.7059
 6173TIP3    H139934   3.668   2.704   3.564  1.9197  1.0587 -0.4094
 6173TIP3    H239935   3.664   2.677   3.712 -2.8500 -0.7434 -0.7011
 6174TIP3   OH239936   3.024   3.069   2.507 -0.2943  0.2294 -0.4805
 6174TIP3    H139937   2.986   3.099   2.590  0.9809 -2.1982  1.1015
 6174TIP3    H239938   3.101   3.125   2.495  0.0058  0.0383  0.4638
 6175TIP3   OH239939   3.893   4.655   0.960 -0.2108  0.0258 -0.5080
 6175TIP3    H139940   3.838   4.706   1.020 -0.7611 -2.4253  1.2329
 6175TIP3    H239941   3.834   4.591   0.920  0.8765 -0.9836 -0.5851
 6176TIP3   OH239942   1.338   2.190   4.368 -0.6372  0.2712 -0.0973
 6176TIP3    H139943   1.380   2.123   4.422  0.8364  1.3588  0.1736
 6176TIP3    H239944   1.367   2.273   4.407 -2.6450  1.0829 -0.2382
 6177TIP3   OH239945   5.270   0.706  13.149  0.0599 -0.2216 -0.7631
 6177TIP3    H139946   5.183   0.703  13.108 -0.4513 -0.4401  0.2827
 6177TIP3    H239947   5.274   0.794  13.189 -0.3860 -0.7884  0.6023
 6178TIP3   OH239948   6.534   5.321   1.267 -0.2996 -0.4635  0.1721
 6178TIP3    H139949   6.510   5.229   1.250 -0.5551 -0.1813 -1.1333
 6178TIP3    H239950   6.585   5.318   1.347  0.4226 -1.8737 -0.3015
 6179TIP3   OH239951   0.280   3.296   0.801 -0.6401 -0.3411 -0.0091
 6179TIP3    H139952   0.269   3.287   0.707  0.2386  2.5111 -0.4683
 6179TIP3    H239953   0.374   3.283   0.816 -0.6485  0.0237  0.3635
 6180TIP3   OH239954   4.956   1.431  17.047  0.4728 -0.5664  0.9127
 6180TIP3    H139955   4.937   1.471  17.132  0.1887  3.8519 -0.9830
 6180TIP3    H239956   4.871   1.403  17.014 -0.0697  1.5276  0.4304
 6181TIP3   OH239957   0.825   6.066   2.595  0.2250  0.2554  0.5892
 6181TIP3    H139958   0.859   6.142   2.643  0.6843  0.2766  0.2354
 6181TIP3    H239959   0.891   6.048   2.528  1.2417 -1.7830  2.0208
 6182TIP3   OH239960   3.590   4.667  11.088 -0.0282  0.2739  0.4336
 6182TIP3    H139961   3.563   4.727  11.157  3.2506  0.4147  1.7882
 6182TIP3    H239962   3.532   4.592  11.096 -2.2847  1.9551  0.6595
 6183TIP3   OH239963   1.484   2.029   2.453 -0.7082  0.0244 -0.6022
 6183TIP3    H139964   1.512   1.988   2.371 -2.1106 -2.2014 -0.0556
 6183TIP3    H239965   1.389   2.034   2.445 -1.0146 -1.4142  1.3299
 6184TIP3   OH239966   3.695   0.385   5.690 -0.1517 -0.2291 -0.3522
 6184TIP3    H139967   3.652   0.327   5.626 -0.0609  0.8871 -1.4565
 6184TIP3    H239968   3.758   0.328   5.735  0.5767 -0.8268 -2.0429
 6185TIP3   OH239969   6.290   4.056  12.864  0.7103  0.5257  0.0718
 6185TIP3    H139970   6.267   3.963  12.870  1.1537  0.4752  1.3652
 6185TIP3    H239971   6.369   4.057  12.810  1.2435  0.0280  0.8098
 6186TIP3   OH239972   4.734   6.707  11.495 -0.7994 -0.3351 -1.1568
 6186TIP3    H139973   4.667   6.691  11.561 -0.5246  0.0925 -0.7678
 6186TIP3    H239974   4.817   6.702  11.543 -0.6645  1.5053 -1.1365
 6187TIP3   OH239975   1.315   6.052  11.774 -1.0184  0.1110  0.0288
 6187TIP3    H139976   1.240   5.998  11.797 -0.2176 -0.6601  0.9487
 6187TIP3    H239977   1.277   6.136  11.749 -2.2724 -0.8085 -1.2840
 6188TIP3   OH239978   5.612   0.423   4.499  0.4138  0.3333  0.5966
 6188TIP3    H139979   5.687   0.476   4.526  0.6832  0.0842  0.3460
 6188TIP3    H239980   5.607   0.435   4.404 -0.0691  0.6128  0.6587
 6189TIP3   OH239981   2.081   0.009   1.960  0.1545  0.0586  0.1158
 6189TIP3    H139982   2.116   0.021   2.048 -0.5720 -0.9958  0.5649
 6189TIP3    H239983   2.147  -0.044   1.915 -0.2491 -0.8513  0.5680
 6190TIP3   OH239984   1.184   5.201  13.718  0.0567  1.0048  0.0106
 6190TIP3    H139985   1.150   5.206  13.807 -0.3968  2.8663 -0.2282
 6190TIP3    H239986   1.172   5.110  13.693 -0.7146  0.6650  1.4918
 6191TIP3   OH239987   2.097   2.422   5.560  0.1617  0.5002  0.5404
 6191TIP3    H139988   2.049   2.342   5.536  1.8734 -0.2468 -0.6755
 6191TIP3    H239989   2.142   2.399   5.641  1.0006  0.0266 -0.0363
 6192TIP3   OH239990   3.589   4.026   4.577 -0.4869 -0.0661 -0.0513
 6192TIP3    H139991   3.608   4.007   4.669 -0.1449 -0.0073 -0.1075
 6192TIP3    H239992   3.508   3.979   4.559 -0.8928  0.4254  0.4537
 6193TIP3   OH239993   3.659   6.179   1.866  0.0814  0.0447  0.2885
 6193TIP3    H139994   3.618   6.165   1.951  0.3479 -0.2888  0.3671
 6193TIP3    H239995   3.591   6.221   1.813  0.6267  2.3423  1.3122
 6194TIP3   OH239996   4.260   1.821   2.136  0.3877  0.0489 -0.2990
 6194TIP3    H139997   4.298   1.788   2.217  0.7530  0.3207 -0.3581
 6194TIP3    H239998   4.190   1.759   2.116  0.6908 -0.3682 -0.1011
 6195TIP3   OH239999   6.451   0.815   6.013  0.0022  0.1437 -0.2499
 6195TIP3    H140000   6.413   0.844   6.096  0.1106 -1.4758  0.4163
 6195TIP3    H240001   6.538   0.853   6.012  0.3338 -0.5480  0.8336
 6196TIP3   OH240002   0.734   5.100   5.362  0.8084  0.1259  0.1182
 6196TIP3    H140003   0.782   5.176   5.394 -0.1256  0.1124  1.6293
 6196TIP3    H240004   0.720   5.045   5.439 -2.6720  0.7163  0.0938
 6197TIP3   OH240005   2.914   6.254  15.626  0.3574 -0.0375 -0.4989
 6197TIP3    H140006   2.844   6.200  15.662  0.4841  1.0126  1.4810
 6197TIP3    H240007   2.958   6.291  15.703  2.0759  0.6075 -1.7173
 6198TIP3   OH240008   1.181   3.281  15.786  0.0448  0.9861 -0.4078
 6198TIP3    H140009   1.222   3.243  15.863  0.3359  1.7856 -0.1581
 6198TIP3    H240010   1.087   3.283  15.808 -0.1580 -0.7370 -0.9377
 6199TIP3   OH240011   1.912   4.095  15.709  0.0913  0.3255  0.3753
 6199TIP3    H140012   1.940   4.141  15.788  0.5349 -1.2427  1.1754
 6199TIP3    H240013   1.882   4.164  15.650  1.9195  1.7498  1.0119
 6200TIP3   OH240014   2.219   5.157  15.474 -0.0077  0.1293  0.2174
 6200TIP3    H140015   2.151   5.142  15.541 -0.6107 -1.0243 -0.6272
 6200TIP3    H240016   2.294   5.190  15.524 -1.4906  2.5345  1.0662
 6201TIP3   OH240017   3.579   0.416   3.194 -0.2704 -0.7483 -0.2805
 6201TIP3    H140018   3.607   0.482   3.258  0.9603 -1.1157 -0.4163
 6201TIP3    H240019   3.659   0.366   3.175 -1.3663 -2.9835  0.6221
 6202TIP3   OH240020   0.993   5.462  14.659  0.4688 -0.0352  0.2681
 6202TIP3    H140021   1.071   5.468  14.714  1.0211  2.6361 -0.6390
 6202TIP3    H240022   1.015   5.397  14.593  0.5945 -1.7313  1.9016
 6203TIP3   OH240023   1.501   2.184  13.524  0.3814 -0.0484  0.5369
 6203TIP3    H140024   1.531   2.099  13.557  1.9892  1.2061  2.4837
 6203TIP3    H240025   1.476   2.233  13.602 -3.0199  0.4631 -0.7046
 6204TIP3   OH240026   2.570   4.327   1.796  0.0514 -0.1487  0.4672
 6204TIP3    H140027   2.505   4.395   1.812 -1.1543 -1.4217  1.2132
 6204TIP3    H240028   2.649   4.374   1.770 -1.9603  1.3602 -3.6467
 6205TIP3   OH240029   5.434   1.181  10.833  0.0082 -0.6555 -0.2953
 6205TIP3    H140030   5.398   1.266  10.806  0.5815 -0.5906 -0.8715
 6205TIP3    H240031   5.525   1.200  10.856  0.0628 -1.0718 -0.1609
 6206TIP3   OH240032   3.558   1.532  14.742  0.1813  0.0872 -0.2248
 6206TIP3    H140033   3.477   1.573  14.773  0.7866  1.3117 -0.1997
 6206TIP3    H240034   3.582   1.472  14.812 -0.0246  0.6719  0.3593
 6207TIP3   OH240035   3.865   3.282   4.792 -0.6215  0.2270 -0.1529
 6207TIP3    H140036   3.932   3.337   4.753 -0.2974 -0.7941 -1.0735
 6207TIP3    H240037   3.913   3.210   4.832 -1.0081  0.7953  1.4084
 6208TIP3   OH240038   0.088   0.643  11.030 -0.3930  0.2463 -0.1240
 6208TIP3    H140039   0.067   0.601  10.946  0.9618 -0.2359 -0.2367
 6208TIP3    H240040   0.166   0.695  11.011 -0.1858  0.2772  0.7940
 6209TIP3   OH240041   4.084   3.933  14.037  0.3988 -0.3666 -0.5858
 6209TIP3    H140042   4.057   3.957  13.948  0.3144 -0.7679 -0.6712
 6209TIP3    H240043   4.020   3.976  14.093  0.1703 -0.4935 -0.7450
 6210TIP3   OH240044   3.403   3.336  11.893 -0.4423  0.1142 -0.2851
 6210TIP3    H140045   3.430   3.249  11.924 -3.8608 -1.1922 -0.4625
 6210TIP3    H240046   3.370   3.321  11.804 -0.2176  1.8072 -0.6881
 6211TIP3   OH240047   5.009   1.370   3.166 -0.3793 -0.5619 -0.4536
 6211TIP3    H140048   5.077   1.353   3.102  0.5889 -1.1021  0.6803
 6211TIP3    H240049   5.051   1.424   3.233 -1.7756  1.2760 -0.9909
 6212TIP3   OH240050   5.686   4.678  15.633  0.3706 -0.0308  0.3481
 6212TIP3    H140051   5.675   4.595  15.588  1.7257  0.8947 -1.8607
 6212TIP3    H240052   5.598   4.702  15.663 -0.2283 -1.6657 -0.0414
 6213TIP3   OH240053   0.051   1.906  16.370 -0.0318  0.0734  0.7295
 6213TIP3    H140054   0.007   1.991  16.369  0.4104  0.3433 -1.4880
 6213TIP3    H240055   0.115   1.913  16.441 -0.8801  1.1012  1.4202
 6214TIP3   OH240056   5.241   0.740   4.399  0.1403 -0.3051 -0.0144
 6214TIP3    H140057   5.300   0.808   4.369 -0.2461 -0.2368 -0.6297
 6214TIP3    H240058   5.262   0.663   4.346  0.0187 -0.4273  0.1102
 6215TIP3   OH240059   1.167   1.797  12.209 -0.1814 -0.3012  0.5613
 6215TIP3    H140060   1.099   1.753  12.260  1.1483  0.3597  3.0539
 6215TIP3    H240061   1.132   1.885  12.192 -0.1493 -0.1135  1.4367
 6216TIP3   OH240062   4.683   2.651  12.336 -0.3412  0.1366 -0.3079
 6216TIP3    H140063   4.672   2.610  12.422  0.0656  0.8067  0.0697
 6216TIP3    H240064   4.747   2.596  12.291 -0.6651 -0.2992 -0.2430
 6217TIP3   OH240065   3.982   6.061   4.649  0.2289  0.0225  0.1744
 6217TIP3    H140066   3.969   6.047   4.555  1.6005  0.0840 -0.0511
 6217TIP3    H240067   4.057   6.005   4.671  0.3297  0.5038  1.0990
 6218TIP3   OH240068   1.802   2.295  13.770 -0.3110 -0.0350  0.3157
 6218TIP3    H140069   1.866   2.247  13.719  1.6244 -0.0150  2.5579
 6218TIP3    H240070   1.831   2.386  13.767 -0.9385  0.1765  0.3745
 6219TIP3   OH240071   0.895   3.473  16.174 -0.3754  0.0856 -0.2372
 6219TIP3    H140072   0.886   3.547  16.114 -1.0422  2.0550  2.1223
 6219TIP3    H240073   0.809   3.464  16.214 -0.3258 -2.0665 -0.4880
 6220TIP3   OH240074   1.423   4.537  11.825  0.0284  0.7301  0.1347
 6220TIP3    H140075   1.494   4.565  11.883  0.5762 -0.6453  0.1468
 6220TIP3    H240076   1.360   4.609  11.829  0.8849  1.4604  1.0235
 6221TIP3   OH240077   3.378   6.229   2.665  0.0021  0.3382 -0.4800
 6221TIP3    H140078   3.371   6.321   2.690 -0.5108  0.2028 -0.1090
 6221TIP3    H240079   3.428   6.188   2.735 -0.5259  0.1663 -0.1963
 6222TIP3   OH240080   2.873   6.119  12.564 -0.2155  0.8732  0.1166
 6222TIP3    H140081   2.936   6.128  12.493  0.4047 -1.2913  0.3287
 6222TIP3    H240082   2.831   6.035  12.549  0.3556  0.0507  2.6077
 6223TIP3   OH240083   1.249   0.742   2.440 -0.3397 -0.0806  0.3358
 6223TIP3    H140084   1.215   0.724   2.353 -0.9127 -0.5300  0.6451
 6223TIP3    H240085   1.183   0.797   2.482 -0.2935 -0.2546  0.6461
 6224TIP3   OH240086   4.656   2.079   3.749 -0.2193  0.3198 -0.6275
 6224TIP3    H140087   4.686   1.998   3.709 -1.4770 -0.8929  0.7682
 6224TIP3    H240088   4.700   2.082   3.834 -0.4788  0.9055 -0.5058
 6225TIP3   OH240089   2.795   4.879  16.296 -0.0037 -0.0779 -0.2209
 6225TIP3    H140090   2.739   4.807  16.267 -0.6241 -0.2881  1.3885
 6225TIP3    H240091   2.819   4.856  16.386  0.5706  1.2705 -0.0012
 6226TIP3   OH240092   6.166   5.099  12.676  0.1437 -0.3660  0.0519
 6226TIP3    H140093   6.099   5.062  12.618 -0.2214  0.3169  0.0158
 6226TIP3    H240094   6.249   5.079  12.634 -0.1226  0.2260 -0.7857
 6227TIP3   OH240095   0.965   1.370   5.895 -0.1815 -0.1422 -0.0035
 6227TIP3    H140096   0.908   1.314   5.947 -0.3696 -0.5923 -0.6745
 6227TIP3    H240097   1.028   1.406   5.958 -0.7555 -0.2131  0.6199
 6228TIP3   OH240098   4.780   3.946  13.477  0.3306 -0.8592  0.4776
 6228TIP3    H140099   4.798   4.030  13.435  0.3257 -0.8192  0.5551
 6228TIP3    H240100   4.794   3.881  13.408 -1.4826 -0.6783 -0.1072
 6229TIP3   OH240101   5.961   6.627   0.190  0.2877 -0.5277  0.2989
 6229TIP3    H140102   6.017   6.594   0.120  1.5631 -0.9498  1.4795
 6229TIP3    H240103   5.959   6.722   0.178  0.0821 -0.6356 -0.5830
 6230TIP3   OH240104   4.787   1.295   2.461  0.7328  0.0858 -0.0055
 6230TIP3    H140105   4.778   1.379   2.506 -1.5248 -0.4362  0.6478
 6230TIP3    H240106   4.736   1.234   2.514  1.8270 -1.5971 -0.7946
 6231TIP3   OH240107   5.401   2.348   5.165  0.2445  0.0532 -0.4258
 6231TIP3    H140108   5.462   2.411   5.126 -0.8079  0.4552 -1.4857
 6231TIP3    H240109   5.319   2.363   5.119 -0.4491 -1.0332  0.4113
 6232TIP3   OH240110   6.200   2.208  11.516 -0.0002  0.6794 -0.4025
 6232TIP3    H140111   6.180   2.143  11.583  1.2612  0.5911 -0.0899
 6232TIP3    H240112   6.246   2.278  11.563  2.1456 -0.0099 -1.3491
 6233TIP3   OH240113   3.276   6.356  14.587  0.2412 -0.6682  0.4265
 6233TIP3    H140114   3.200   6.320  14.543  0.1109  0.0703  0.0378
 6233TIP3    H240115   3.350   6.306  14.553 -0.0546 -1.3339  0.7514
 6234TIP3   OH240116   5.407   2.874  14.087 -0.1014 -0.2472 -0.3780
 6234TIP3    H140117   5.412   2.869  13.991 -0.9928  0.8588 -0.5117
 6234TIP3    H240118   5.324   2.920  14.104  1.4100  2.3107  0.7918
 6235TIP3   OH240119   1.548   0.515  15.934  0.0225  0.1532  0.8135
 6235TIP3    H140120   1.590   0.596  15.960 -0.1413  0.2725  0.7078
 6235TIP3    H240121   1.492   0.539  15.860  0.0622 -0.0772  0.7075
 6236TIP3   OH240122   3.261   4.113   6.520 -0.5928  0.0284 -0.1837
 6236TIP3    H140123   3.208   4.153   6.451  2.0881  0.6987 -2.0338
 6236TIP3    H240124   3.269   4.181   6.587 -0.2404  0.7581 -0.9481
 6237TIP3   OH240125   6.222   4.595  13.488 -0.3561 -0.1694 -0.1127
 6237TIP3    H140126   6.312   4.624  13.476 -0.3374  0.0049  0.4533
 6237TIP3    H240127   6.176   4.629  13.411  0.2023 -0.8657 -0.7668
 6238TIP3   OH240128   1.188   4.617  16.295 -0.3507  0.1814 -0.4982
 6238TIP3    H140129   1.186   4.684  16.363 -1.9146  0.1863 -0.4981
 6238TIP3    H240130   1.170   4.535  16.342  1.3757 -0.2340 -0.5213
 6239TIP3   OH240131   6.336   5.025   5.860  0.6318 -0.1432  0.4610
 6239TIP3    H140132   6.349   5.087   5.787  1.2017 -1.3814 -0.5254
 6239TIP3    H240133   6.248   4.991   5.847  1.4971 -1.9985 -1.0041
 6240TIP3   OH240134   2.740   0.461  12.458  0.1226 -0.2192 -0.0224
 6240TIP3    H140135   2.714   0.373  12.429 -1.0344  0.4939 -1.2179
 6240TIP3    H240136   2.728   0.459  12.553 -1.9837 -0.7127 -0.2599
 6241TIP3   OH240137   3.575   4.368   1.992 -0.0155 -0.0443 -0.5916
 6241TIP3    H140138   3.498   4.410   2.030  0.1097  1.2266 -1.6696
 6241TIP3    H240139   3.549   4.277   1.979 -0.5995 -0.1441  0.9878
 6242TIP3   OH240140   3.445   4.878  11.941  0.0933  0.0307 -0.5979
 6242TIP3    H140141   3.380   4.910  11.879  0.4562  0.6831 -0.6507
 6242TIP3    H240142   3.397   4.871  12.024  0.2722  1.9190 -0.2872
 6243TIP3   OH240143   4.159   0.928  13.540 -0.0027  0.3605  0.3862
 6243TIP3    H140144   4.121   0.846  13.507  1.1889 -0.0026 -0.1487
 6243TIP3    H240145   4.093   0.963  13.599  0.6683 -2.5571  3.1179
 6244TIP3   OH240146   4.248   6.743   3.406 -0.0055 -0.1176 -0.2291
 6244TIP3    H140147   4.259   6.798   3.329 -1.0734 -0.5672 -0.7275
 6244TIP3    H240148   4.154   6.726   3.410  0.2235 -1.3993  0.2625
 6245TIP3   OH240149   3.395   1.244  11.433  0.1814  0.1351  0.4339
 6245TIP3    H140150   3.473   1.273  11.481  1.4279  1.5482 -2.2017
 6245TIP3    H240151   3.328   1.307  11.457  0.8535  0.9781  0.1538
 6246TIP3   OH240152   6.325   2.783   4.560  0.1656 -0.6894  0.0209
 6246TIP3    H140153   6.299   2.716   4.497 -0.7030 -0.3189 -0.0332
 6246TIP3    H240154   6.243   2.809   4.603  0.4472  0.4937 -0.1165
 6247TIP3   OH240155   5.998   1.073  12.980  0.5477  0.3695 -0.2146
 6247TIP3    H140156   5.912   1.074  13.022  0.6868  0.5467  0.0622
 6247TIP3    H240157   6.060   1.093  13.050  0.7477  1.0149 -0.5673
 6248TIP3   OH240158   3.577   2.391  13.204 -0.8642  0.1349  0.2807
 6248TIP3    H140159   3.582   2.309  13.253 -0.3740  0.2954  0.5143
 6248TIP3    H240160   3.622   2.454  13.260 -1.2239  0.5562  0.0936
 6249TIP3   OH240161   4.028   4.869  13.931 -0.6041  0.3637  0.2242
 6249TIP3    H140162   4.121   4.854  13.916 -0.4018  0.3468  1.4186
 6249TIP3    H240163   3.998   4.791  13.977 -0.8308  1.0878  1.3259
 6250TIP3   OH240164   5.860   2.087  13.488 -0.4299 -0.6851 -0.5814
 6250TIP3    H140165   5.872   2.015  13.427 -1.5756 -0.1916 -1.4178
 6250TIP3    H240166   5.929   2.075  13.553 -1.4509 -3.3771  0.1391
 6251TIP3   OH240167   1.503   2.045  10.729  0.5527 -0.5884  0.3720
 6251TIP3    H140168   1.537   2.031  10.640  1.0854 -1.1641  0.6601
 6251TIP3    H240169   1.537   1.971  10.779 -1.5314 -1.4826  0.5743
 6252TIP3   OH240170   0.049   4.020  12.795 -0.1012 -0.0285 -0.2029
 6252TIP3    H140171   0.140   4.032  12.821  0.4845  1.7093 -2.6545
 6252TIP3    H240172   0.023   4.105  12.758 -1.6023 -1.4163 -2.6459
 6253TIP3   OH240173   3.868   2.341  14.046 -0.0634  0.3752  0.1029
 6253TIP3    H140174   3.917   2.419  14.070  0.1892 -0.0880  1.1559
 6253TIP3    H240175   3.899   2.319  13.958 -0.1879  1.4750 -0.2330
 6254TIP3   OH240176   6.539   5.122  16.886 -0.0416 -0.0180  0.3614
 6254TIP3    H140177   6.575   5.056  16.828  1.8201  1.9096 -0.7969
 6254TIP3    H240178   6.612   5.148  16.942 -0.8117  0.8705  1.0006
 6255TIP3   OH240179   6.171   4.700  12.258  0.5173 -0.2567 -0.3450
 6255TIP3    H140180   6.134   4.635  12.198 -1.7519 -0.5533  1.2287
 6255TIP3    H240181   6.165   4.783  12.210 -0.4436 -0.6130 -0.8748
 6256TIP3   OH240182   2.181   6.476   3.172  0.2454  0.2879  0.1216
 6256TIP3    H140183   2.150   6.396   3.216 -3.2039  0.7443 -1.1174
 6256TIP3    H240184   2.245   6.513   3.232  1.8573 -3.2229  0.8611
 6257TIP3   OH240185   3.589   2.144   1.846  0.1881  0.0168  0.3511
 6257TIP3    H140186   3.615   2.196   1.770  0.0570  0.4888  0.6277
 6257TIP3    H240187   3.579   2.055   1.811 -2.0039  0.5864 -0.6922
 6258TIP3   OH240188   0.651   6.035  13.827 -0.2491  0.4960 -0.1927
 6258TIP3    H140189   0.709   6.111  13.824 -2.1130  1.9892 -0.4244
 6258TIP3    H240190   0.637   6.019  13.920  0.5443  0.0797 -0.1321
 6259TIP3   OH240191   3.504   1.919  15.011 -0.1723  0.1644  0.0641
 6259TIP3    H140192   3.562   1.926  14.936 -0.5312  2.7862 -0.0726
 6259TIP3    H240193   3.478   2.010  15.029 -2.1066 -0.6567  1.7633
 6260TIP3   OH240194   3.628   2.429  12.047 -0.4872 -0.1571  0.2981
 6260TIP3    H140195   3.658   2.427  12.138  0.0936 -0.9167  0.1089
 6260TIP3    H240196   3.664   2.510  12.011  0.0132 -0.2815  0.5136
 6261TIP3   OH240197   1.995   3.677  14.173 -1.0119 -0.3271  0.4133
 6261TIP3    H140198   2.074   3.629  14.200 -1.4531 -0.9625  0.5856
 6261TIP3    H240199   1.947   3.615  14.118 -1.6750 -0.1387  0.7800
 6262TIP3   OH240200   0.647   3.663  16.288  0.8817  0.5411 -0.5702
 6262TIP3    H140201   0.583   3.642  16.355  1.2487  1.6983  0.1741
 6262TIP3    H240202   0.615   3.619  16.209 -0.7859  1.0326 -0.1946
 6263TIP3   OH240203   1.932   0.230  15.710  0.4379 -0.3041 -0.2395
 6263TIP3    H140204   1.887   0.240  15.794  0.9508 -1.2263  0.1692
 6263TIP3    H240205   2.010   0.284  15.717 -0.2876  0.8296 -0.7218
 6264TIP3   OH240206   0.208   5.994   4.348  0.0418  0.2938 -0.3808
 6264TIP3    H140207   0.289   5.944   4.339  1.4816  1.6020  3.2096
 6264TIP3    H240208   0.236   6.085   4.340 -1.0184  0.7637  0.8710
 6265TIP3   OH240209   4.946   1.880  13.829  0.0227  0.3023 -0.2847
 6265TIP3    H140210   4.961   1.960  13.880 -0.8094 -0.3731  1.0780
 6265TIP3    H240211   5.006   1.816  13.866 -0.8782 -0.3146  0.1559
 6266TIP3   OH240212   1.400   1.922  13.776  0.2595 -0.2831  0.0503
 6266TIP3    H140213   1.392   1.984  13.848  1.0430 -0.2013  0.0711
 6266TIP3    H240214   1.331   1.948  13.714  1.0442  1.0804 -0.2879
 6267TIP3   OH240215   5.207   6.116   1.849  0.4247  0.2278  0.1505
 6267TIP3    H140216   5.124   6.146   1.885  0.1685 -0.9205  0.5822
 6267TIP3    H240217   5.273   6.155   1.906  0.1525  0.6673  0.1671
 6268TIP3   OH240218   4.737   3.702   3.072  0.4128  0.9068 -0.2042
 6268TIP3    H140219   4.644   3.705   3.051  0.6052 -1.0130 -1.5658
 6268TIP3    H240220   4.772   3.630   3.020  2.1057 -0.3871  2.4693
 6269TIP3   OH240221   0.033   0.495   5.821  0.2084 -0.1834  0.1474
 6269TIP3    H140222   0.095   0.468   5.753  0.5062  0.5969  0.0942
 6269TIP3    H240223  -0.044   0.440   5.805 -0.1049  0.6393 -1.4642
 6270TIP3   OH240224   4.037   1.065   5.077 -0.2347  0.2503  0.2404
 6270TIP3    H140225   3.967   1.059   5.142 -0.2857 -0.6344  0.1252
 6270TIP3    H240226   4.013   1.140   5.023 -0.7436  0.3622  0.6102
 6271TIP3   OH240227   3.219   1.753   4.934  0.2270 -0.1707  0.1664
 6271TIP3    H140228   3.266   1.748   5.017 -0.2860 -1.3267  0.4116
 6271TIP3    H240229   3.132   1.785   4.957  0.4039  0.5017 -0.0772
 6272TIP3   OH240230   2.209   4.230   1.479  0.0743 -0.2620  0.1572
 6272TIP3    H140231   2.273   4.208   1.546 -0.3585  1.6482  1.2756
 6272TIP3    H240232   2.187   4.321   1.496 -0.0257  0.3341 -2.6303
 6273TIP3   OH240233   4.249   6.761   3.693 -0.1400  0.1865  0.2498
 6273TIP3    H140234   4.173   6.808   3.728  0.2478  0.5156  0.6603
 6273TIP3    H240235   4.237   6.764   3.598  0.1087  1.5327  0.2379
 6274TIP3   OH240236   1.290   3.524   4.728  0.4661 -0.5158  0.1589
 6274TIP3    H140237   1.342   3.466   4.672 -0.4377 -0.7288 -0.5009
 6274TIP3    H240238   1.212   3.543   4.676 -0.6275 -1.0922  1.5208
 6275TIP3   OH240239   3.217   1.411   4.947  0.0142 -0.1584  0.3081
 6275TIP3    H140240   3.199   1.446   5.034 -1.1016  1.8271 -0.6678
 6275TIP3    H240241   3.135   1.370   4.920 -0.1681  0.6711 -0.4394
 6276TIP3   OH240242   4.940   1.528   3.665 -0.0423  0.3661  0.4635
 6276TIP3    H140243   4.910   1.539   3.755 -1.0639  0.0211  0.1861
 6276TIP3    H240244   5.022   1.480   3.672 -0.0091  0.5293  1.2197
 6277TIP3   OH240245   1.668   6.347  16.707 -0.3410  0.0120  0.4552
 6277TIP3    H140246   1.679   6.406  16.633 -1.0981 -1.6480 -1.0775
 6277TIP3    H240247   1.599   6.386  16.760 -0.5637  0.6849 -0.3160
 6278TIP3   OH240248   1.715   3.919   0.228 -0.3070 -0.2540 -0.1303
 6278TIP3    H140249   1.805   3.926   0.259  0.3575  0.7722 -2.1748
 6278TIP3    H240250   1.708   3.831   0.193 -0.9068 -1.2361  2.2152
 6279TIP3   OH240251   4.460   2.329  14.821 -0.5215  0.8718 -0.1813
 6279TIP3    H140252   4.492   2.418  14.803  0.1781  0.5489 -0.6005
 6279TIP3    H240253   4.506   2.304  14.902 -0.7986  0.9305 -0.0064
 6280TIP3   OH240254   6.223   4.309  13.228 -0.2201 -0.3400  0.0076
 6280TIP3    H140255   6.268   4.393  13.231  1.4319 -1.2089  0.6265
 6280TIP3    H240256   6.214   4.282  13.320 -3.4050  0.4610  0.0494
 6281TIP3   OH240257   5.737   4.796   1.503 -0.2638 -0.2785  0.9144
 6281TIP3    H140258   5.685   4.838   1.571 -0.0402  0.9199  0.3630
 6281TIP3    H240259   5.701   4.707   1.496 -1.2081  0.0433  1.6080
 6282TIP3   OH240260   0.238   6.731  16.914 -0.1227 -0.1315 -0.2397
 6282TIP3    H140261   0.303   6.728  16.844 -0.1713 -0.1661 -0.2827
 6282TIP3    H240262   0.268   6.666  16.978  0.5405  0.6880  0.3092
 6283TIP3   OH240263   6.710   0.284   1.218 -0.4347  0.0553  0.5831
 6283TIP3    H140264   6.690   0.211   1.277 -0.0203 -0.8201 -0.3306
 6283TIP3    H240265   6.670   0.258   1.135 -1.0563  1.2998  0.4805
 6284TIP3   OH240266   0.219   0.365   5.631  0.5643  0.4322 -0.2284
 6284TIP3    H140267   0.312   0.383   5.616  0.3319  0.9998 -1.0584
 6284TIP3    H240268   0.199   0.294   5.570  0.8070 -0.7696  1.0479
 6285TIP3   OH240269   4.321   4.448  16.054 -0.2713 -0.5171  0.2068
 6285TIP3    H140270   4.301   4.396  16.132 -0.0667  0.1658  0.7247
 6285TIP3    H240271   4.415   4.435  16.040 -0.4069 -1.0772 -0.2663
 6286TIP3   OH240272   0.421   3.947  16.099  0.5018  0.2349 -0.4893
 6286TIP3    H140273   0.433   4.031  16.055  3.2413  0.4786  0.5319
 6286TIP3    H240274   0.462   3.883  16.040  1.4415  0.1361  0.2437
 6287TIP3   OH240275   1.374   4.259  11.804  0.2401 -0.2298  0.6439
 6287TIP3    H140276   1.399   4.351  11.798 -2.1760  0.4593 -0.4096
 6287TIP3    H240277   1.455   4.210  11.790  1.4488  1.7264  0.4952
 6288TIP3   OH240278   2.356   4.322  15.792 -0.7084  0.4230  0.4859
 6288TIP3    H140279   2.367   4.289  15.703 -0.4883  0.7847  0.3786
 6288TIP3    H240280   2.368   4.417  15.785  1.6062  0.2505  1.2435
 6289TIP3   OH240281   2.988   1.239   4.864  0.2917  0.0142 -0.0909
 6289TIP3    H140282   2.980   1.176   4.935  0.5912 -1.4274 -1.2874
 6289TIP3    H240283   2.999   1.185   4.785  0.6971  1.5650 -1.1364
 6290TIP3   OH240284   2.709   5.911  11.180  0.1019 -0.3801 -0.1017
 6290TIP3    H140285   2.702   5.834  11.124  0.3336  0.1893 -0.9396
 6290TIP3    H240286   2.624   5.955  11.171 -0.1865 -0.7578  0.7160
 6291TIP3   OH240287   3.618   0.646  14.365 -0.5310  0.5721 -0.4772
 6291TIP3    H140288   3.646   0.642  14.274 -1.1376 -1.2021 -0.6149
 6291TIP3    H240289   3.668   0.577  14.409 -2.2791 -0.4840 -0.0724
 6292TIP3   OH240290   6.241   3.435  13.660  0.5560  0.5479  0.3553
 6292TIP3    H140291   6.336   3.450  13.655  0.7904 -0.7237  0.5946
 6292TIP3    H240292   6.231   3.375  13.733 -0.3104 -0.3607 -0.4882
 6293TIP3   OH240293   0.849   4.649  13.229 -0.2278  0.0089 -0.2677
 6293TIP3    H140294   0.876   4.654  13.137  1.2380  1.2906  0.2087
 6293TIP3    H240295   0.831   4.739  13.254 -0.7782 -0.3504  0.6887
 6294TIP3   OH240296   6.009   1.452   6.483 -0.2106  0.2864  0.0982
 6294TIP3    H140297   5.982   1.537   6.519 -0.1220  0.0531  0.7236
 6294TIP3    H240298   5.977   1.388   6.546  0.0294 -0.1229 -0.1931
 6295TIP3   OH240299   6.477   0.229  12.422  0.0716 -0.4470  0.7962
 6295TIP3    H140300   6.399   0.236  12.477 -0.6120 -0.7230 -0.1302
 6295TIP3    H240301   6.518   0.315  12.427 -1.1855  0.2197 -0.0268
 6296TIP3   OH240302   1.033   4.447   3.051  0.4941  0.1060  0.0548
 6296TIP3    H140303   1.028   4.541   3.035  4.2715  0.2050 -1.5294
 6296TIP3    H240304   0.977   4.408   2.984  2.2556  1.1986 -2.2027
 6297TIP3   OH240305   0.879   5.662   1.710  0.7932 -0.2660  0.0988
 6297TIP3    H140306   0.838   5.649   1.625 -1.9812 -1.1270  1.4565
 6297TIP3    H240307   0.920   5.578   1.730 -1.8533 -1.4296  1.1553
 6298TIP3   OH240308   1.475   4.490   4.494  0.3954 -0.0158  0.2340
 6298TIP3    H140309   1.480   4.573   4.542 -1.3215  0.1105  0.2397
 6298TIP3    H240310   1.385   4.485   4.464  1.1828 -0.5101 -2.2764
 6299TIP3   OH240311   6.663   1.796  10.648 -0.0204  0.2166  0.8492
 6299TIP3    H140312   6.710   1.798  10.565  1.1413 -0.4110  1.4608
 6299TIP3    H240313   6.626   1.884  10.657 -0.6054  0.1474 -0.5504
 6300TIP3   OH240314   3.601   1.547   4.176  0.2956  0.1508  0.3983
 6300TIP3    H140315   3.652   1.473   4.210  1.3672  1.9755  3.1981
 6300TIP3    H240316   3.667   1.610   4.147 -0.5138  0.7669 -0.1432
 6301TIP3   OH240317   1.922   2.604  16.490 -0.0730 -0.0663 -0.2879
 6301TIP3    H140318   1.883   2.646  16.414  0.1720 -0.9133 -0.8936
 6301TIP3    H240319   1.902   2.511  16.479  0.2750 -0.2458  0.5021
 6302TIP3   OH240320   6.772   3.346   4.265  0.1857 -0.2181 -0.4624
 6302TIP3    H140321   6.779   3.413   4.333  3.3124 -0.6207 -0.2237
 6302TIP3    H240322   6.708   3.284   4.299  0.7806  0.2025  1.5761
 6303TIP3   OH240323   5.510   6.562  15.105  0.2740  0.4463  0.1504
 6303TIP3    H140324   5.571   6.502  15.061 -0.4836  0.5877 -1.1559
 6303TIP3    H240325   5.450   6.589  15.035 -0.9199  0.7695  1.2804
 6304TIP3   OH240326   1.207   3.585  12.433  0.0726  0.0440 -0.4677
 6304TIP3    H140327   1.210   3.490  12.435  0.4673  0.0489 -0.7940
 6304TIP3    H240328   1.282   3.614  12.484  1.0430  0.1689 -1.9076
 6305TIP3   OH240329   1.066   0.131  13.399 -0.3807  0.5546  0.2352
 6305TIP3    H140330   1.074   0.184  13.319 -0.0941 -1.8795 -1.4521
 6305TIP3    H240331   0.975   0.100  13.398 -0.8190  1.6740  1.7097
 6306TIP3   OH240332   2.371   5.113  14.856 -0.4713 -0.3704  0.5475
 6306TIP3    H140333   2.304   5.046  14.846 -2.6447  1.1269  3.5252
 6306TIP3    H240334   2.396   5.108  14.949 -0.1302  2.3465  0.6745
 6307TIP3   OH240335   4.853   2.780   0.529 -0.0523 -0.0988  0.1519
 6307TIP3    H140336   4.879   2.771   0.620 -0.2516 -0.8935  0.1383
 6307TIP3    H240337   4.918   2.840   0.491  1.7555 -1.9231  0.1546
 6308TIP3   OH240338   5.256   4.840  14.146  0.3388 -1.0761  0.4328
 6308TIP3    H140339   5.230   4.932  14.139 -0.9124 -1.4169  0.3332
 6308TIP3    H240340   5.177   4.795  14.176 -0.0142 -2.5733 -2.3818
 6309TIP3   OH240341   1.888   2.504  17.055  0.0573  0.0776  0.3412
 6309TIP3    H140342   1.938   2.567  17.003 -0.9884  2.2056  1.7688
 6309TIP3    H240343   1.853   2.555  17.128 -0.6815 -2.2349  1.7154
 6310TIP3   OH240344   2.992   1.027  13.848  0.0088  0.2023  0.4973
 6310TIP3    H140345   2.965   0.944  13.887  2.7142 -0.7649  0.4794
 6310TIP3    H240346   2.913   1.059  13.803 -0.8080 -2.9682 -0.5970
 6311TIP3   OH240347   4.628   0.873   3.499  0.2365 -0.0516  0.2737
 6311TIP3    H140348   4.666   0.959   3.483  1.7922 -1.0166 -1.7559
 6311TIP3    H240349   4.540   0.879   3.463  0.4619  0.6001 -0.2001
 6312TIP3   OH240350   6.554   1.738  16.184  0.5280  0.0227 -0.4588
 6312TIP3    H140351   6.543   1.812  16.124 -0.6441 -0.1697 -0.5159
 6312TIP3    H240352   6.610   1.677  16.137  1.7672  0.9824 -0.2927
 6313TIP3   OH240353   4.925   3.713  14.089  0.3097 -0.1313  0.2910
 6313TIP3    H140354   4.988   3.771  14.132  2.6126  2.1416 -5.2647
 6313TIP3    H240355   4.876   3.770  14.030 -2.2159 -2.9689 -0.6088
 6314TIP3   OH240356   4.703   3.338   3.281  0.8521  0.0709 -0.6255
 6314TIP3    H140357   4.665   3.372   3.362 -0.9356  0.8055 -1.7130
 6314TIP3    H240358   4.641   3.365   3.213  2.8980  0.4649 -2.3989
 6315TIP3   OH240359   4.820   4.529   1.269  0.3757 -0.9864  0.0949
 6315TIP3    H140360   4.844   4.476   1.345  1.0179 -2.4785 -1.0874
 6315TIP3    H240361   4.835   4.471   1.194 -4.3103 -1.1745 -1.0151
 6316TIP3   OH240362   6.595   3.150   4.008 -0.0329  0.1498  0.6542
 6316TIP3    H140363   6.642   3.084   3.957 -1.6500 -2.2445  2.0580
 6316TIP3    H240364   6.617   3.130   4.099 -2.1974  0.1617  1.2346
 6317TIP3   OH240365   6.502   2.889  14.407 -0.2374 -0.1086  0.4646
 6317TIP3    H140366   6.481   2.812  14.461  1.5040 -1.0673 -0.1709
 6317TIP3    H240367   6.422   2.941  14.409 -2.0693 -2.6874 -0.3957
 6318TIP3   OH240368   6.299   2.096   4.115 -0.0212 -0.0735  0.5749
 6318TIP3    H140369   6.318   2.090   4.021 -0.1368  0.7524  0.4978
 6318TIP3    H240370   6.383   2.115   4.155 -0.2170  1.0199  0.4887
 6319TIP3   OH240371   2.452   3.525   3.920 -0.2944  0.1727 -0.2020
 6319TIP3    H140372   2.362   3.526   3.952  0.1743  0.8549  1.1868
 6319TIP3    H240373   2.446   3.555   3.829 -1.6341 -1.4133 -0.6787
 6320TIP3   OH240374   5.458   4.173   1.517  0.1132 -0.1904 -0.0461
 6320TIP3    H140375   5.507   4.233   1.462  2.3621 -0.7982  1.1733
 6320TIP3    H240376   5.394   4.228   1.562  1.9983  1.3302  0.9124
 6321TIP3   OH240377   0.304   6.495  15.342 -0.4228 -0.6727  0.2679
 6321TIP3    H140378   0.273   6.406  15.359 -1.4683 -0.1216  1.3696
 6321TIP3    H240379   0.252   6.550  15.400  1.5991  0.4730  1.1018
 6322TIP3   OH240380   2.275   3.062  12.519 -0.4056 -0.3307  0.4778
 6322TIP3    H140381   2.343   3.120  12.482 -1.2382  0.8392  0.7240
 6322TIP3    H240382   2.298   2.975  12.486  2.2905 -0.3130  2.0364
 6323TIP3   OH240383   5.609   4.419   5.956  0.1664 -0.2029 -0.1456
 6323TIP3    H140384   5.596   4.325   5.964 -0.4541 -0.2292 -1.3220
 6323TIP3    H240385   5.679   4.429   5.893 -1.4645  0.1312 -2.0002
 6324TIP3   OH240386   5.549   3.458   2.743 -0.0092  0.2587 -0.5183
 6324TIP3    H140387   5.482   3.427   2.804  0.7309  0.7816  0.5904
 6324TIP3    H240388   5.629   3.461   2.795  0.6307  0.7570 -1.5127
 6325TIP3   OH240389   4.757   0.609   3.477  0.2726  0.0025 -0.2336
 6325TIP3    H140390   4.724   0.696   3.498  0.0344 -0.2058  0.2665
 6325TIP3    H240391   4.823   0.591   3.543  0.6877  0.0109 -0.6430
 6326TIP3   OH240392   4.054   1.323   4.591  0.3369  0.2134  0.7470
 6326TIP3    H140393   4.087   1.298   4.677  0.4945  1.1249  0.9619
 6326TIP3    H240394   3.974   1.373   4.609 -1.1278 -1.8039  0.2461
 6327TIP3   OH240395   0.621   2.384  16.580  0.1758 -0.5197  0.1334
 6327TIP3    H140396   0.575   2.456  16.624  0.7640  0.1292 -0.2945
 6327TIP3    H240397   0.597   2.394  16.487 -0.4132 -1.3933  0.1746
 6328TIP3   OH240398   5.395   0.939   2.431 -0.0480 -0.4806 -0.2461
 6328TIP3    H140399   5.374   0.861   2.482  0.2788  1.2668  2.7854
 6328TIP3    H240400   5.452   0.907   2.361 -0.9812 -3.1023  0.0922
 6329TIP3   OH240401   2.968   3.340   0.387  0.1804 -0.3713 -0.8979
 6329TIP3    H140402   3.011   3.337   0.302  0.7189 -0.6028 -0.6276
 6329TIP3    H240403   2.985   3.253   0.425  2.6667  0.6954  0.7316
 6330TIP3   OH240404   0.837   6.185  11.681  0.0885 -0.0469  0.5064
 6330TIP3    H140405   0.795   6.222  11.604  1.6014  0.3483 -0.1654
 6330TIP3    H240406   0.814   6.092  11.679  0.2368 -0.0699 -0.5144
 6331TIP3   OH240407   5.897   6.527  14.806  0.3409 -0.0976  0.5662
 6331TIP3    H140408   5.887   6.599  14.743  1.0550 -0.1092  0.4282
 6331TIP3    H240409   5.981   6.544  14.849  1.5999 -1.9530 -0.9508
 6332TIP3   OH240410   4.374   1.617   5.747 -0.6110 -0.6208 -0.1759
 6332TIP3    H140411   4.340   1.630   5.836  1.1126  0.4126  0.3836
 6332TIP3    H240412   4.322   1.675   5.693 -0.5343  0.0652  0.4665
 6333TIP3   OH240413   5.536   5.889   1.302 -0.0698 -0.2267 -0.0122
 6333TIP3    H140414   5.467   5.854   1.358 -1.2375  0.9331 -0.6698
 6333TIP3    H240415   5.504   5.874   1.213  1.5586 -1.6425 -0.4160
 6334TIP3   OH240416   6.092   3.195  16.113  0.3390  0.1268 -0.1899
 6334TIP3    H140417   6.117   3.133  16.045 -0.3091  1.3461 -1.5941
 6334TIP3    H240418   6.127   3.158  16.194  0.9949 -1.4398 -1.1565
 6335TIP3   OH240419   6.190   1.493   5.453 -0.5568  0.4997 -0.5590
 6335TIP3    H140420   6.151   1.456   5.533 -0.4611  1.2937 -0.1334
 6335TIP3    H240421   6.151   1.580   5.446  0.0149  0.7254 -0.9590
 6336TIP3   OH240422   1.653   3.433   5.730  0.0104 -0.0029  0.3828
 6336TIP3    H140423   1.700   3.350   5.729  1.4274  0.7512 -1.3778
 6336TIP3    H240424   1.683   3.477   5.809  0.9675 -0.2702  0.1846
 6337TIP3   OH240425   2.945   5.326   2.717  0.2873 -0.5689 -0.4619
 6337TIP3    H140426   2.877   5.356   2.778  0.0753 -0.2215 -0.8631
 6337TIP3    H240427   3.025   5.327   2.769  0.3196  0.8695 -0.4896
 6338TIP3   OH240428   1.597   6.085   2.368 -0.2542 -0.3674  0.4500
 6338TIP3    H140429   1.668   6.029   2.336 -2.1773 -1.1839 -2.8738
 6338TIP3    H240430   1.567   6.133   2.291 -1.3009  2.3584  2.3858
 6339TIP3   OH240431   3.852   3.281  16.013 -0.0856  0.2600  0.4268
 6339TIP3    H140432   3.893   3.266  16.098  0.3433 -3.5454 -0.2945
 6339TIP3    H240433   3.895   3.360  15.979  2.9242 -0.6116  1.9135
 6340TIP3   OH240434   6.576   2.756   4.723 -0.2999 -0.2348 -0.6124
 6340TIP3    H140435   6.644   2.690   4.716 -0.7948 -0.8509  0.1470
 6340TIP3    H240436   6.524   2.746   4.644 -0.8930 -1.3786 -0.1037
 6341TIP3   OH240437   6.081   0.927   6.143 -0.1467 -0.0366  0.4131
 6341TIP3    H140438   6.005   0.984   6.142  1.0713  1.6662 -0.2431
 6341TIP3    H240439   6.145   0.972   6.197  0.6812 -1.0318  0.3043
 6342TIP3   OH240440   5.113   2.195  14.526 -0.2981 -0.2806 -0.1702
 6342TIP3    H140441   5.123   2.121  14.586  1.9041  0.0412 -0.0656
 6342TIP3    H240442   5.196   2.242  14.532 -0.2018  0.0779 -3.0937
 6343TIP3   OH240443   0.841   2.079  16.925  0.7047  0.3162 -0.4323
 6343TIP3    H140444   0.831   2.064  16.831  1.4803 -1.6579 -0.2355
 6343TIP3    H240445   0.934   2.068  16.941  0.5963  0.7713  0.5647
 6344TIP3   OH240446   0.037   3.925  15.139 -0.3604  0.0375  0.2595
 6344TIP3    H140447   0.010   3.928  15.047 -0.1927 -0.2655  0.2000
 6344TIP3    H240448   0.129   3.951  15.138 -0.7728  1.5898  0.5247
 6345TIP3   OH240449   5.551   5.485   2.920  0.2865  0.2173  0.7581
 6345TIP3    H140450   5.523   5.475   2.829  0.3015  0.4494  0.7275
 6345TIP3    H240451   5.470   5.491   2.970  0.2592  1.2851  0.6265
 6346TIP3   OH240452   1.521   5.388   5.141  0.0560  0.5782  0.6361
 6346TIP3    H140453   1.522   5.438   5.059  0.2500  0.4632  0.5672
 6346TIP3    H240454   1.582   5.434   5.198  0.6387  0.1222  0.3913
 6347TIP3   OH240455   0.026   2.992   0.276 -0.1305 -0.0538 -0.0466
 6347TIP3    H140456   0.097   3.033   0.225 -1.0213  0.0544 -1.2434
 6347TIP3    H240457  -0.008   3.062   0.331  0.8269 -0.1622  0.7157
 6348TIP3   OH240458   3.140   1.553   4.686  0.0671  0.5614 -0.1024
 6348TIP3    H140459   3.127   1.648   4.691  0.0189  0.6099 -1.0265
 6348TIP3    H240460   3.179   1.530   4.770 -1.9318  1.0642  1.0212
 6349TIP3   OH240461   6.443   1.760   4.200 -0.7352  0.4422 -0.1197
 6349TIP3    H140462   6.494   1.707   4.262 -0.7291 -1.4715 -1.6561
 6349TIP3    H240463   6.508   1.816   4.158  0.2630 -1.9709 -2.0556
 6350TIP3   OH240464   4.949   1.057   5.022  0.4221  0.3826 -0.3357
 6350TIP3    H140465   5.002   1.110   5.082 -0.2439  2.0702 -1.1942
 6350TIP3    H240466   4.879   1.023   5.077  0.3937  1.0689  0.0718
 6351TIP3   OH240467   1.285   0.627   5.160 -0.0166 -0.2696  0.0165
 6351TIP3    H140468   1.279   0.692   5.230  0.2909 -1.2642  0.9912
 6351TIP3    H240469   1.197   0.589   5.154 -0.2996  0.4620 -0.8130
 6352TIP3   OH240470   0.083   3.931  13.998 -0.0793  0.4785 -0.5343
 6352TIP3    H140471   0.149   3.862  14.005 -0.1103  0.3220 -1.5984
 6352TIP3    H240472   0.035   3.910  13.918  1.3109  2.9157 -2.1255
 6353TIP3   OH240473   3.947   5.089  12.691 -0.3917  0.5525 -0.0975
 6353TIP3    H140474   4.030   5.045  12.714 -0.4610 -0.1656 -1.1437
 6353TIP3    H240475   3.892   5.077  12.768  0.4681  1.0262  0.6115
 6354TIP3   OH240476   2.727   2.168  13.644  0.2190  0.1367 -0.0649
 6354TIP3    H140477   2.790   2.204  13.708 -0.2946 -0.2992  0.7039
 6354TIP3    H240478   2.661   2.124  13.698 -2.5483  3.2309 -0.6212
 6355TIP3   OH240479   0.500   0.823   4.495 -0.1450 -0.0104 -0.0684
 6355TIP3    H140480   0.417   0.780   4.512  0.3954 -0.3347  2.1234
 6355TIP3    H240481   0.477   0.915   4.479 -0.9541 -0.1869  0.0614
 6356TIP3   OH240482   2.519   3.200   1.568  0.1250  0.1933 -0.1116
 6356TIP3    H140483   2.507   3.105   1.559  1.6599 -0.2227  1.7351
 6356TIP3    H240484   2.566   3.226   1.488 -2.3438 -0.1125 -1.7830
 6357TIP3   OH240485   3.792   1.701   1.704 -0.4530  0.1364 -0.0859
 6357TIP3    H140486   3.797   1.760   1.778  0.5509 -0.3999  0.2861
 6357TIP3    H240487   3.719   1.643   1.724 -0.5987  0.4052  0.1656
 6358TIP3   OH240488   1.851   5.476  13.616  0.3085  0.6006  0.0687
 6358TIP3    H140489   1.774   5.444  13.662  0.2789  0.1725 -0.2649
 6358TIP3    H240490   1.821   5.552  13.568 -0.4075 -0.6564 -1.5826
 6359TIP3   OH240491   0.130   3.309   2.412 -0.3037  0.0957 -0.4294
 6359TIP3    H140492   0.111   3.223   2.375 -1.6266 -0.4065  1.2980
 6359TIP3    H240493   0.092   3.306   2.500 -0.0303  2.3135 -0.1892
 6360TIP3   OH240494   3.760   2.013  15.194  0.4070  0.0493 -0.3568
 6360TIP3    H140495   3.760   1.918  15.206 -2.1075  0.0030 -0.2013
 6360TIP3    H240496   3.670   2.035  15.172  1.4180  2.1204 -3.0800
 6361TIP3   OH240497   1.943   5.452   0.674  0.5515  0.0806  0.0222
 6361TIP3    H140498   1.915   5.514   0.607  1.8962 -0.8352 -1.4547
 6361TIP3    H240499   2.036   5.437   0.656  0.9939 -0.1396  2.1607
 6362TIP3   OH240500   6.546   0.462   1.635  0.0348 -0.1777  0.1219
 6362TIP3    H140501   6.588   0.506   1.561 -2.1575  1.5223 -0.2215
 6362TIP3    H240502   6.494   0.392   1.594 -0.7181  0.3971  0.0557
 6363TIP3   OH240503   2.092   3.354  12.677  0.3482 -0.2248  0.0073
 6363TIP3    H140504   2.054   3.267  12.667  0.7734 -0.2932 -1.2038
 6363TIP3    H240505   2.174   3.338  12.725  1.0734 -0.6908 -1.3289
 6364TIP3   OH240506   5.399   6.273   3.904 -0.0550 -0.8245  0.4911
 6364TIP3    H140507   5.320   6.323   3.884  0.7008 -0.2215 -1.1920
 6364TIP3    H240508   5.442   6.262   3.819  2.5494  0.4220  1.5399
 6365TIP3   OH240509   2.212   6.788  12.639 -0.1189  0.2655  0.2897
 6365TIP3    H140510   2.224   6.701  12.600  0.6995  1.7303 -3.0609
 6365TIP3    H240511   2.120   6.809  12.624  0.0757  0.6240 -0.4340
 6366TIP3   OH240512   0.654   4.913  13.616 -0.2773  0.1804 -0.3804
 6366TIP3    H140513   0.588   4.916  13.548 -0.4619 -1.0113 -0.2737
 6366TIP3    H240514   0.678   4.821  13.622  3.1123  0.7927 -2.0635
 6367TIP3   OH240515   5.570   2.631   6.746  0.0241  0.3233 -0.4467
 6367TIP3    H140516   5.513   2.561   6.778 -0.0129  0.4668 -0.1982
 6367TIP3    H240517   5.649   2.586   6.716  0.0301  0.1828 -0.2197
 6368TIP3   OH240518   5.056   3.851  12.603 -0.4804  0.3714  0.1043
 6368TIP3    H140519   5.136   3.810  12.635 -1.0714 -1.2864 -0.4469
 6368TIP3    H240520   5.056   3.938  12.644  0.4131 -0.4576  2.0074
 6369TIP3   OH240521   2.367   0.770   0.891 -0.4036  0.0325  0.2000
 6369TIP3    H140522   2.430   0.698   0.902 -0.5229 -0.1051 -0.0149
 6369TIP3    H240523   2.339   0.764   0.800 -1.3454 -0.4298  0.4970
 6370TIP3   OH240524   2.689   1.802   5.410  0.1662 -0.3796 -0.0818
 6370TIP3    H140525   2.621   1.736   5.414 -1.4869  1.2150 -0.5665
 6370TIP3    H240526   2.733   1.788   5.326 -0.6543 -0.4196 -0.5109
 6371TIP3   OH240527   6.100   6.113  16.317  0.2073 -0.5986  0.0039
 6371TIP3    H140528   6.064   6.202  16.323 -0.2492 -0.7451 -0.4579
 6371TIP3    H240529   6.109   6.097  16.223  1.5001 -0.5738  0.1068
 6372TIP3   OH240530   6.321   0.993  15.715  0.7647 -0.2791 -0.4738
 6372TIP3    H140531   6.300   1.060  15.650  3.9118  0.1140 -1.2401
 6372TIP3    H240532   6.297   1.033  15.799  2.2661  1.7806 -0.9411
 6373TIP3   OH240533   2.686   1.903   4.089 -0.3737  0.3482 -0.1880
 6373TIP3    H140534   2.626   1.974   4.069 -0.8790  0.0856  0.3579
 6373TIP3    H240535   2.727   1.881   4.006  0.0447  1.4992 -0.3039
 6374TIP3   OH240536   4.319   4.469  15.780  0.6452 -0.0883  0.1652
 6374TIP3    H140537   4.322   4.462  15.875  1.1466  0.5199  0.1998
 6374TIP3    H240538   4.240   4.420  15.754 -2.0956  3.3216  1.2483
 6375TIP3   OH240539   3.613   3.724  13.778  0.3900 -0.2735 -0.1114
 6375TIP3    H140540   3.553   3.659  13.814  0.8428 -1.3004 -1.1174
 6375TIP3    H240541   3.688   3.672  13.747  0.7105  0.7120 -1.0578
 6376TIP3   OH240542   5.872   6.181   3.041 -0.1117  0.0623  0.4735
 6376TIP3    H140543   5.825   6.245   2.988 -1.7483 -1.4651  0.0070
 6376TIP3    H240544   5.876   6.221   3.128 -0.3520  1.1522  0.0068
 6377TIP3   OH240545   2.857   3.824  16.333 -0.4751 -0.2063  0.3964
 6377TIP3    H140546   2.796   3.861  16.269 -0.2988 -0.0946  0.2935
 6377TIP3    H240547   2.906   3.758  16.283  0.9688  1.1673 -0.0903
 6378TIP3   OH240548   1.282   1.345   3.852  0.3473 -0.1193  0.3987
 6378TIP3    H140549   1.229   1.376   3.778  0.5663 -0.4575  0.0934
 6378TIP3    H240550   1.349   1.289   3.811 -0.5307 -1.6624  0.9937
 6379TIP3   OH240551   2.709   3.012  13.323 -0.6645  0.4576  0.0923
 6379TIP3    H140552   2.727   2.942  13.386  0.0950  1.8417  1.4894
 6379TIP3    H240553   2.795   3.037  13.289 -1.1650 -1.3428 -2.8323
 6380TIP3   OH240554   3.595   3.855  10.357  0.1517 -0.9631 -0.0045
 6380TIP3    H140555   3.607   3.818  10.270  1.6601 -0.5950  0.0188
 6380TIP3    H240556   3.511   3.821  10.386 -0.4690 -0.9505 -1.6646
 6381TIP3   OH240557   3.353   6.004  15.636  0.6462  0.2079 -0.2446
 6381TIP3    H140558   3.260   5.989  15.619  0.6645 -0.3389  0.1220
 6381TIP3    H240559   3.399   5.962  15.564  0.7283 -2.1822  1.1050
 6382TIP3   OH240560   4.187   2.803   5.953 -0.0836  0.3747 -1.1684
 6382TIP3    H140561   4.130   2.728   5.971  0.2291  0.5439  0.7642
 6382TIP3    H240562   4.136   2.879   5.980  0.2364  0.7155 -1.5184
 6383TIP3   OH240563   3.938   4.712  13.313  0.0090  0.6355  0.0202
 6383TIP3    H140564   3.973   4.743  13.229 -0.7684  1.1222 -0.1298
 6383TIP3    H240565   3.893   4.788  13.350 -1.2969 -0.1030 -0.0107
 6384TIP3   OH240566   0.397   0.053  16.196 -0.1112 -0.7238  0.3693
 6384TIP3    H140567   0.465   0.047  16.128 -0.4972  0.5573 -0.1748
 6384TIP3    H240568   0.385   0.147  16.208 -1.9363 -0.9280  0.3086
 6385TIP3   OH240569   4.195   4.283   2.631  0.3895 -0.1015 -0.8037
 6385TIP3    H140570   4.113   4.314   2.593  0.6369  0.8944 -0.5573
 6385TIP3    H240571   4.171   4.205   2.681 -0.6063  0.7868  0.1464
 6386TIP3   OH240572   2.781   2.975  12.531 -0.0364  0.3986  0.0867
 6386TIP3    H140573   2.725   2.981  12.608  0.5765  1.1499  0.4864
 6386TIP3    H240574   2.833   2.896  12.545  1.4584  1.5289  1.4359
 6387TIP3   OH240575   0.712   2.758  14.104  0.2618  0.6412  0.0196
 6387TIP3    H140576   0.672   2.837  14.067  0.8946  1.4316  0.9653
 6387TIP3    H240577   0.731   2.703  14.028 -2.2743  0.3535 -0.4960
 6388TIP3   OH240578   4.758   1.314   1.310 -0.1550 -0.5661 -0.0727
 6388TIP3    H140579   4.733   1.406   1.311  2.7327  0.3788  2.8775
 6388TIP3    H240580   4.782   1.297   1.218  0.0679  1.8905 -0.5456
 6389TIP3   OH240581   3.563   2.978  15.455  0.5872 -0.1552  0.3081
 6389TIP3    H140582   3.524   2.892  15.441  1.8419 -0.3533 -2.6970
 6389TIP3    H240583   3.493   3.040  15.436 -0.4533 -0.4107  2.9287
 6390TIP3   OH240584   4.583   4.382   1.671 -0.2028 -0.4484  0.4046
 6390TIP3    H140585   4.630   4.307   1.634  0.3329 -1.0416  2.1951
 6390TIP3    H240586   4.651   4.433   1.716 -0.9639 -0.3232  1.4529
 6391TIP3   OH240587   1.336   4.725  12.342  0.1927  0.5897 -0.1644
 6391TIP3    H140588   1.372   4.698  12.427 -1.6052 -0.1440  0.4124
 6391TIP3    H240589   1.379   4.809  12.324  0.1131  1.1091  1.8031
 6392TIP3   OH240590   0.306   0.070   3.941 -0.1621  0.5975 -0.0873
 6392TIP3    H140591   0.341   0.143   3.892  0.1289 -0.3992 -1.3989
 6392TIP3    H240592   0.240   0.032   3.884 -1.0365  0.4204  0.9903
 6393TIP3   OH240593   2.696   4.869   5.536  0.2913 -0.1654 -0.5323
 6393TIP3    H140594   2.639   4.831   5.602 -0.7298  0.0453 -1.2705
 6393TIP3    H240595   2.779   4.883   5.581 -0.9170  1.7164  1.2598
 6394TIP3   OH240596   5.436   5.015  11.595 -0.2529  0.6486 -0.5505
 6394TIP3    H140597   5.443   5.002  11.501 -0.0990 -0.7321 -0.3756
 6394TIP3    H240598   5.343   5.033  11.610 -0.3456  0.4959 -0.9293
 6395TIP3   OH240599   5.983   6.475   0.951 -0.6684 -0.8295  0.1047
 6395TIP3    H140600   5.997   6.471   0.856  1.6949  0.3223  0.3341
 6395TIP3    H240601   5.889   6.493   0.961 -0.7468  0.2085 -2.0421
 6396TIP3   OH240602   3.772   1.959   5.117 -0.0179  0.1223  0.6358
 6396TIP3    H140603   3.744   1.890   5.058 -1.0032 -1.7593  3.1411
 6396TIP3    H240604   3.727   2.038   5.085  0.8643 -0.3703 -2.0648
 6397TIP3   OH240605   6.516   1.205  16.641 -0.1358 -0.6271  0.4508
 6397TIP3    H140606   6.495   1.295  16.667 -0.6043 -0.8471  0.8340
 6397TIP3    H240607   6.457   1.187  16.567 -0.9995 -1.0807  1.2290
 6398TIP3   OH240608   2.360   0.586   4.395 -0.0639  0.7512  0.1519
 6398TIP3    H140609   2.361   0.599   4.489 -0.4700 -3.1723  0.8780
 6398TIP3    H240610   2.268   0.567   4.374  0.3792 -0.8246 -0.5327
 6399TIP3   OH240611   6.149   0.834   3.872  0.2335  0.0657  0.1130
 6399TIP3    H140612   6.192   0.880   3.800  0.4242  0.3512  0.4052
 6399TIP3    H240613   6.067   0.801   3.834 -0.0800  0.9574 -0.0110
 6400TIP3   OH240614   0.935   2.732   1.654  0.1153 -0.2819 -0.2767
 6400TIP3    H140615   0.987   2.805   1.689  0.7200 -1.3359  1.1207
 6400TIP3    H240616   0.974   2.654   1.693 -1.1691 -1.2771 -0.9181
 6401TIP3   OH240617   6.392   5.312  15.931  0.3528  0.2143  0.0387
 6401TIP3    H140618   6.392   5.386  15.992 -1.7345  1.1976 -1.0607
 6401TIP3    H240619   6.304   5.310  15.896  0.7880 -1.9227 -1.0812
 6402TIP3   OH240620   6.210   2.523  15.624 -0.1929 -0.2268  0.4115
 6402TIP3    H140621   6.134   2.515  15.565 -2.0368 -2.3005  2.8102
 6402TIP3    H240622   6.193   2.602  15.675  1.3353  1.4915 -1.5782
 6403TIP3   OH240623   1.093   2.049   3.794  0.4461  0.4108  0.0275
 6403TIP3    H140624   1.158   1.979   3.790 -0.8311 -0.9489  1.6628
 6403TIP3    H240625   1.123   2.113   3.729  2.2822 -1.0975 -0.7104
 6404TIP3   OH240626   3.615   0.196  12.928  0.6583  0.5691 -0.5151
 6404TIP3    H140627   3.681   0.217  12.863  1.5131 -1.3868 -0.3451
 6404TIP3    H240628   3.546   0.149  12.880  0.1334  1.2301 -0.4213
 6405TIP3   OH240629   4.642   0.517  14.182 -0.1166 -0.3257  0.1890
 6405TIP3    H140630   4.666   0.501  14.091 -1.6499  0.8160 -0.4642
 6405TIP3    H240631   4.698   0.459  14.233  1.2177 -0.5248 -1.4405
 6406TIP3   OH240632   4.680   3.100   1.817 -0.1107 -0.2575 -0.1229
 6406TIP3    H140633   4.624   3.032   1.778 -0.5690 -0.4500  0.8450
 6406TIP3    H240634   4.749   3.114   1.752  0.1258 -1.8161 -0.2385
 6407TIP3   OH240635   4.374   3.464  16.067  0.4043  0.0077  0.0148
 6407TIP3    H140636   4.422   3.483  15.986 -0.2790  3.7622  0.3154
 6407TIP3    H240637   4.437   3.419  16.122  2.4316  1.4915 -0.9505
 6408TIP3   OH240638   2.449   2.539  15.683  0.1022 -0.3220 -0.4109
 6408TIP3    H140639   2.374   2.515  15.629  0.4449  0.5310 -1.2876
 6408TIP3    H240640   2.448   2.634  15.687  1.3550 -0.2725 -0.7693
 6409TIP3   OH240641   5.548   6.802   2.681  0.1677 -0.5625 -0.7194
 6409TIP3    H140642   5.616   6.849   2.633 -1.0635  1.0536 -0.9699
 6409TIP3    H240643   5.470   6.811   2.627 -0.0173 -3.5287 -1.1142
 6410TIP3   OH240644   1.121   5.047  14.499 -0.1935  0.2922 -0.5872
 6410TIP3    H140645   1.048   4.990  14.479 -0.5132  0.6711 -0.5145
 6410TIP3    H240646   1.199   4.995  14.478 -0.4758 -0.1933 -0.4468
 6411TIP3   OH240647   3.540   1.128  11.797 -0.0781 -0.8415 -0.2240
 6411TIP3    H140648   3.545   1.039  11.765 -1.0916 -0.3569 -1.8198
 6411TIP3    H240649   3.552   1.183  11.719 -2.0890  0.3899  0.2685
 6412TIP3   OH240650   5.308   2.549  12.998  0.2796  0.4004 -0.3443
 6412TIP3    H140651   5.363   2.511  12.929  0.4454  0.7817 -0.4219
 6412TIP3    H240652   5.259   2.618  12.955 -0.5375 -0.1722 -0.3595
 6413TIP3   OH240653   4.555   4.298  14.874 -0.0990 -0.8779  0.1101
 6413TIP3    H140654   4.485   4.307  14.809  0.5899  0.4084 -0.5001
 6413TIP3    H240655   4.599   4.217  14.851  0.1923 -0.3959 -1.1340
 6414TIP3   OH240656   3.081   6.710   2.775  0.0764  0.3344  0.1729
 6414TIP3    H140657   3.000   6.684   2.732  1.0140 -2.1254 -0.2827
 6414TIP3    H240658   3.103   6.636   2.832  1.7127  1.1645  0.6899
 6415TIP3   OH240659   3.466   5.075  13.391 -0.7769 -0.1397  0.2291
 6415TIP3    H140660   3.404   5.120  13.334  0.0886  0.6246 -0.1390
 6415TIP3    H240661   3.543   5.060  13.336 -1.1347 -2.3657  0.2529
 6416TIP3   OH240662   1.368   0.342  16.112 -0.2078  0.0808  0.4654
 6416TIP3    H140663   1.431   0.331  16.041  1.5276 -1.1729  2.0879
 6416TIP3    H240664   1.378   0.433  16.139 -0.2560  0.3249 -0.3120
 6417TIP3   OH240665   4.955   3.339  15.195  0.1022  0.5879  0.3201
 6417TIP3    H140666   4.888   3.304  15.254 -0.6142 -1.9239 -1.8009
 6417TIP3    H240667   4.915   3.336  15.109  2.9258 -1.0583 -1.0525
 6418TIP3   OH240668   1.582   1.117   1.087 -0.4292 -0.1490 -0.8143
 6418TIP3    H140669   1.617   1.110   1.176 -2.4512  2.1538  0.2793
 6418TIP3    H240670   1.655   1.150   1.035 -0.0458  1.6950  0.7592
 6419TIP3   OH240671   1.178   5.924   4.556 -0.1234  0.3735 -0.2571
 6419TIP3    H140672   1.227   5.841   4.551  0.4974  0.7448 -0.4363
 6419TIP3    H240673   1.219   5.971   4.628 -1.1353  0.1196  0.5165
 6420TIP3   OH240674   0.178   3.372  15.803 -0.1152 -0.2988 -0.2984
 6420TIP3    H140675   0.155   3.293  15.852 -1.2962  1.1446  1.6498
 6420TIP3    H240676   0.097   3.398  15.760  0.4511 -0.5275 -1.5213
 6421TIP3   OH240677   1.084   1.046  16.696  0.1588 -0.2936 -0.2075
 6421TIP3    H140678   1.043   0.980  16.752  2.0009 -0.4604  1.0460
 6421TIP3    H240679   1.014   1.107  16.676 -1.3450 -2.0508 -0.5270
 6422TIP3   OH240680   4.058   6.541  12.857 -0.0432  0.0734  0.0133
 6422TIP3    H140681   4.015   6.557  12.773 -0.2325  0.1197  0.1201
 6422TIP3    H240682   3.987   6.528  12.919 -0.0060  2.2694  0.6297
 6423TIP3   OH240683   1.485   2.614  11.809  0.3561  0.3033 -0.1694
 6423TIP3    H140684   1.484   2.679  11.739 -1.2163  0.4195 -0.0675
 6423TIP3    H240685   1.505   2.531  11.765 -1.0053  0.3070 -0.8403
 6424TIP3   OH240686   0.461   4.553  12.735 -0.2996  0.3990  0.3605
 6424TIP3    H140687   0.483   4.480  12.677 -0.7571 -1.3653  2.2801
 6424TIP3    H240688   0.372   4.577  12.710 -0.4237 -0.2157  0.1938
 6425TIP3   OH240689   4.345   5.453   0.058 -0.1324  0.1335 -0.5359
 6425TIP3    H140690   4.321   5.544   0.041  3.1375  1.7522  2.2134
 6425TIP3    H240691   4.433   5.444   0.022 -0.9685 -2.5685 -2.1920
 6426TIP3   OH240692   1.899   3.496   4.192  0.1885 -0.0223  0.4014
 6426TIP3    H140693   1.959   3.450   4.251 -1.9507 -1.1183  1.8361
 6426TIP3    H240694   1.901   3.446   4.111  0.8452 -0.3246  0.5995
 6427TIP3   OH240695   6.465   3.053   0.807  0.3121  0.5929 -0.4364
 6427TIP3    H140696   6.396   3.053   0.740  1.4481  0.0823 -1.6720
 6427TIP3    H240697   6.450   2.973   0.857 -1.5368  1.7888  1.0609
 6428TIP3   OH240698   6.258   3.240  15.422 -0.1645  0.4692 -0.1281
 6428TIP3    H140699   6.218   3.305  15.480 -0.4489  1.2970 -1.2283
 6428TIP3    H240700   6.210   3.159  15.441  0.3397  0.5032  1.4156
 6429TIP3   OH240701   3.901   0.879  16.256 -0.3825 -0.3234  0.4383
 6429TIP3    H140702   3.927   0.970  16.245 -0.9998 -0.2962 -0.9757
 6429TIP3    H240703   3.828   0.883  16.317  1.2142 -0.1611  2.4392
 6430TIP3   OH240704   6.803   1.546   1.569 -0.4471 -0.2856 -0.2048
 6430TIP3    H140705   6.848   1.467   1.541  0.9971  1.3648 -2.9902
 6430TIP3    H240706   6.810   1.545   1.664  0.4766 -2.9257 -0.2281
 6431TIP3   OH240707   3.447   5.729   2.464  0.7078 -0.0895  0.7285
 6431TIP3    H140708   3.449   5.687   2.550  0.8346 -0.7294  0.4162
 6431TIP3    H240709   3.398   5.810   2.478 -0.8116 -1.0217  1.0388
 6432TIP3   OH240710   6.486   2.604   4.974  0.2231 -0.6678  0.2338
 6432TIP3    H140711   6.503   2.524   4.924  0.1676 -1.1131  0.9156
 6432TIP3    H240712   6.490   2.674   4.909 -1.9881 -1.4333 -0.8063
 6433TIP3   OH240713   5.712   5.056  16.421  0.2893  0.4023 -0.3354
 6433TIP3    H140714   5.731   4.991  16.354 -0.6103 -0.2650  0.0391
 6433TIP3    H240715   5.779   5.042  16.488 -1.9404 -2.6599  1.5010
 6434TIP3   OH240716   6.220   1.596   6.335  0.1128  0.0155  0.0331
 6434TIP3    H140717   6.202   1.526   6.398  2.0524 -1.5045 -0.9693
 6434TIP3    H240718   6.315   1.595   6.325  0.0089  1.4256 -1.5633
 6435TIP3   OH240719   6.797   5.189  13.512  0.0564  0.5198  0.9488
 6435TIP3    H140720   6.746   5.144  13.579  1.1414 -1.7597  0.3806
 6435TIP3    H240721   6.791   5.281  13.535 -1.3672  0.0178  2.9121
 6436TIP3   OH240722   1.440   2.975   3.494  0.0333 -0.3270  0.0156
 6436TIP3    H140723   1.519   2.921   3.492  0.2145 -0.0822  0.3887
 6436TIP3    H240724   1.400   2.963   3.408  1.6594  1.2609 -1.0412
 6437TIP3   OH240725   5.586   2.856  11.854  0.3835  0.0043 -0.3057
 6437TIP3    H140726   5.668   2.893  11.887 -0.5883  1.0712  1.0355
 6437TIP3    H240727   5.543   2.929  11.808  0.1928 -0.5605 -1.0514
 6438TIP3   OH240728   3.081   0.225  12.229  0.1641 -0.6611 -0.1772
 6438TIP3    H140729   3.158   0.184  12.268  0.0485 -0.4362  0.2972
 6438TIP3    H240730   3.066   0.176  12.148  2.0431  0.5724 -1.3902
 6439TIP3   OH240731   0.305   2.562   2.016  0.1300  0.2199  0.5786
 6439TIP3    H140732   0.353   2.612   1.950 -0.9155  1.0337  0.4277
 6439TIP3    H240733   0.276   2.484   1.970  0.2696  0.3005  0.3534
 6440TIP3   OH240734   4.355   5.043  17.007  0.1812 -0.9486 -0.1856
 6440TIP3    H140735   4.405   5.043  17.088 -0.8742 -0.3963  0.4937
 6440TIP3    H240736   4.408   5.094  16.946  0.8240 -1.0721  0.2619
 6441TIP3   OH240737   1.799   1.132  11.896 -0.2296 -0.1374 -0.4303
 6441TIP3    H140738   1.760   1.137  11.983  1.5868  0.3589  0.3999
 6441TIP3    H240739   1.755   1.201  11.846 -0.4564  0.3709  0.4514
 6442TIP3   OH240740   6.159   6.392  11.866 -0.0011 -0.5328  0.2776
 6442TIP3    H140741   6.129   6.304  11.845 -0.5308 -0.4950  0.8397
 6442TIP3    H240742   6.166   6.436  11.781 -0.4246 -0.9023  0.0499
 6443TIP3   OH240743   4.538   5.739   0.569  0.6159 -0.3051  0.0510
 6443TIP3    H140744   4.550   5.645   0.579 -0.0996 -0.5980 -1.5531
 6443TIP3    H240745   4.493   5.749   0.485  0.5125  1.4584  0.2744
 6444TIP3   OH240746   6.222   0.741   6.653 -0.2007  0.1561 -0.3216
 6444TIP3    H140747   6.185   0.815   6.701 -0.9488 -1.5508  1.8854
 6444TIP3    H240748   6.313   0.738   6.681 -0.7974 -1.2355  1.6209
 6445TIP3   OH240749   5.032   0.778  11.059 -0.3656  0.0382 -0.4933
 6445TIP3    H140750   5.052   0.862  11.100  1.5840 -1.2042  1.2951
 6445TIP3    H240751   5.076   0.781  10.975 -0.5752  0.9081 -0.5856
 6446TIP3   OH240752   6.156   6.315  12.639  0.2444 -0.7422  0.2306
 6446TIP3    H140753   6.081   6.329  12.582  0.4760 -2.2423 -0.5100
 6446TIP3    H240754   6.123   6.330  12.728  0.2696  3.1937 -0.2903
 6447TIP3   OH240755   3.274   5.007   1.676  0.1985 -0.3353 -0.0832
 6447TIP3    H140756   3.182   5.032   1.681  0.7032  1.5303  0.7787
 6447TIP3    H240757   3.274   4.927   1.625 -1.8583 -0.1152 -0.5235
 6448TIP3   OH240758   3.040   3.535  15.773 -0.1878  0.2813  0.5203
 6448TIP3    H140759   3.087   3.507  15.695 -0.7315 -0.8092  0.5609
 6448TIP3    H240760   3.108   3.548  15.839  0.3784  2.1486 -0.3515
 6449TIP3   OH240761   6.377   0.749   2.038  0.0145 -0.2896  0.4397
 6449TIP3    H140762   6.426   0.686   1.985 -0.0242 -0.2112  0.3105
 6449TIP3    H240763   6.443   0.790   2.093  0.5955  1.7438 -1.5784
 6450TIP3   OH240764   3.853   3.902   1.824 -0.0242 -0.0587 -0.0011
 6450TIP3    H140765   3.784   3.839   1.804 -0.4255  0.6380 -0.8687
 6450TIP3    H240766   3.871   3.946   1.741  0.8927  0.3417  0.3924
 6451TIP3   OH240767   3.841   1.729   1.047  0.4569 -0.0978 -0.0277
 6451TIP3    H140768   3.837   1.822   1.024  2.8816  0.0458 -0.0437
 6451TIP3    H240769   3.798   1.724   1.133 -1.6959  0.6071 -0.9758
 6452TIP3   OH240770   2.885   4.415  15.242  0.4112  0.0137 -0.0611
 6452TIP3    H140771   2.836   4.498  15.240 -0.2373 -0.3842 -1.7847
 6452TIP3    H240772   2.929   4.410  15.158 -0.3422 -1.8530 -0.3885
 6453TIP3   OH240773   4.769   0.543  14.507  0.0965  0.9318  0.1928
 6453TIP3    H140774   4.860   0.557  14.531  0.6087 -0.8936 -0.4977
 6453TIP3    H240775   4.722   0.539  14.591  0.7976  0.9750  0.5930
 6454TIP3   OH240776   3.717   0.403  11.076 -0.1029 -0.0666 -0.0640
 6454TIP3    H140777   3.669   0.423  11.157 -0.3660  0.3419 -0.3242
 6454TIP3    H240778   3.651   0.365  11.018 -0.0821  0.3914 -0.3811
 6455TIP3   OH240779   2.528   2.229  15.942  0.1413  0.0695 -0.1257
 6455TIP3    H140780   2.475   2.309  15.951 -0.9955 -0.5829 -0.8542
 6455TIP3    H240781   2.586   2.230  16.018 -0.9661  0.7702  0.7258
 6456TIP3   OH240782   4.793   3.000  12.724  0.9023  0.0031  0.5893
 6456TIP3    H140783   4.880   3.028  12.753  0.5026  1.4934  0.4220
 6456TIP3    H240784   4.764   3.067  12.663  0.0819 -1.0576 -0.2451
 6457TIP3   OH240785   5.240   2.283  16.700 -0.7058 -0.1479 -0.2800
 6457TIP3    H140786   5.264   2.200  16.742 -0.5420  0.3798  0.7267
 6457TIP3    H240787   5.173   2.320  16.758 -0.6772  0.4751 -0.6384
 6458TIP3   OH240788   4.982   0.135   0.237  0.3780 -0.0892 -0.4659
 6458TIP3    H140789   5.020   0.222   0.225 -0.6620  0.2257 -1.5914
 6458TIP3    H240790   5.049   0.087   0.286  1.6526  0.8473 -1.2265
 6459TIP3   OH240791   2.891   5.127  14.128  0.2680 -0.0896 -0.4822
 6459TIP3    H140792   2.811   5.080  14.106  0.4279 -0.0380 -1.2108
 6459TIP3    H240793   2.960   5.080  14.081  0.6668 -0.1322  0.1372
 6460TIP3   OH240794   4.767   4.580   2.302 -0.0144  0.0505  0.4293
 6460TIP3    H140795   4.788   4.624   2.384  1.2373  0.1902  0.0585
 6460TIP3    H240796   4.831   4.508   2.295 -1.4189 -1.2673  0.5651
 6461TIP3   OH240797   2.338   3.172  12.790 -0.5463  0.1157 -0.0163
 6461TIP3    H140798   2.310   3.116  12.718  1.2324 -0.1438 -0.5670
 6461TIP3    H240799   2.349   3.113  12.864 -3.2127  0.5117  0.7783
 6462TIP3   OH240800   2.490   2.374   5.016  0.2810  0.0735  0.5099
 6462TIP3    H140801   2.484   2.453   5.069 -0.2536 -0.1659  0.8239
 6462TIP3    H240802   2.439   2.394   4.938  3.4498  1.5086 -1.3824
 6463TIP3   OH240803   3.788   1.715  10.593  0.1079  0.1591 -0.0865
 6463TIP3    H140804   3.853   1.759  10.647 -1.0137  0.7149  0.8746
 6463TIP3    H240805   3.805   1.747  10.504  1.1646  0.2403  0.1315
 6464TIP3   OH240806   0.351   3.743  15.309 -0.0407 -0.7215  0.2647
 6464TIP3    H140807   0.426   3.712  15.359 -0.1330  0.4481  1.1930
 6464TIP3    H240808   0.275   3.717  15.362 -0.0867  1.8326  1.6112
 6465TIP3   OH240809   0.791   0.486  10.673 -0.1016 -0.1300 -0.5958
 6465TIP3    H140810   0.844   0.518  10.600 -0.7289 -0.3041 -1.1284
 6465TIP3    H240811   0.774   0.564  10.726 -1.5673  0.4549 -1.8527
 6466TIP3   OH240812   5.585   0.732  12.438 -0.3589 -0.1592 -0.6655
 6466TIP3    H140813   5.515   0.678  12.403 -0.8607  0.3032 -0.3920
 6466TIP3    H240814   5.627   0.678  12.505 -0.6934 -0.3024 -0.5731
 6467TIP3   OH240815   2.630   2.928  15.831  0.0559  0.2069  0.2737
 6467TIP3    H140816   2.557   2.923  15.769 -1.7113 -0.4328  2.3121
 6467TIP3    H240817   2.703   2.886  15.786 -0.3117  2.1851 -2.4242
 6468TIP3   OH240818   4.546   2.631  15.188  0.3649 -0.3022  0.2948
 6468TIP3    H140819   4.538   2.576  15.266  2.4509 -0.5224  0.4150
 6468TIP3    H240820   4.483   2.593  15.126  0.3244 -1.5861  1.0692
 6469TIP3   OH240821   5.567   6.548  16.721  0.0131  0.4027  0.4629
 6469TIP3    H140822   5.516   6.466  16.721 -0.9174  0.9332 -1.1192
 6469TIP3    H240823   5.543   6.591  16.803 -0.5311 -0.2790  0.6732
 6470TIP3   OH240824   4.108   2.886   0.760  0.0888 -0.1787 -0.4188
 6470TIP3    H140825   4.036   2.827   0.739  0.6893 -1.0822  0.0153
 6470TIP3    H240826   4.183   2.828   0.777  0.0351  0.5090  2.7228
 6471TIP3   OH240827   2.021   6.364  15.517 -0.0819  0.0788  0.7055
 6471TIP3    H140828   1.938   6.367  15.470 -0.6340  1.1009  1.7049
 6471TIP3    H240829   2.031   6.272  15.541  0.6743 -0.6726 -2.1299
 6472TIP3   OH240830   1.927   4.443  14.397 -0.3745  0.1511  0.1928
 6472TIP3    H140831   1.951   4.524  14.441 -0.6092  1.1512 -1.4125
 6472TIP3    H240832   2.001   4.385  14.411  1.1907  1.7244 -1.1505
 6473TIP3   OH240833   1.548   6.670   0.733  0.0861 -0.2777  0.3808
 6473TIP3    H140834   1.573   6.725   0.659 -0.5342  0.7928  0.9368
 6473TIP3    H240835   1.486   6.724   0.783 -0.3622 -1.3961  1.0777
 6474TIP3   OH240836   6.608   0.276   0.237 -0.2151 -0.1194  0.1252
 6474TIP3    H140837   6.694   0.233   0.240  0.8497  1.9218  0.9396
 6474TIP3    H240838   6.569   0.257   0.323  0.5169  0.9770  0.7251
 6475TIP3   OH240839   0.570   2.756   4.737  0.5396 -0.1202 -0.1314
 6475TIP3    H140840   0.509   2.727   4.805 -1.9154  1.1934 -1.6183
 6475TIP3    H240841   0.562   2.691   4.668 -0.6624  0.9880 -1.0968
 6476TIP3   OH240842   5.291   2.284  17.069  0.2158 -0.0777  0.2781
 6476TIP3    H140843   5.375   2.318  17.097  1.0226 -1.0111 -0.9098
 6476TIP3    H240844   5.308   2.192  17.047 -0.3710  0.4355 -2.8482
 6477TIP3   OH240845   1.831   6.007   5.880 -0.0509  0.4080  0.6092
 6477TIP3    H140846   1.798   6.053   5.957 -0.4940 -2.4109  2.2456
 6477TIP3    H240847   1.752   5.979   5.834  0.1987  2.4869 -1.2675
 6478TIP3   OH240848   5.080   1.803   4.857  0.8316  0.5038 -0.1598
 6478TIP3    H140849   5.029   1.882   4.873  0.9839  0.8857 -1.4540
 6478TIP3    H240850   5.089   1.763   4.944  1.3547  2.2543  0.6550
 6479TIP3   OH240851   5.666   5.260   4.776  0.3666 -0.0843  0.2721
 6479TIP3    H140852   5.717   5.189   4.737 -0.5106 -0.0689 -0.9622
 6479TIP3    H240853   5.583   5.259   4.728  0.4022  1.8965  0.0864
 6480TIP3   OH240854   6.547   5.482   4.956 -0.2602 -0.5915  0.1185
 6480TIP3    H140855   6.519   5.556   4.902  0.6789  1.2546  2.0302
 6480TIP3    H240856   6.480   5.475   5.024 -0.3502 -1.5353 -0.0534
 6481TIP3   OH240857   0.167   6.757   3.742  0.2846  0.3885 -0.3655
 6481TIP3    H140858   0.229   6.691   3.774 -0.4925  0.6498  1.8874
 6481TIP3    H240859   0.087   6.741   3.793 -0.1973  2.5059 -0.3699
 6482TIP3   OH240860   2.430   1.575   0.749 -0.7501  0.2266 -0.3936
 6482TIP3    H140861   2.367   1.615   0.808 -2.5855  0.4151 -2.3383
 6482TIP3    H240862   2.488   1.523   0.806 -4.1046 -1.9365  1.3955
 6483TIP3   OH240863   5.581   3.374  12.944  0.5741 -0.2795  0.1947
 6483TIP3    H140864   5.651   3.433  12.972  0.3172  0.9592 -1.6032
 6483TIP3    H240865   5.601   3.353  12.853 -1.8492  0.9386 -0.7070
 6484TIP3   OH240866   0.611   5.114  10.815 -0.2746  0.4211 -0.6098
 6484TIP3    H140867   0.574   5.033  10.781 -1.0051  0.7207 -0.5662
 6484TIP3    H240868   0.589   5.180  10.749 -1.0950  0.8743  0.0840
 6485TIP3   OH240869   0.567   3.743  11.856 -0.6154 -0.1600 -0.0581
 6485TIP3    H140870   0.501   3.793  11.808  0.0725 -0.0044 -0.8668
 6485TIP3    H240871   0.532   3.654  11.860 -1.2451  0.0979  0.2404
 6486TIP3   OH240872   2.610   4.577   2.973 -0.4681 -0.0196 -0.0850
 6486TIP3    H140873   2.624   4.539   3.059 -1.4777  2.5852  1.3268
 6486TIP3    H240874   2.556   4.655   2.989  2.1309  2.5637 -2.5787
 6487TIP3   OH240875   2.475   2.232  16.638 -0.1450 -0.0631 -0.1519
 6487TIP3    H140876   2.528   2.203  16.563 -0.3231  1.3402 -0.8478
 6487TIP3    H240877   2.532   2.293  16.685 -0.1459 -0.7083  0.7149
 6488TIP3   OH240878   6.770   0.269  10.894 -0.8758  0.5718  0.4416
 6488TIP3    H140879   6.737   0.356  10.918  0.5617  1.0215  0.8590
 6488TIP3    H240880   6.853   0.286  10.850 -0.4078 -0.6128  0.8390
 6489TIP3   OH240881   1.526   5.919  11.811 -0.1820 -0.3705  0.0762
 6489TIP3    H140882   1.553   5.935  11.721 -0.1497  0.5333  0.2298
 6489TIP3    H240883   1.441   5.961  11.819 -0.3942 -0.8428  0.3431
 6490TIP3   OH240884   1.483   4.436   2.454  0.6294 -0.3255  0.0895
 6490TIP3    H140885   1.542   4.393   2.516 -0.1101 -1.3740  0.0898
 6490TIP3    H240886   1.412   4.372   2.440  0.3903  0.2057 -1.2362
 6491TIP3   OH240887   6.761   1.772   3.636 -0.0533  0.3561 -0.3185
 6491TIP3    H140888   6.675   1.794   3.672 -0.1289  0.9352 -0.8339
 6491TIP3    H240889   6.798   1.711   3.699 -1.3671 -0.9357 -0.7211
 6492TIP3   OH240890   6.017   6.341   4.102 -0.3357  0.1861  0.4448
 6492TIP3    H140891   6.062   6.396   4.166  1.1793  0.3338 -0.6851
 6492TIP3    H240892   6.012   6.255   4.143  0.9181  0.1939  0.6673
 6493TIP3   OH240893   2.573   5.022  16.728  0.2863  0.2259  0.4220
 6493TIP3    H140894   2.555   4.934  16.763  2.2357 -0.6252 -0.5541
 6493TIP3    H240895   2.576   5.078  16.805 -2.5133 -0.1923  0.9610
 6494TIP3   OH240896   4.468   5.790  12.384 -0.4007  0.1829 -0.1172
 6494TIP3    H140897   4.519   5.828  12.456  0.7812  0.4388 -1.0702
 6494TIP3    H240898   4.448   5.864  12.327  0.2450 -0.2953 -0.9824
 6495TIP3   OH240899   5.428   3.734  17.021 -0.0481 -0.1024  0.5142
 6495TIP3    H140900   5.471   3.729  16.936 -0.6082 -0.5359  0.2539
 6495TIP3    H240901   5.470   3.808  17.064  0.4102 -0.0283 -0.0391
 6496TIP3   OH240902   4.004   6.743   1.183  0.5546  0.2118  0.3952
 6496TIP3    H140903   3.971   6.680   1.248  0.1331 -0.4673 -0.4547
 6496TIP3    H240904   4.098   6.727   1.180  0.3401 -1.0858 -0.5009
 6497TIP3   OH240905   1.749   5.715  12.790  0.3247  0.1904  0.4788
 6497TIP3    H140906   1.782   5.657  12.858  2.6160  0.9564  0.1049
 6497TIP3    H240907   1.671   5.755  12.829 -0.0233 -1.4378  1.5562
 6498TIP3   OH240908   6.023   3.605  16.995  0.2249  0.2295 -0.6404
 6498TIP3    H140909   5.963   3.679  17.000 -0.2975 -0.0266 -2.6190
 6498TIP3    H240910   6.060   3.610  16.907  1.9865 -0.4974  0.0151
 6499TIP3   OH240911   6.041   6.741  16.547 -0.0962 -0.1119  0.2067
 6499TIP3    H140912   5.965   6.734  16.605 -0.3971  0.3889 -0.1139
 6499TIP3    H240913   6.021   6.816  16.492 -0.2773 -1.1554 -1.2111
 6500TIP3   OH240914   6.386   5.170   2.101  0.2050  0.3824  0.4371
 6500TIP3    H140915   6.324   5.190   2.031  0.1829  1.6277  0.7864
 6500TIP3    H240916   6.427   5.088   2.075 -0.5076  0.3302 -0.5468
 6501TIP3   OH240917   6.538   5.036   6.041 -0.2202 -0.0303  0.3189
 6501TIP3    H140918   6.483   5.033   6.119 -1.5739 -1.6102 -0.6455
 6501TIP3    H240919   6.477   5.046   5.968  0.7552 -1.5549 -0.7678
 6502TIP3   OH240920   1.963   4.354  11.209  0.0976 -0.3808  0.1554
 6502TIP3    H140921   1.972   4.261  11.231  0.0882  0.0467  2.0752
 6502TIP3    H240922   1.906   4.390  11.276 -0.9499  0.7893 -1.2901
 6503TIP3   OH240923   6.771   3.247  13.653 -0.3293 -0.2483  0.3056
 6503TIP3    H140924   6.755   3.275  13.743 -3.5172  1.6932 -0.7060
 6503TIP3    H240925   6.853   3.290  13.629 -0.6277  1.1205  1.5789
 6504TIP3   OH240926   1.271   3.074  16.292  0.4061 -0.0353 -0.0861
 6504TIP3    H140927   1.277   3.046  16.201  0.8717  1.5879 -0.5979
 6504TIP3    H240928   1.356   3.050  16.330  1.6854  2.4969 -1.1143
 6505TIP3   OH240929   6.172   1.532  15.324 -0.2278  0.1799 -0.3384
 6505TIP3    H140930   6.190   1.543  15.231 -0.3680 -2.2666 -0.7358
 6505TIP3    H240931   6.076   1.529  15.330 -0.2082 -0.5627 -0.2696
 6506TIP3   OH240932   3.020   5.294   0.641 -0.4520 -0.0416  0.1925
 6506TIP3    H140933   2.950   5.241   0.680 -1.1002  0.7431  0.1302
 6506TIP3    H240934   3.098   5.269   0.690 -0.3158 -2.4392 -1.0640
 6507TIP3   OH240935   2.061   5.850  10.678  0.2257  0.5912 -0.2835
 6507TIP3    H140936   2.043   5.778  10.739 -0.0723 -0.0885 -1.1581
 6507TIP3    H240937   1.980   5.860  10.628 -0.6132  3.1508  1.4092
 6508TIP3   OH240938   4.103   4.957   3.458 -0.3171  0.3112  0.0818
 6508TIP3    H140939   4.164   4.892   3.422  0.4056  0.8299  0.3299
 6508TIP3    H240940   4.106   5.029   3.395  0.8970  1.1953  1.0875
 6509TIP3   OH240941   4.747   6.820  12.477  0.0206 -0.1512 -0.0155
 6509TIP3    H140942   4.832   6.855  12.504  1.1651 -2.1992 -0.7971
 6509TIP3    H240943   4.714   6.885  12.414  0.7186  0.9542  0.7320
 6510TIP3   OH240944   6.285   6.137   0.280  0.1841 -0.3891 -0.0927
 6510TIP3    H140945   6.250   6.225   0.292 -1.1145 -0.7883 -0.7628
 6510TIP3    H240946   6.212   6.087   0.243  1.2039 -1.4896 -0.6870
 6511TIP3   OH240947   5.363   2.542   0.651 -0.1919  0.3661 -0.3146
 6511TIP3    H140948   5.292   2.529   0.589  0.3783 -0.5490 -0.7926
 6511TIP3    H240949   5.425   2.472   0.632 -0.2540 -0.3064  1.6481
 6512TIP3   OH240950   4.058   2.837   6.352  0.1410  0.0070  0.2725
 6512TIP3    H140951   4.024   2.770   6.293  2.5829 -0.8550 -0.2547
 6512TIP3    H240952   4.153   2.835   6.339  0.4790  1.9881  1.9407
 6513TIP3   OH240953   6.381   4.452  11.583  0.4699 -0.5992 -0.2460
 6513TIP3    H140954   6.417   4.483  11.500  1.6168 -0.7156  0.1838
 6513TIP3    H240955   6.348   4.531  11.626 -2.5056 -0.8196 -1.8465
 6514TIP3   OH240956   0.737   0.267   0.202  0.5386  1.1151  0.5818
 6514TIP3    H140957   0.677   0.320   0.255  0.7286  0.5291  1.3994
 6514TIP3    H240958   0.681   0.223   0.139  0.1445  0.8487  1.1103
 6515TIP3   OH240959   3.209   4.632   1.909 -0.1421  0.7763 -0.2874
 6515TIP3    H140960   3.241   4.719   1.934 -0.1073  0.9910 -1.0673
 6515TIP3    H240961   3.285   4.574   1.918 -0.5345  0.4970  1.7641
 6516TIP3   OH240962   4.059   3.753  14.821  0.4241 -0.2057  0.2506
 6516TIP3    H140963   4.075   3.770  14.728  0.9248  0.2357  0.4104
 6516TIP3    H240964   4.054   3.657  14.827 -0.8124 -0.2023 -0.4100
 6517TIP3   OH240965   3.551   6.486   0.799 -0.2302  0.2272  0.5051
 6517TIP3    H140966   3.612   6.549   0.762  0.0662 -0.7672 -0.7438
 6517TIP3    H240967   3.470   6.500   0.750  0.3806 -1.6040 -1.1202
 6518TIP3   OH240968   1.671   4.033   1.742  0.5820  0.1620 -0.4943
 6518TIP3    H140969   1.613   3.995   1.677 -0.2495  0.4906  0.0393
 6518TIP3    H240970   1.683   3.965   1.808  3.1266 -0.9596 -1.9653
 6519TIP3   OH240971   0.040   2.261  16.884 -0.3144  0.1113  0.3364
 6519TIP3    H140972   0.107   2.206  16.844 -1.2486  1.8574 -4.1830
 6519TIP3    H240973   0.069   2.351  16.868 -3.2292  0.9221 -1.1249
 6520TIP3   OH240974   3.953   1.449   4.246 -0.0929  0.4012 -0.1355
 6520TIP3    H140975   4.041   1.487   4.246 -1.1737  3.1836  0.9112
 6520TIP3    H240976   3.942   1.415   4.158  2.3280 -0.8591 -0.0320
 6521TIP3   OH240977   1.020   2.127  16.170 -0.5698  0.3423  0.2840
 6521TIP3    H140978   1.003   2.108  16.078 -0.2836 -0.6453  0.4166
 6521TIP3    H240979   1.108   2.164  16.171 -0.0262 -0.9091  0.2835
 6522TIP3   OH240980   5.765   0.071  11.494 -0.1766  0.3203  0.0080
 6522TIP3    H140981   5.815   0.075  11.576 -0.2797 -1.2401  0.1674
 6522TIP3    H240982   5.832   0.063  11.426 -0.1448 -0.9559  0.1605
 6523TIP3   OH240983   3.563   4.753   2.324 -0.4840  0.0257  0.2081
 6523TIP3    H140984   3.611   4.778   2.403  0.4892 -2.0587  0.3574
 6523TIP3    H240985   3.586   4.821   2.260  0.9643  0.2670  0.9276
 6524TIP3   OH240986   3.731   0.934   6.355  0.0798 -0.5321  0.7749
 6524TIP3    H140987   3.668   0.883   6.406 -1.3365  1.1547  0.7885
 6524TIP3    H240988   3.712   0.912   6.264 -0.0491 -0.5739  0.8123
 6525TIP3   OH240989   0.097   0.498   4.868  0.3904  0.6454  0.1173
 6525TIP3    H140990   0.183   0.534   4.846 -0.4890  1.8644 -1.5377
 6525TIP3    H240991   0.103   0.405   4.846  0.8568  1.0073 -1.3792
 6526TIP3   OH240992   1.953   5.014  12.575  0.3050 -0.6243 -0.2736
 6526TIP3    H140993   2.005   5.006  12.655  0.6631 -0.0685 -0.4463
 6526TIP3    H240994   1.904   5.095  12.586 -1.1068 -1.5132  0.2137
 6527TIP3   OH240995   4.211   0.011  13.888  0.3548 -0.6608  0.0013
 6527TIP3    H140996   4.263  -0.067  13.868  1.0681 -0.4671  1.0631
 6527TIP3    H240997   4.224   0.026  13.981 -0.6512  0.1053  0.0340
 6528TIP3   OH240998   4.096   2.179  11.873  0.2293 -0.0962  0.4710
 6528TIP3    H140999   4.095   2.086  11.852  2.5469  0.0662 -0.7459
 6528TIP3    H241000   4.049   2.221  11.801  2.3710 -0.1027 -1.0353
 6529TIP3   OH241001   3.800   5.320  11.780  0.2806 -0.0918  0.2983
 6529TIP3    H141002   3.776   5.394  11.836 -1.7060 -0.5621  0.1347
 6529TIP3    H241003   3.858   5.267  11.834 -2.3850 -1.0704  2.3976
 6530TIP3   OH241004   0.232   2.815  14.758  0.2589 -0.7703  0.0960
 6530TIP3    H141005   0.207   2.901  14.792  2.0702  1.3147 -3.2453
 6530TIP3    H241006   0.171   2.754  14.799 -0.7164  1.9421  3.1461
 6531TIP3   OH241007   1.218   3.812   1.006  0.4300  0.4400  0.2545
 6531TIP3    H141008   1.167   3.769   1.074  0.2521 -2.2147 -1.4156
 6531TIP3    H241009   1.192   3.904   1.011 -3.3388 -0.4929  0.5444
 6532TIP3   OH241010   6.722   4.651  14.601  0.3627 -0.1171  0.0373
 6532TIP3    H141011   6.772   4.578  14.639  0.2936  0.5082  1.3584
 6532TIP3    H241012   6.782   4.689  14.537  1.6359  0.6379  1.6224
 6533TIP3   OH241013   2.542   2.080  13.432 -0.0087  0.2491  0.5973
 6533TIP3    H141014   2.569   2.003  13.483  0.4629  0.1111  0.1511
 6533TIP3    H241015   2.607   2.147  13.454 -0.0920  0.3456  0.5508
 6534TIP3   OH241016   1.519   0.130  15.972 -0.1811  0.3605  0.2667
 6534TIP3    H141017   1.593   0.117  15.913  0.3437  1.8045  0.5458
 6534TIP3    H241018   1.558   0.127  16.060 -0.8651 -1.2470  0.5423
 6535TIP3   OH241019   3.006   0.246   2.368 -0.5093 -0.2736 -0.6409
 6535TIP3    H141020   3.100   0.241   2.349 -0.0192  1.3358  1.0637
 6535TIP3    H241021   2.996   0.199   2.451 -1.4013 -1.2415 -1.2757
 6536TIP3   OH241022   5.215   5.702  13.565  0.4460  0.2804  0.0687
 6536TIP3    H141023   5.199   5.630  13.626 -0.6391 -0.7483 -1.3304
 6536TIP3    H241024   5.147   5.766  13.583  0.4067  0.1885  0.2403
 6537TIP3   OH241025   5.139   3.056   5.153 -0.1565 -0.7188 -0.4388
 6537TIP3    H141026   5.049   3.087   5.146 -0.4012 -1.3989 -0.3748
 6537TIP3    H241027   5.161   3.025   5.065 -0.2850 -1.3470 -0.2543
 6538TIP3   OH241028   0.670   2.451   3.653 -0.1343 -0.2628 -0.2423
 6538TIP3    H141029   0.718   2.434   3.735  2.5586 -0.4013 -1.7218
 6538TIP3    H241030   0.631   2.367   3.631  0.9856 -0.8268 -0.1748
 6539TIP3   OH241031   2.975   4.246  16.498  0.2023  0.7579  0.5547
 6539TIP3    H141032   2.951   4.269  16.588  0.6674  1.9514  0.3940
 6539TIP3    H241033   2.943   4.320  16.445  0.5682  0.4124 -0.1621
 6540TIP3   OH241034   2.988   5.427   5.223  0.0607  0.1364 -0.6117
 6540TIP3    H141035   2.966   5.384   5.305 -0.3457  1.1326 -0.1935
 6540TIP3    H241036   3.033   5.359   5.172 -0.7024 -0.8212 -0.0305
 6541TIP3   OH241037   3.851   0.135  11.164 -0.1045 -0.3121  0.1848
 6541TIP3    H141038   3.860   0.227  11.189  0.1629  0.1037 -1.3852
 6541TIP3    H241039   3.802   0.137  11.082  0.9680 -1.4957 -0.5154
 6542TIP3   OH241040   4.125   0.863   3.993 -0.3482  0.6371  0.4012
 6542TIP3    H141041   4.125   0.767   3.991 -1.5130  0.6327 -0.6939
 6542TIP3    H241042   4.214   0.887   3.969 -0.1837 -0.1711  0.1503
 6543TIP3   OH241043   1.785   2.467   4.719 -0.0894  0.5939  0.2198
 6543TIP3    H141044   1.783   2.493   4.811 -1.1746  1.7197 -0.0925
 6543TIP3    H241045   1.727   2.392   4.714  1.1039 -0.3954  0.6867
 6544TIP3   OH241046   4.490   6.678  14.779 -0.0412  0.0482  0.1834
 6544TIP3    H141047   4.406   6.659  14.819 -0.0236 -0.4590 -0.0220
 6544TIP3    H241048   4.476   6.664  14.685  0.1186  0.5125  0.0843
 6545TIP3   OH241049   1.092   0.932   5.210 -0.2197 -0.6035 -0.2764
 6545TIP3    H141050   1.165   0.908   5.267  1.7290  0.4885 -2.1561
 6545TIP3    H241051   1.014   0.900   5.255  1.3824 -1.5642  1.9668
 6546TIP3   OH241052   0.768   3.396   0.606 -0.1513  0.0778  0.8839
 6546TIP3    H141053   0.805   3.395   0.694  0.3052  1.9755  0.7608
 6546TIP3    H241054   0.837   3.432   0.551  0.0442 -2.2908 -0.5473
 6547TIP3   OH241055   3.680   4.394  13.286 -0.2498  0.2448 -0.9776
 6547TIP3    H141056   3.712   4.316  13.332  1.1894  0.9041 -0.7900
 6547TIP3    H241057   3.647   4.451  13.355  0.9796  0.8138 -0.8411
 6548TIP3   OH241058   6.773   1.471   5.586  0.5225 -0.2701  1.0478
 6548TIP3    H141059   6.693   1.458   5.535  0.2083  0.9485  1.1904
 6548TIP3    H241060   6.763   1.558   5.623  1.9632 -0.0589  0.9947
 6549TIP3   OH241061   1.209   2.179  14.748 -0.2882 -0.0890 -0.1455
 6549TIP3    H141062   1.178   2.201  14.836  0.9317  0.9918  0.0391
 6549TIP3    H241063   1.303   2.191  14.751 -0.3941  2.1366 -2.1608
 6550TIP3   OH241064   6.749   4.020   4.959 -0.2792 -0.3804 -0.0718
 6550TIP3    H141065   6.833   3.986   4.927 -0.2018  0.5223 -0.8736
 6550TIP3    H241066   6.683   3.966   4.914 -0.1378 -0.1492 -0.5719
 6551TIP3   OH241067   5.099   1.979  11.045  0.5888  0.2466  0.3886
 6551TIP3    H141068   5.157   1.927  10.989 -0.6850 -1.6695  0.7720
 6551TIP3    H241069   5.060   1.916  11.105 -1.3096  1.5810  0.6511
 6552TIP3   OH241070   5.451   2.578   0.934  0.8396 -0.7370  0.0829
 6552TIP3    H141071   5.380   2.572   0.870 -1.2337 -1.1025  2.3122
 6552TIP3    H241072   5.497   2.659   0.910  1.3121 -1.7452 -2.9001
 6553TIP3   OH241073   2.366   2.065  12.595  0.1973  0.0042 -0.1667
 6553TIP3    H141074   2.396   1.983  12.631 -1.6820 -0.6584 -0.0100
 6553TIP3    H241075   2.446   2.113  12.574  1.3598 -0.5396  2.6171
 6554TIP3   OH241076   6.731   4.361   1.909  0.2058 -0.2525 -0.4077
 6554TIP3    H141077   6.725   4.388   2.001 -0.4527  1.8536 -0.9916
 6554TIP3    H241078   6.822   4.375   1.886  0.2265 -0.1196 -0.2479
 6555TIP3   OH241079   0.547   5.614  12.623 -0.0186  0.0728 -0.2830
 6555TIP3    H141080   0.566   5.699  12.661 -1.1915  0.0958  0.2971
 6555TIP3    H241081   0.538   5.630  12.529 -1.8767  0.9200  0.0015
 6556TIP3   OH241082   3.460   0.106   2.899  0.4938 -0.2898 -0.1894
 6556TIP3    H141083   3.381   0.088   2.950  0.4230 -0.9146 -0.4982
 6556TIP3    H241084   3.464   0.201   2.892  0.4930 -0.1976  0.9510
 6557TIP3   OH241085   2.487   0.947   2.436  0.5221 -0.2297 -0.0142
 6557TIP3    H141086   2.394   0.928   2.426  0.4102 -0.4537  1.3032
 6557TIP3    H241087   2.531   0.882   2.381 -0.0144 -1.7463  1.3042
 6558TIP3   OH241088   2.342   3.318  12.157 -0.3516  0.0228  0.4939
 6558TIP3    H141089   2.257   3.275  12.158  0.3402 -1.3695  0.7196
 6558TIP3    H241090   2.393   3.273  12.224  1.6358 -1.4134 -1.8447
 6559TIP3   OH241091   5.235   1.003  10.935  0.1375 -0.2382  0.1393
 6559TIP3    H141092   5.310   1.041  10.889  1.6523 -0.5845  2.1795
 6559TIP3    H241093   5.172   0.983  10.866  1.9929 -0.1048 -1.6909
 6560TIP3   OH241094   2.487   5.735  11.392  0.2789  0.5172 -0.3147
 6560TIP3    H141095   2.488   5.740  11.488  0.4226  0.2680 -0.3017
 6560TIP3    H241096   2.539   5.810  11.364 -1.7286  2.0277 -0.2699
 6561TIP3   OH241097   0.940   3.412  15.783 -1.0748  0.8334  0.4660
 6561TIP3    H141098   0.923   3.436  15.693  0.4456  0.2050 -0.0321
 6561TIP3    H241099   0.990   3.485  15.819  0.5495  0.0063 -0.0104
 6562TIP3   OH241100   5.844   4.109  15.405 -0.3757  0.3049 -0.4026
 6562TIP3    H141101   5.756   4.092  15.373 -1.2106  1.7156  1.0169
 6562TIP3    H241102   5.887   4.158  15.335 -0.8809  0.0753 -0.8756
 6563TIP3   OH241103   0.498   0.931  13.226 -0.0204  0.3279  0.1376
 6563TIP3    H141104   0.592   0.950  13.221  0.6496 -2.8164 -1.3512
 6563TIP3    H241105   0.474   0.905  13.137 -2.3864  1.1814  0.4560
 6564TIP3   OH241106   2.156   2.219  11.575 -0.1938 -0.1271 -0.3969
 6564TIP3    H141107   2.122   2.214  11.665  0.3439 -0.5902 -0.2168
 6564TIP3    H241108   2.194   2.132  11.559  1.1182  0.4512 -0.5113
 6565TIP3   OH241109   4.808   1.728  15.535 -0.3150  1.0128 -0.4594
 6565TIP3    H141110   4.717   1.700  15.524  0.8578 -2.8198 -2.0220
 6565TIP3    H241111   4.834   1.693  15.620  0.0106  1.0782 -0.5315
 6566TIP3   OH241112   1.893   1.458   3.565 -0.2514 -0.3455 -0.2075
 6566TIP3    H141113   1.944   1.382   3.537 -2.3150 -1.5919 -0.8424
 6566TIP3    H241114   1.841   1.425   3.639  0.6831  1.2100  1.1910
 6567TIP3   OH241115   2.208   1.122  12.134 -0.3598  0.1914  0.0834
 6567TIP3    H141116   2.189   1.213  12.111 -1.2108  0.3306  1.2564
 6567TIP3    H241117   2.122   1.082  12.145  0.0072 -0.3537  1.0897
 6568TIP3   OH241118   1.071   0.215   1.784  0.5472 -0.4234 -0.0305
 6568TIP3    H141119   1.102   0.216   1.875  0.7733 -0.7847 -0.1025
 6568TIP3    H241120   1.071   0.122   1.760  1.4486 -0.2649 -0.7199
 6569TIP3   OH241121   0.284   4.607   4.835  0.1821 -0.0898  0.2086
 6569TIP3    H141122   0.258   4.680   4.778  0.3074  0.2839  0.6224
 6569TIP3    H241123   0.307   4.649   4.918  1.1185 -0.5186  0.1716
 6570TIP3   OH241124   6.381   5.128  11.604 -0.1533 -0.0616 -0.0736
 6570TIP3    H141125   6.423   5.045  11.583 -0.1811  0.0694 -0.6819
 6570TIP3    H241126   6.420   5.191  11.543 -0.7494  0.1974 -0.2016
 6571TIP3   OH241127   1.619   2.535  13.737 -0.3999 -0.4362 -0.0340
 6571TIP3    H141128   1.700   2.517  13.689 -1.3342 -0.9701 -1.4455
 6571TIP3    H241129   1.584   2.449  13.759  0.8175 -0.2748  3.1581
 6572TIP3   OH241130   5.476   0.286  10.340 -0.1102  0.0034  0.1110
 6572TIP3    H141131   5.553   0.238  10.372  0.6223  1.2770  0.3103
 6572TIP3    H241132   5.510   0.342  10.270 -1.5125 -2.0054 -2.3190
 6573TIP3   OH241133   1.282   1.111   1.447  0.4222  0.0344 -0.1458
 6573TIP3    H141134   1.309   1.083   1.359  0.1110  1.5408 -0.7642
 6573TIP3    H241135   1.211   1.052   1.471 -0.0538  0.1131 -1.2868
 6574TIP3   OH241136   2.707   3.853   2.993  0.1051  0.4059 -0.3230
 6574TIP3    H141137   2.752   3.777   2.957 -0.0462  1.7387 -3.6738
 6574TIP3    H241138   2.622   3.854   2.949 -0.3883  1.8082  0.5803
 6575TIP3   OH241139   3.006   0.375  12.464 -0.2252 -0.1525  0.3185
 6575TIP3    H141140   2.934   0.432  12.437  0.3518  0.8594  0.8244
 6575TIP3    H241141   3.032   0.330  12.384 -0.3914  0.6543 -0.2084
 6576TIP3   OH241142   3.672   0.420  16.392 -0.2616  0.1575 -0.5403
 6576TIP3    H141143   3.765   0.408  16.411 -0.3712 -0.1949 -0.1949
 6576TIP3    H241144   3.660   0.514  16.391  0.1464  0.2115 -0.8276
 6577TIP3   OH241145   2.067   5.806  16.431 -0.2627 -0.1220 -0.0095
 6577TIP3    H141146   2.033   5.888  16.394 -1.6624 -0.2413  0.9853
 6577TIP3    H241147   2.138   5.834  16.489  1.1565  0.1511 -1.7744
 6578TIP3   OH241148   1.464   0.942   4.896  0.0882 -0.0357 -0.2235
 6578TIP3    H141149   1.469   1.032   4.863 -0.6749  0.6103  1.3099
 6578TIP3    H241150   1.371   0.920   4.893  0.3971 -1.4175 -2.0572
 6579TIP3   OH241151   0.369   2.821  11.759  0.1282 -0.0111 -0.2128
 6579TIP3    H141152   0.305   2.762  11.720  0.5877 -1.3017  0.8934
 6579TIP3    H241153   0.343   2.909  11.730 -1.7693 -0.5600 -0.2550
 6580TIP3   OH241154   1.929   2.743  13.909 -0.0994  0.9092 -0.0140
 6580TIP3    H141155   2.016   2.746  13.951  0.2074  1.8923 -0.6834
 6580TIP3    H241156   1.878   2.809  13.956  0.1276  1.7379 -0.9169
 6581TIP3   OH241157   1.199   2.306   4.050 -0.4864 -0.5222 -0.2287
 6581TIP3    H141158   1.162   2.325   4.136 -1.8153  0.0059 -0.8837
 6581TIP3    H241159   1.294   2.307   4.064 -0.5335  2.5954  0.6432
 6582TIP3   OH241160   1.388   1.755  12.323 -0.1418 -0.2550  0.0555
 6582TIP3    H141161   1.335   1.807  12.384  0.9941 -0.8449  1.6075
 6582TIP3    H241162   1.337   1.755  12.241 -2.5663 -0.8666  1.4607
 6583TIP3   OH241163   5.589   4.886  13.656  0.4633  0.5466  0.1882
 6583TIP3    H141164   5.526   4.919  13.721 -1.7319 -0.2769 -1.3832
 6583TIP3    H241165   5.624   4.965  13.615 -1.2110  1.0687 -0.3482
 6584TIP3   OH241166   4.901   4.953   5.496  0.3878  0.1005  0.5045
 6584TIP3    H141167   4.854   5.021   5.448  0.1600 -0.5423 -0.2193
 6584TIP3    H241168   4.839   4.880   5.501  1.5500 -1.1006 -1.2412
 6585TIP3   OH241169   0.218   5.026  14.302  0.3781 -0.1184  0.1201
 6585TIP3    H141170   0.227   5.022  14.206  0.4942 -1.3785  0.1653
 6585TIP3    H241171   0.208   5.119  14.321  0.2171  0.1418 -1.1324
 6586TIP3   OH241172   6.811   5.791  13.980 -0.7548 -0.0344  0.0995
 6586TIP3    H141173   6.905   5.798  13.999 -0.5202 -3.0432  0.4035
 6586TIP3    H241174   6.806   5.780  13.885 -0.7745 -0.4059  0.1452
 6587TIP3   OH241175   4.316   4.939   4.320  0.0943  0.2198 -0.0010
 6587TIP3    H141176   4.403   4.900   4.314 -0.2604 -0.6845  0.4938
 6587TIP3    H241177   4.266   4.898   4.250 -0.5136 -0.8777  1.0362
 6588TIP3   OH241178   5.862   0.739   3.827 -0.3056 -0.0450 -0.4578
 6588TIP3    H141179   5.828   0.720   3.740 -2.3903 -0.4955  0.4020
 6588TIP3    H241180   5.808   0.812   3.858  2.1804  1.9639 -0.5320
 6589TIP3   OH241181   3.364   6.713   4.018  0.2109 -0.2616 -0.0978
 6589TIP3    H141182   3.398   6.787   3.968 -0.1099  0.0789  0.1847
 6589TIP3    H241183   3.323   6.752   4.095 -1.8570 -0.5717 -0.9814
 6590TIP3   OH241184   4.619   4.658   3.799 -0.4911 -0.2284 -0.2693
 6590TIP3    H141185   4.689   4.723   3.810 -1.4043  0.3561  3.0940
 6590TIP3    H241186   4.649   4.582   3.848 -1.1583 -0.9253 -0.9058
 6591TIP3   OH241187   5.624   4.401   3.057 -0.1090  0.0336  0.0884
 6591TIP3    H141188   5.674   4.422   3.136 -1.1069 -0.8762  0.9982
 6591TIP3    H241189   5.689   4.368   2.996  0.4561 -0.9963  1.1993
 6592TIP3   OH241190   6.437   2.035  12.948 -0.1572  0.0225  0.2598
 6592TIP3    H141191   6.453   1.943  12.930 -2.9620 -0.6830  0.8408
 6592TIP3    H241192   6.381   2.035  13.026 -1.2193  2.1285 -0.4167
 6593TIP3   OH241193   2.537   5.605  15.806  0.3174 -0.4049 -0.3025
 6593TIP3    H141194   2.627   5.601  15.841 -0.3440  0.5973  1.6782
 6593TIP3    H241195   2.495   5.526  15.840 -0.6018  1.0425  2.1507
 6594TIP3   OH241196   5.667   1.979   4.295  0.2189  0.2475 -0.2018
 6594TIP3    H141197   5.746   2.031   4.309 -0.4764  1.1948  0.2851
 6594TIP3    H241198   5.669   1.912   4.364  0.2762  0.6753  0.2175
 6595TIP3   OH241199   1.409   2.535   0.824 -0.1473 -0.0684 -0.3758
 6595TIP3    H141200   1.365   2.599   0.769 -0.1512  1.1076  0.9652
 6595TIP3    H241201   1.354   2.527   0.901  0.8841 -0.1730  0.3694
 6596TIP3   OH241202   0.360   0.057   4.353 -0.1187 -0.0321  0.6751
 6596TIP3    H141203   0.302  -0.017   4.372 -1.1168 -0.6450 -3.7182
 6596TIP3    H241204   0.448   0.021   4.362 -0.5828 -1.5404 -0.4214
 6597TIP3   OH241205   3.729   4.067  13.924 -0.9690  0.4677  0.0563
 6597TIP3    H141206   3.648   4.042  13.879 -0.6612 -1.4116  0.4926
 6597TIP3    H241207   3.709   4.061  14.017  0.0476 -1.5156  0.2016
 6598TIP3   OH241208   1.063   1.944   4.586 -0.4338  0.0500 -0.0702
 6598TIP3    H141209   1.066   1.852   4.558 -0.9040  0.2870 -0.9467
 6598TIP3    H241210   0.996   1.946   4.654 -1.4986 -0.0281 -1.0644
 6599TIP3   OH241211   2.739   1.373   4.737  0.1871  0.0932 -0.2406
 6599TIP3    H141212   2.752   1.438   4.667  0.0923  2.4012  1.7754
 6599TIP3    H241213   2.827   1.341   4.756  0.2941 -0.0483 -0.9249
 6600TIP3   OH241214   1.710   0.553  13.750  0.4011  0.3559  0.3300
 6600TIP3    H141215   1.624   0.593  13.736  0.1639  0.4268  1.8426
 6600TIP3    H241216   1.727   0.505  13.669 -0.7349  0.9219 -0.2763
 6601TIP3   OH241217   0.982   4.116  16.627 -0.5329  0.1147  0.3503
 6601TIP3    H141218   0.931   4.121  16.708 -0.0828  0.1493  0.6331
 6601TIP3    H241219   1.059   4.171  16.643 -1.0173  1.0841 -0.5266
 6602TIP3   OH241220   1.323   0.457   4.494  0.1908  0.0966 -0.0593
 6602TIP3    H141221   1.304   0.542   4.533 -1.3254  0.5461 -1.6290
 6602TIP3    H241222   1.418   0.454   4.488  0.3028  1.3274  0.7648
 6603TIP3   OH241223   2.631   6.121  17.076  0.4879 -0.7134  0.3131
 6603TIP3    H141224   2.577   6.044  17.061  0.8262 -1.4265  2.4201
 6603TIP3    H241225   2.710   6.105  17.025  0.3421 -1.5305  0.3356
 6604TIP3   OH241226   2.349   3.109   4.755  0.5802 -0.0596 -0.1504
 6604TIP3    H141227   2.347   3.177   4.688 -0.5429  0.5569  0.4720
 6604TIP3    H241228   2.291   3.142   4.824 -0.7366 -2.0634 -0.2310
 6605TIP3   OH241229   3.808   6.099  13.706  0.2132  0.7064 -0.3346
 6605TIP3    H141230   3.736   6.042  13.730  2.0142 -1.0395  1.2202
 6605TIP3    H241231   3.820   6.156  13.782  0.6313  0.8137 -0.4789
 6606TIP3   OH241232   6.495   1.476  12.527  0.6562 -0.3756 -0.1448
 6606TIP3    H141233   6.569   1.486  12.587  1.2219 -1.3796 -0.6466
 6606TIP3    H241234   6.498   1.554  12.472  1.5213 -0.5315 -0.3340
 6607TIP3   OH241235   3.935   2.100  11.239  0.0535  0.2182 -0.0632
 6607TIP3    H141236   4.021   2.131  11.211  0.1056  0.2320  0.1123
 6607TIP3    H241237   3.953   2.048  11.318 -0.0598 -0.0516 -0.2119
 6608TIP3   OH241238   2.473   3.408   4.711 -0.1387 -0.2995 -0.0322
 6608TIP3    H141239   2.490   3.503   4.712  1.7777 -0.6071  0.2256
 6608TIP3    H241240   2.458   3.388   4.619 -2.4954  0.5086  0.0951
 6609TIP3   OH241241   0.736   0.384  13.787  0.2774 -0.4125 -0.4027
 6609TIP3    H141242   0.708   0.438  13.713  0.3647  1.1767  0.6722
 6609TIP3    H241243   0.665   0.391  13.851  1.4577  0.7162  0.8680
 6610TIP3   OH241244   3.705   6.366  12.753 -0.0993 -0.3901  0.6929
 6610TIP3    H141245   3.637   6.379  12.687  0.4394  0.4088  0.2790
 6610TIP3    H241246   3.761   6.297  12.716 -0.0621 -0.2715  0.5250
 6611TIP3   OH241247   4.543   5.508  16.805 -0.1540 -0.2682 -0.6390
 6611TIP3    H141248   4.539   5.603  16.794  1.7512  0.0359  0.6853
 6611TIP3    H241249   4.549   5.474  16.715  2.9277  1.1852 -1.1306
 6612TIP3   OH241250   2.703   4.311  16.916 -0.1164 -0.2408  0.4617
 6612TIP3    H141251   2.654   4.229  16.929 -2.8961  1.3588  0.9003
 6612TIP3    H241252   2.686   4.361  16.996  0.5507  1.2087 -0.2803
 6613TIP3   OH241253   6.650   1.079  15.926 -0.7704 -0.3601 -0.2772
 6613TIP3    H141254   6.700   0.999  15.938  0.1134  0.1145 -0.6621
 6613TIP3    H241255   6.660   1.100  15.833 -0.1211  0.7360  0.0130
 6614TIP3   OH241256   5.840   1.403  13.817 -0.2344  0.1700  0.1754
 6614TIP3    H141257   5.842   1.342  13.891 -2.0414 -0.0607  0.0685
 6614TIP3    H241258   5.857   1.489  13.856 -0.3706 -0.0588  0.7422
 6615TIP3   OH241259   3.860   4.743   1.673  0.1963 -0.1515 -0.4650
 6615TIP3    H141260   3.823   4.827   1.699 -0.7784 -0.9919  0.9744
 6615TIP3    H241261   3.798   4.678   1.707  1.5938 -1.4933 -0.4018
 6616TIP3   OH241262   3.139   4.627   0.727 -0.0396 -0.0569  0.2132
 6616TIP3    H141263   3.212   4.665   0.677 -1.2016  0.4795 -1.1356
 6616TIP3    H241264   3.081   4.590   0.661 -1.5514  0.5365  1.1566
 6617TIP3   OH241265   2.710   0.796  13.272 -0.2929  0.0339  0.4746
 6617TIP3    H141266   2.805   0.785  13.276  0.6526  4.9728 -1.5893
 6617TIP3    H241267   2.686   0.827  13.360 -0.5275 -3.0085  1.6118
 6618TIP3   OH241268   2.290   0.041   4.461  0.3132  0.0827  0.4283
 6618TIP3    H141269   2.325   0.122   4.423 -0.0610  0.4690  0.8933
 6618TIP3    H241270   2.275  -0.016   4.386  1.7125 -0.0149  0.1881
 6619TIP3   OH241271   4.354   3.394  15.729  0.1961 -0.3216 -0.8622
 6619TIP3    H141272   4.437   3.426  15.764 -1.0561  0.8223  1.3547
 6619TIP3    H241273   4.332   3.319  15.784 -1.4679  1.0617  0.5073
 6620TIP3   OH241274   6.777   5.794   2.394 -0.1599 -0.4641 -0.0007
 6620TIP3    H141275   6.761   5.885   2.367 -2.2005 -0.4709  0.9990
 6620TIP3    H241276   6.755   5.793   2.487  2.1345 -1.4985  0.5887
 6621TIP3   OH241277   6.358   5.896   4.443 -0.1857  0.2741  0.5006
 6621TIP3    H141278   6.318   5.962   4.386 -1.0322 -0.0735  0.6739
 6621TIP3    H241279   6.452   5.913   4.437 -0.0050 -1.1353 -2.8030
 6622TIP3   OH241280   0.434   2.232   1.651  0.1620 -0.8043  0.3055
 6622TIP3    H141281   0.427   2.174   1.576  0.1399 -1.0538  0.4972
 6622TIP3    H241282   0.526   2.260   1.651 -0.5863  2.0802 -1.9169
 6623TIP3   OH241283   5.401   2.023  11.141 -0.1588  0.3194 -0.1234
 6623TIP3    H141284   5.439   2.055  11.059  1.6703 -0.9458  0.1492
 6623TIP3    H241285   5.312   1.998  11.119  0.6014 -0.9224 -1.9992
 6624TIP3   OH241286   0.894   0.842   5.577  0.9189 -0.3447 -0.1895
 6624TIP3    H141287   0.873   0.917   5.633 -1.4071 -1.5869  0.7619
 6624TIP3    H241288   0.965   0.797   5.623  0.7637  0.0478  0.4569
 6625TIP3   OH241289   3.671   0.190  14.045  0.1684  0.3725  0.3077
 6625TIP3    H141290   3.625   0.142  14.113 -1.8194 -0.2847 -1.3825
 6625TIP3    H241291   3.617   0.178  13.966  1.1730  2.8927 -0.8927
 6626TIP3   OH241292   2.111   4.151  16.592 -0.7567  0.0477 -0.3482
 6626TIP3    H141293   2.092   4.082  16.528  1.0848 -1.0286  0.2056
 6626TIP3    H241294   2.094   4.111  16.677 -0.1811  0.4407 -0.0390
 6627TIP3   OH241295   4.434   3.121  14.544 -0.7294 -0.1901  0.6323
 6627TIP3    H141296   4.511   3.153  14.591  0.9890 -1.2423 -1.2925
 6627TIP3    H241297   4.387   3.068  14.608 -0.8980  1.8972  2.3655
 6628TIP3   OH241298   0.167   5.441  14.047 -0.3358  0.0572  0.4729
 6628TIP3    H141299   0.122   5.408  14.124 -0.6085 -1.8128 -0.4340
 6628TIP3    H241300   0.193   5.530  14.071 -2.7429  0.5090  1.7387
 6629TIP3   OH241301   5.690   3.821   3.872 -0.3378 -0.3553 -0.3722
 6629TIP3    H141302   5.729   3.759   3.810 -0.1184 -2.2183  1.5213
 6629TIP3    H241303   5.719   3.791   3.958  0.4347  2.8868  0.6520
 6630TIP3   OH241304   6.755   4.485   2.816 -0.0397 -0.7301  0.0680
 6630TIP3    H141305   6.715   4.401   2.837  2.7102 -1.7957  1.5132
 6630TIP3    H241306   6.777   4.523   2.901  1.2145  0.1669 -0.6187
 6631TIP3   OH241307   0.403   3.670   5.585 -0.0485 -0.7908  0.7141
 6631TIP3    H141308   0.392   3.586   5.629 -0.6518 -0.0935  1.9659
 6631TIP3    H241309   0.341   3.728   5.629 -0.0554  0.1725 -0.5075
 6632TIP3   OH241310   1.304   1.087  15.418  0.1186  0.5298 -0.8834
 6632TIP3    H141311   1.262   1.165  15.453 -0.0165 -0.8188  2.2373
 6632TIP3    H241312   1.236   1.020  15.419  0.6075 -0.0275 -2.1919
 6633TIP3   OH241313   6.048   0.868  11.102  0.3094 -0.5867  0.6030
 6633TIP3    H141314   6.081   0.787  11.064  0.0482 -0.0983 -0.6955
 6633TIP3    H241315   6.095   0.938  11.056 -1.7433  0.1001 -0.6091
 6634TIP3   OH241316   6.746   1.546   1.838 -0.1604  0.1014 -0.3339
 6634TIP3    H141317   6.733   1.507   1.925  0.9251  0.6890  0.1134
 6634TIP3    H241318   6.711   1.634   1.845 -0.4677  0.0050 -0.6305
 6635TIP3   OH241319   3.051   4.318   3.466 -0.5684 -0.2294  0.0607
 6635TIP3    H141320   3.140   4.338   3.439 -0.7774 -1.1496 -1.4019
 6635TIP3    H241321   3.027   4.389   3.525 -0.0040  1.7826 -2.0136
 6636TIP3   OH241322   0.367   3.877  11.736  0.2673  0.0711 -0.5376
 6636TIP3    H141323   0.278   3.858  11.767 -0.2191  0.2446 -1.7403
 6636TIP3    H241324   0.380   3.970  11.755 -1.4283  1.1630 -3.8928
 6637TIP3   OH241325   3.653   0.055   1.911 -0.0886  0.3547  0.0918
 6637TIP3    H141326   3.680  -0.034   1.887 -0.5247  0.4713 -0.8953
 6637TIP3    H241327   3.618   0.046   1.999 -1.6208 -0.7975 -0.5817
 6638TIP3   OH241328   0.929   0.934  16.433 -0.3061  0.7079 -0.6411
 6638TIP3    H141329   0.908   0.929  16.527  0.0051 -0.0171 -0.6035
 6638TIP3    H241330   0.917   1.027  16.411 -1.4987  0.6937 -0.1476
 6639TIP3   OH241331   0.683   3.666   1.770  0.7595  0.3503 -0.0198
 6639TIP3    H141332   0.708   3.691   1.681  0.8470 -0.6465 -0.2865
 6639TIP3    H241333   0.620   3.596   1.758  0.3645  0.5755  0.7039
 6640TIP3   OH241334   4.933   4.482   3.731  0.4595 -0.1019  0.0185
 6640TIP3    H141335   4.899   4.424   3.799  2.0374 -1.1411 -0.0189
 6640TIP3    H241336   4.936   4.569   3.772 -2.8335  0.2638 -0.2146
 6641TIP3   OH241337   4.631   6.074  16.516 -0.0400 -0.0777  0.2052
 6641TIP3    H141338   4.674   6.117  16.590 -1.5619 -0.3157  1.2866
 6641TIP3    H241339   4.598   5.992  16.553  1.1208 -1.2947 -1.3358
 6642TIP3   OH241340   5.355   5.846  12.878  0.5881  0.3395 -0.2720
 6642TIP3    H141341   5.307   5.771  12.842  0.5941  0.5848 -0.7903
 6642TIP3    H241342   5.347   5.914  12.812 -1.0213  1.4445  0.9693
 6643TIP3   OH241343   3.247   3.426   4.914 -0.2232 -0.0204 -0.2482
 6643TIP3    H141344   3.182   3.446   4.846  0.4585  1.3163 -0.5217
 6643TIP3    H241345   3.331   3.449   4.875  0.1184  1.5491  1.3144
 6644TIP3   OH241346   5.106   1.643  13.837 -0.3041 -0.1891 -0.3738
 6644TIP3    H141347   5.145   1.557  13.822 -3.1659 -1.6719  0.0647
 6644TIP3    H241348   5.115   1.657  13.932  1.0313  0.5204 -0.5738
 6645TIP3   OH241349   4.896   4.138  12.289  0.0506  0.0194 -0.8130
 6645TIP3    H141350   4.804   4.146  12.264 -0.7951  0.1664  1.9685
 6645TIP3    H241351   4.911   4.044  12.295  0.8531 -0.0984 -3.5537
 6646TIP3   OH241352   6.036   4.045   5.050  0.2821  0.4712  0.7854
 6646TIP3    H141353   6.100   4.108   5.083  3.2484 -1.6162 -0.5887
 6646TIP3    H241354   6.039   4.056   4.955 -2.0523  0.7791  0.6734
 6647TIP3   OH241355   1.708   1.328   0.204  0.6453  0.8653  0.5383
 6647TIP3    H141356   1.654   1.295   0.131  1.5596 -1.2807  0.7565
 6647TIP3    H241357   1.731   1.417   0.178 -1.1200  1.0367 -0.6131
 6648TIP3   OH241358   4.421   2.840  12.056 -0.8220  0.3275 -0.2630
 6648TIP3    H141359   4.506   2.807  12.026 -0.5354  1.7682 -1.1283
 6648TIP3    H241360   4.360   2.815  11.987 -1.1984 -1.0173  0.5247
 6649TIP3   OH241361   4.936   2.316  15.229 -0.1167 -0.6447 -0.0716
 6649TIP3    H141362   4.945   2.228  15.266  1.2523 -1.7767 -2.7283
 6649TIP3    H241363   5.016   2.362  15.257  0.6965 -1.3436 -1.1456
 6650TIP3   OH241364   3.572   1.852  13.203 -0.0363 -0.0503  0.6788
 6650TIP3    H141365   3.505   1.850  13.135 -0.2218 -1.0164  0.8709
 6650TIP3    H241366   3.537   1.795  13.272  1.3660 -1.2906  0.4008
 6651TIP3   OH241367   0.544   3.413  15.052  0.7545 -0.1593 -0.4238
 6651TIP3    H141368   0.632   3.420  15.015  1.4239  0.4002  1.2014
 6651TIP3    H241369   0.510   3.503  15.050  0.3376 -0.3184 -0.7257
 6652TIP3   OH241370   5.881   5.354   3.610  0.1359 -0.4946 -0.8105
 6652TIP3    H141371   5.945   5.390   3.549 -0.0699 -2.1928 -2.1228
 6652TIP3    H241372   5.918   5.270   3.636 -0.2987 -0.2764  0.5683
 6653TIP3   OH241373   0.085   0.590  16.486  0.0148  0.1828 -0.1518
 6653TIP3    H141374   0.149   0.536  16.533 -0.2296 -0.2919 -0.3555
 6653TIP3    H241375   0.000   0.562  16.521 -0.1425  0.1084 -0.5870
 6654TIP3   OH241376   4.066   3.059  14.128  0.0069  0.0491  0.6701
 6654TIP3    H141377   4.123   3.026  14.198 -0.6825 -0.0136  1.2181
 6654TIP3    H241378   4.108   3.031  14.047  1.7559  1.6125  0.9711
 6655TIP3   OH241379   6.597   4.465  16.671  0.1854 -0.0402  0.0005
 6655TIP3    H141380   6.546   4.392  16.707 -1.0391  0.1577 -1.2695
 6655TIP3    H241381   6.602   4.529  16.743 -0.5018 -0.4890  0.4541
 6656TIP3   OH241382   1.587   6.712  15.385  0.3453 -0.5526  0.1061
 6656TIP3    H141383   1.530   6.644  15.421 -1.4985  1.2247  0.7725
 6656TIP3    H241384   1.527   6.785  15.366  1.9562  0.2586 -2.2605
 6657TIP3   OH241385   3.783   6.619   3.867 -0.3894 -0.3243  0.6935
 6657TIP3    H141386   3.846   6.579   3.928  0.0763  1.5207  1.4804
 6657TIP3    H241387   3.783   6.712   3.890  0.3588  0.6151 -2.5854
 6658TIP3   OH241388   2.431   0.341  16.251  0.4400  0.2024  0.0794
 6658TIP3    H141389   2.381   0.263  16.276  1.0387 -0.6634 -1.3022
 6658TIP3    H241390   2.462   0.377  16.334 -0.9375 -0.2761  0.8339
 6659TIP3   OH241391   0.952   5.061  16.504 -0.1302 -0.7938  0.0188
 6659TIP3    H141392   0.976   5.031  16.592  0.2756  1.5801  0.7782
 6659TIP3    H241393   1.002   5.004  16.445  2.5346 -0.1130  1.4373
 6660TIP3   OH241394   3.199   2.353  11.506  0.2094  0.1096 -0.1876
 6660TIP3    H141395   3.110   2.319  11.502 -0.7495  2.4829 -1.3800
 6660TIP3    H241396   3.243   2.312  11.432 -0.2348 -0.2139 -0.2809
 6661TIP3   OH241397   1.764   5.090   0.266 -0.1784  0.3777 -0.3410
 6661TIP3    H141398   1.812   5.068   0.186 -1.4285  0.1632 -1.0560
 6661TIP3    H241399   1.683   5.039   0.261 -0.6554  0.9948  0.6593
 6662TIP3   OH241400   3.162   3.995   4.226 -0.4514 -0.3652  0.1856
 6662TIP3    H141401   3.095   3.929   4.241  1.2375 -2.1734  0.2593
 6662TIP3    H241402   3.123   4.077   4.257 -3.2883 -0.9357 -1.5763
 6663TIP3   OH241403   3.394   4.504   3.174  0.0787 -0.0114  0.0275
 6663TIP3    H141404   3.389   4.599   3.179 -1.5841  0.0333 -1.5502
 6663TIP3    H241405   3.486   4.486   3.151  0.1590  1.2768 -0.7396
 6664TIP3   OH241406   5.587   3.712  13.545 -0.1654 -0.1743  0.1663
 6664TIP3    H141407   5.565   3.800  13.575 -0.2022  0.8041 -2.4500
 6664TIP3    H241408   5.682   3.713  13.536 -0.0589 -0.7741  1.0924
 6665TIP3   OH241409   4.368   1.672  14.011 -0.3770 -0.1497 -0.2096
 6665TIP3    H141410   4.292   1.690  13.955  0.8963  0.6095 -1.7852
 6665TIP3    H241411   4.436   1.732  13.979  1.1899 -1.4612  0.5204
 6666TIP3   OH241412   1.154   1.113   5.618  0.4110 -0.2424 -0.4643
 6666TIP3    H141413   1.070   1.095   5.661 -0.2695  0.7442 -1.3347
 6666TIP3    H241414   1.190   1.026   5.600 -1.4777 -0.7835 -2.0596
 6667TIP3   OH241415   4.173   1.355  15.591 -0.1581  0.7011  0.1140
 6667TIP3    H141416   4.105   1.340  15.657  0.8951 -0.4421  0.9944
 6667TIP3    H241417   4.156   1.290  15.524  0.7696 -0.4495  0.9493
 6668TIP3   OH241418   1.853   4.374   3.318 -0.1826  0.1097 -0.0599
 6668TIP3    H141419   1.923   4.313   3.292  0.0992  0.4103 -0.0125
 6668TIP3    H241420   1.772   4.323   3.309  0.2418 -1.3365  3.0402
 6669TIP3   OH241421   3.575   0.452   1.560 -0.0604  0.3687 -0.2885
 6669TIP3    H141422   3.642   0.419   1.500  1.5313 -0.1450  1.6449
 6669TIP3    H241423   3.494   0.411   1.531  1.3458 -3.2091  0.3353
 6670TIP3   OH241424   1.348   5.422   2.395  0.3423  0.5538  0.0114
 6670TIP3    H141425   1.343   5.326   2.396  1.2728  0.4067  3.2233
 6670TIP3    H241426   1.372   5.444   2.306  1.8169 -2.3474 -0.4360
 6671TIP3   OH241427   0.993   1.795   0.873 -0.2123 -0.2025  0.0636
 6671TIP3    H141428   1.001   1.881   0.832 -1.1359 -1.3156 -2.7021
 6671TIP3    H241429   0.952   1.812   0.958 -0.9788  2.0309 -0.6881
 6672TIP3   OH241430   0.704   0.179  12.460 -0.5906  0.0558 -0.0961
 6672TIP3    H141431   0.798   0.166  12.466 -0.2040  2.6232  0.3291
 6672TIP3    H241432   0.692   0.237  12.385 -2.1350 -2.1644 -1.7240
 6673TIP3   OH241433   1.119   2.269   0.633 -0.0418  0.3919 -0.0497
 6673TIP3    H141434   1.087   2.351   0.670 -0.3729  0.6984 -0.9949
 6673TIP3    H241435   1.213   2.283   0.620 -0.0019  0.4312  0.2903
 6674TIP3   OH241436   3.035   2.871   0.668  0.1230 -0.4898 -0.4438
 6674TIP3    H141437   3.046   2.887   0.761  1.7627 -0.9774 -0.5215
 6674TIP3    H241438   3.116   2.828   0.641 -1.1469 -2.2627 -1.6899
 6675TIP3   OH241439   6.581   0.640  15.052 -0.4127 -0.0617 -0.1782
 6675TIP3    H141440   6.600   0.555  15.014 -0.0863  0.7003 -1.8166
 6675TIP3    H241441   6.488   0.637  15.073 -0.4942 -0.6844 -0.6082
 6676TIP3   OH241442   1.808   2.775   4.336  0.1299 -0.2238  0.0498
 6676TIP3    H141443   1.883   2.733   4.378 -0.1612 -1.0589 -0.2613
 6676TIP3    H241444   1.828   2.772   4.242  0.0728  0.2832  0.0155
 6677TIP3   OH241445   5.808   4.716   2.622  0.4567 -0.4875  0.3670
 6677TIP3    H141446   5.846   4.636   2.584  1.0845 -0.0505  0.0460
 6677TIP3    H241447   5.843   4.786   2.568 -1.1547 -0.0839 -0.1874
 6678TIP3   OH241448   3.805   3.427   6.013  0.1208  0.3157  0.2944
 6678TIP3    H141449   3.884   3.477   5.991  0.3429 -0.2642 -0.2263
 6678TIP3    H241450   3.836   3.355   6.068  0.0112 -0.1627 -0.2709
 6679TIP3   OH241451   1.870   5.903   4.841  0.3275 -0.3361  0.1343
 6679TIP3    H141452   1.909   5.889   4.755 -1.6661 -2.2487 -0.5348
 6679TIP3    H241453   1.790   5.953   4.824  1.1945  1.5789  1.2404
 6680TIP3   OH241454   3.546   3.773   2.209 -0.3133  0.0271 -0.4107
 6680TIP3    H141455   3.594   3.774   2.126  1.5169  0.9432  0.5909
 6680TIP3    H241456   3.614   3.756   2.274 -1.8573 -1.6705  0.8427
 6681TIP3   OH241457   1.781   4.937   5.289  0.4167  0.3749 -0.6634
 6681TIP3    H141458   1.777   4.955   5.195 -2.0990  2.0926 -0.3264
 6681TIP3    H241459   1.803   5.022   5.329 -2.0761  0.5643  0.4523
 6682TIP3   OH241460   4.470   0.074  11.338  0.0418  0.1317 -0.2091
 6682TIP3    H141461   4.446  -0.010  11.298  1.0577 -0.3454  0.1637
 6682TIP3    H241462   4.541   0.107  11.284 -2.1925  2.2108 -2.1474
 6683TIP3   OH241463   0.967   0.263  16.560 -0.6565 -0.0776 -0.2908
 6683TIP3    H141464   1.012   0.323  16.501  1.7971 -1.2024  0.2971
 6683TIP3    H241465   0.876   0.266  16.533 -0.7990  4.2021 -0.0266
 6684TIP3   OH241466   0.686   0.775   6.660  0.2601  0.1652 -0.0781
 6684TIP3    H141467   0.702   0.868   6.643 -1.3949  0.2845 -1.1492
 6684TIP3    H241468   0.685   0.735   6.574  1.0011 -0.8855  0.3775
 6685TIP3   OH241469   4.431   4.734  17.078 -0.0785 -0.1923  0.2831
 6685TIP3    H141470   4.521   4.752  17.106  0.1255  0.6176 -0.8472
 6685TIP3    H241471   4.384   4.816  17.091 -0.1829 -0.0442 -0.9035
 6686TIP3   OH241472   5.641   5.993  16.763  0.7196  0.1882  0.2532
 6686TIP3    H141473   5.673   5.985  16.673  1.6523 -0.2341  0.6123
 6686TIP3    H241474   5.597   5.910  16.781 -0.6485  0.7719 -0.2447
 6687TIP3   OH241475   6.583   5.868  16.569 -0.0117  0.1934 -0.6401
 6687TIP3    H141476   6.604   5.944  16.624  0.3019  1.6166 -2.6152
 6687TIP3    H241477   6.666   5.822  16.558 -0.0458 -0.0108 -0.0823
 6688TIP3   OH241478   3.487   2.083   4.520  0.0304 -0.2759 -0.7219
 6688TIP3    H141479   3.440   2.157   4.481 -0.1986 -0.4102 -0.7043
 6688TIP3    H241480   3.419   2.018   4.537  0.5190 -1.4629 -2.9535
 6689TIP3   OH241481   5.484   6.215   0.704 -0.0042 -0.3436 -0.3552
 6689TIP3    H141482   5.564   6.245   0.747  0.5015 -0.8926 -0.8897
 6689TIP3    H241483   5.508   6.204   0.612 -0.8292 -0.0463 -0.6127
 6690TIP3   OH241484   5.804   2.721  14.493 -0.1395 -0.0045 -0.1241
 6690TIP3    H141485   5.809   2.633  14.529 -2.5664  0.5286  1.7790
 6690TIP3    H241486   5.713   2.730  14.464  0.3302  1.5458 -1.2734
 6691TIP3   OH241487   4.474   0.210  12.497 -0.1660  0.0422  0.4089
 6691TIP3    H141488   4.420   0.288  12.506 -0.7206 -0.4197  1.1463
 6691TIP3    H241489   4.529   0.209  12.575 -1.5216 -1.3234  1.3950
 6692TIP3   OH241490   6.701   6.018  16.754  0.2910  0.5744  0.2296
 6692TIP3    H141491   6.702   5.966  16.834 -1.7506  0.9083  0.5382
 6692TIP3    H241492   6.792   6.022  16.726  0.6696 -2.1225  0.8319
 6693TIP3   OH241493   0.619   2.186  16.200 -0.2259  0.0224 -0.4916
 6693TIP3    H141494   0.648   2.213  16.112 -0.2456 -0.6298 -0.7022
 6693TIP3    H241495   0.588   2.267  16.240  0.6909  0.5066 -0.7305
 6694TIP3   OH241496   2.166   3.273  15.005  0.1203  0.2971 -0.2004
 6694TIP3    H141497   2.221   3.342  15.041  0.8317 -0.4539  0.1991
 6694TIP3    H241498   2.165   3.289  14.911  1.8387 -0.2146 -0.3367
 6695TIP3   OH241499   0.018   0.756  13.134 -0.6975 -0.9059  0.3857
 6695TIP3    H141500   0.038   0.824  13.199 -0.5593  0.0976 -0.6806
 6695TIP3    H241501   0.032   0.799  13.050 -1.3097 -2.0591 -0.3194
 6696TIP3   OH241502   5.960   3.805   2.693  0.3015 -0.6137 -0.1808
 6696TIP3    H141503   6.030   3.840   2.639  1.6122 -1.2196  1.0559
 6696TIP3    H241504   5.962   3.857   2.773 -2.0047  0.6683 -0.8673
 6697TIP3   OH241505   2.361   4.047  16.621  0.2234 -0.0436 -0.7250
 6697TIP3    H141506   2.416   4.125  16.633  0.2219 -0.0292 -0.8157
 6697TIP3    H241507   2.272   4.080  16.628  0.2065  0.0894 -1.5372
 6698TIP3   OH241508   6.775   0.984  15.681  0.3124  0.2244 -0.2482
 6698TIP3    H141509   6.862   0.997  15.643  0.4745  0.4781  0.1983
 6698TIP3    H241510   6.729   0.929  15.617  0.4573  0.9248 -0.9782
 6699TIP3   OH241511   3.888   5.968   4.880  0.0476 -0.2799 -0.3524
 6699TIP3    H141512   3.815   5.909   4.863 -0.5105  0.1332  0.5690
 6699TIP3    H241513   3.912   6.002   4.794 -2.6019  1.6532 -0.4140
 6700TIP3   OH241514   6.145   0.884  16.626  0.9449 -0.2724 -0.4772
 6700TIP3    H141515   6.172   0.864  16.715  1.8467 -2.7110 -1.2138
 6700TIP3    H241516   6.062   0.838  16.614 -0.6649  2.3310 -0.1031
 6701TIP3   OH241517   5.934   0.783  16.007  0.5761  0.1430 -0.2633
 6701TIP3    H141518   5.877   0.718  16.049 -0.3284 -1.1372 -3.2249
 6701TIP3    H241519   5.875   0.843  15.962  1.4924  1.2017 -0.1131
 6702TIP3   OH241520   1.298   1.155   0.301 -0.5443 -0.0346  0.1525
 6702TIP3    H141521   1.246   1.106   0.237 -1.7021  0.7434  0.4695
 6702TIP3    H241522   1.233   1.199   0.356  0.3661  3.5990 -1.4161
 6703TIP3   OH241523   4.326   1.881  12.453 -0.3295  0.0330 -0.0670
 6703TIP3    H141524   4.258   1.825  12.492  0.1025 -0.3795  0.0979
 6703TIP3    H241525   4.403   1.867  12.508 -0.1837  0.7085 -0.0965
 6704TIP3   OH241526   5.222   1.025  16.184 -0.0572  0.2075 -0.3663
 6704TIP3    H141527   5.266   0.939  16.183 -0.8616 -0.2144 -0.0560
 6704TIP3    H241528   5.155   1.018  16.117  0.2032  0.7865 -0.6992
 6705TIP3   OH241529   2.939   2.613  15.248  0.2732 -0.1106  0.2794
 6705TIP3    H141530   2.874   2.675  15.215  0.5436  0.3289  0.5578
 6705TIP3    H241531   2.895   2.569  15.320 -0.9830 -2.3796 -1.7041
 6706TIP3   OH241532   3.914   1.666   2.419  0.5135 -0.1666  0.1284
 6706TIP3    H141533   3.906   1.571   2.407 -3.0242  0.0431 -0.1699
 6706TIP3    H241534   3.945   1.699   2.335  1.5681 -0.9701  0.1735
 6707TIP3   OH241535   6.082   2.794  10.463  0.3033  0.0650  0.1612
 6707TIP3    H141536   6.077   2.700  10.445  0.4124  0.2421 -0.8539
 6707TIP3    H241537   6.018   2.809  10.532  0.9031 -0.9024  0.9601
 6708TIP3   OH241538   2.084   0.552  15.723 -0.6143  0.1761  0.3994
 6708TIP3    H141539   2.099   0.481  15.660  0.4494 -0.1381  0.9763
 6708TIP3    H241540   2.099   0.632  15.672 -0.9108 -0.0359 -0.0277
 6709TIP3   OH241541   0.925   0.746   0.082  0.4529  0.5113 -0.7046
 6709TIP3    H141542   0.908   0.778   0.171  2.7297  0.0898 -0.0416
 6709TIP3    H241543   0.885   0.659   0.080  0.5906  0.4231  0.0038
 6710TIP3   OH241544   4.343   6.236   2.066 -0.0219 -0.1849  0.3107
 6710TIP3    H141545   4.300   6.155   2.092 -0.4802  0.0387  0.2620
 6710TIP3    H241546   4.416   6.209   2.011 -1.4129 -0.4759 -1.4834
 6711TIP3   OH241547   6.222   6.752   4.574 -0.1074  0.4169  0.1068
 6711TIP3    H141548   6.277   6.684   4.534 -1.8796 -0.1983 -1.3923
 6711TIP3    H241549   6.150   6.764   4.512 -2.3361  0.3190  2.5494
 6712TIP3   OH241550   4.934   5.326  13.536  0.2791 -0.1474  0.4223
 6712TIP3    H141551   4.918   5.403  13.482 -1.3208 -0.0989  0.9288
 6712TIP3    H241552   5.006   5.280  13.492 -0.7870  0.0352 -1.5877
 6713TIP3   OH241553   3.673   5.589  15.219  0.3114 -0.2603 -0.4088
 6713TIP3    H141554   3.765   5.579  15.195  1.4135 -0.0814  3.0643
 6713TIP3    H241555   3.628   5.519  15.171  2.4295 -1.0317 -1.4115
 6714TIP3   OH241556   5.488   6.640  10.903 -0.1864 -0.7342 -0.0208
 6714TIP3    H141557   5.476   6.554  10.864 -0.8382 -1.0116  0.7492
 6714TIP3    H241558   5.400   6.666  10.932  0.1386 -0.1954  0.5235
 6715TIP3   OH241559   5.560   3.920  11.460  0.6003  0.3511  0.1008
 6715TIP3    H141560   5.548   3.935  11.366  2.2248  0.7580 -0.0774
 6715TIP3    H241561   5.524   3.998  11.502  1.1954  0.8453 -0.2924
 6716TIP3   OH241562   2.922   2.084  16.138  0.8427 -0.3332 -0.3335
 6716TIP3    H141563   2.902   2.071  16.231 -1.2853  0.6969 -0.5759
 6716TIP3    H241564   2.998   2.142  16.136  0.3038  0.4368  0.7899
 6717TIP3   OH241565   0.515   2.807   0.190 -0.1945  0.3567 -0.3356
 6717TIP3    H141566   0.457   2.731   0.195  0.9776 -0.4684  2.2870
 6717TIP3    H241567   0.563   2.806   0.273  0.7344  3.2908 -0.7394
 6718TIP3   OH241568   0.708   1.519   0.629 -0.5070 -0.4810  0.2248
 6718TIP3    H141569   0.717   1.615   0.625 -0.1390 -0.4838  0.8359
 6718TIP3    H241570   0.780   1.491   0.684 -0.4838 -1.1411 -0.1378
 6719TIP3   OH241571   0.539   4.397  11.505 -0.0310 -0.1130 -0.4800
 6719TIP3    H141572   0.461   4.363  11.462 -2.4099  2.1345  1.6505
 6719TIP3    H241573   0.558   4.333  11.574  0.0854 -0.7393 -1.0882
 6720TIP3   OH241574   1.773   1.294   4.718  0.2089 -0.0648 -0.5052
 6720TIP3    H141575   1.784   1.214   4.770 -1.0282  1.1420  1.7657
 6720TIP3    H241576   1.842   1.352   4.750  0.1715  0.2871 -1.0621
 6721TIP3   OH241577   6.003   4.037  14.156  0.0550 -0.0748 -0.3330
 6721TIP3    H141578   6.078   3.978  14.143 -0.6719 -0.7280 -1.7659
 6721TIP3    H241579   5.926   3.979  14.152 -0.5875  0.7019  0.2926
 6722TIP3   OH241580   2.861   3.375   1.716 -0.6862  0.7054  0.2780
 6722TIP3    H141581   2.889   3.364   1.807  2.0348  0.5783 -0.4994
 6722TIP3    H241582   2.931   3.335   1.664 -3.8661 -2.7527 -1.8912
 6723TIP3   OH241583   4.552   6.116   0.975  0.2759 -0.2898 -0.1107
 6723TIP3    H141584   4.556   6.039   1.032 -0.8757 -0.9384 -0.8777
 6723TIP3    H241585   4.481   6.097   0.914 -0.3706  1.6125  0.0070
 6724TIP3   OH241586   4.027   5.490  15.469  0.8805 -0.0604  0.2414
 6724TIP3    H141587   4.044   5.425  15.537 -0.9564 -0.1206  0.7040
 6724TIP3    H241588   3.979   5.560  15.514  0.3595  0.2835 -0.8049
 6725TIP3   OH241589   4.842   2.624   1.273 -0.1394  0.4759  0.5689
 6725TIP3    H141590   4.755   2.600   1.242  1.0340 -1.3419 -1.6370
 6725TIP3    H241591   4.861   2.708   1.231  0.1451 -0.4011 -1.1465
 6726TIP3   OH241592   5.936   3.327   3.927 -0.4300  0.1003  0.0636
 6726TIP3    H141593   5.852   3.314   3.884 -1.2078  0.1166  1.4875
 6726TIP3    H241594   5.969   3.409   3.891 -2.0910  1.2695  1.0081
 6727TIP3   OH241595   5.128   5.775   4.153  0.3822 -0.3254  0.3175
 6727TIP3    H141596   5.218   5.805   4.162  0.3956  0.4676 -1.9035
 6727TIP3    H241597   5.092   5.826   4.080 -1.5204 -1.3936  0.4301
 6728TIP3   OH241598   3.119   4.526  16.050 -0.5258 -0.2144  0.1402
 6728TIP3    H141599   3.139   4.542  16.142 -1.9452  0.3260  0.3910
 6728TIP3    H241600   3.156   4.439  16.032  4.6877  1.8147 -0.3967
 6729TIP3   OH241601   6.335   2.861   3.294 -0.1182  0.2716  0.0386
 6729TIP3    H141602   6.426   2.833   3.281 -0.6030 -0.3036 -2.5684
 6729TIP3    H241603   6.283   2.787   3.264 -1.5662 -0.2908  3.4959
 6730TIP3   OH241604   1.897   6.048   4.572  0.4511 -0.7040  0.4830
 6730TIP3    H141605   1.951   6.119   4.607  0.7020 -0.5879 -0.1149
 6730TIP3    H241606   1.925   6.040   4.481 -1.5859  0.4008 -0.3054
 6731TIP3   OH241607   1.318   3.148  12.626  0.9560 -0.1934  0.3288
 6731TIP3    H141608   1.384   3.200  12.580  0.3325  1.3894  1.1435
 6731TIP3    H241609   1.266   3.108  12.557  0.9325  0.9570 -0.3282
 6732TIP3   OH241610   2.757   4.206  11.241 -0.5310 -0.6266  0.0293
 6732TIP3    H141611   2.826   4.157  11.285  0.3329  0.1415 -0.4400
 6732TIP3    H241612   2.690   4.219  11.309  0.3419 -0.2934  0.8533
 6733TIP3   OH241613   3.915   1.021  12.415 -0.2490 -0.0540  0.0590
 6733TIP3    H141614   3.830   1.035  12.456 -0.5674  2.2109 -1.2190
 6733TIP3    H241615   3.963   1.102  12.429  0.3985  0.0222 -2.1350
 6734TIP3   OH241616   0.778   0.421   1.143  0.7631 -0.4047  0.1551
 6734TIP3    H141617   0.831   0.430   1.064  1.0454 -2.4124  0.0598
 6734TIP3    H241618   0.689   0.439   1.115  0.6631 -2.3495 -0.9950
 6735TIP3   OH241619   3.877   1.580   1.437 -0.1807  0.2575 -0.1266
 6735TIP3    H141620   3.871   1.627   1.521  0.9637 -1.2958  0.8757
 6735TIP3    H241621   3.804   1.519   1.438 -0.5836  0.7273 -0.5937
 6736TIP3   OH241622   1.479   1.723  12.792  0.1557  0.2892 -0.1965
 6736TIP3    H141623   1.425   1.744  12.716  0.9543  1.7755 -0.3823
 6736TIP3    H241624   1.541   1.795  12.799  0.4835 -0.1023  1.5244
 6737TIP3   OH241625   3.338   5.738   4.845 -0.0762  0.4589 -0.0605
 6737TIP3    H141626   3.392   5.708   4.772  0.9007  0.4214  0.6470
 6737TIP3    H241627   3.355   5.673   4.915 -1.5041  0.1148 -0.0086
 6738TIP3   OH241628   6.770   1.678   2.206 -0.9962 -0.6325 -0.1266
 6738TIP3    H141629   6.683   1.719   2.204 -0.3389  0.7994 -0.6020
 6738TIP3    H241630   6.809   1.711   2.287 -0.1595  0.3667 -0.9108
 6739TIP3   OH241631   3.465   0.375   4.846  0.1974  0.5038  0.9951
 6739TIP3    H141632   3.394   0.353   4.906 -1.9000  0.5556 -1.2983
 6739TIP3    H241633   3.457   0.470   4.833  0.5933  0.4870  0.5793
 6740TIP3   OH241634   2.799   3.578   4.442  0.3739 -0.5791  0.2215
 6740TIP3    H141635   2.877   3.545   4.488  0.9958 -0.0746 -0.4400
 6740TIP3    H241636   2.778   3.509   4.379 -0.1633 -1.0378  0.8868
 6741TIP3   OH241637   6.304   1.469  15.554  0.1985  0.2886 -0.1680
 6741TIP3    H141638   6.265   1.492  15.470  0.5418 -0.0039 -0.4073
 6741TIP3    H241639   6.352   1.548  15.581 -1.1037  0.9000  0.4593
 6742TIP3   OH241640   4.296   3.326  16.338  0.4384  0.1692  0.6019
 6742TIP3    H141641   4.283   3.266  16.411 -0.7246  1.4368  1.4878
 6742TIP3    H241642   4.221   3.310  16.280  2.2273 -2.0615 -1.3017
 6743TIP3   OH241643   6.781   1.096  11.653  0.2916 -0.0723 -0.1379
 6743TIP3    H141644   6.729   1.175  11.667 -1.2673 -1.2777  1.2993
 6743TIP3    H241645   6.860   1.127  11.607 -1.2251  1.9581 -1.5473
 6744TIP3   OH241646   2.935   2.228   0.204  0.2247  0.1798 -0.1893
 6744TIP3    H141647   2.916   2.169   0.132  0.5355 -0.2005  0.0395
 6744TIP3    H241648   2.854   2.279   0.215 -0.2203 -0.5437 -0.0605
 6745TIP3   OH241649   0.897   2.358   4.969  0.0646  0.0615  0.0623
 6745TIP3    H141650   0.991   2.342   4.960 -0.2581 -2.3079  0.0953
 6745TIP3    H241651   0.866   2.284   5.022 -2.1166 -0.3623 -1.6897
 6746TIP3   OH241652   2.081   1.346  12.050 -0.0685  0.3527 -0.3667
 6746TIP3    H141653   1.989   1.324  12.037  0.1627 -0.3185 -0.9344
 6746TIP3    H241654   2.080   1.438  12.074 -0.9740  0.0572  0.8279
 6747TIP3   OH241655   2.049   4.616  13.348  0.0111 -0.3705  0.2089
 6747TIP3    H141656   2.023   4.645  13.261  1.2022  0.5451  0.1357
 6747TIP3    H241657   2.069   4.696  13.396 -1.2538 -0.8159  1.5568
 6748TIP3   OH241658   5.729   0.796   4.428  0.6522  0.5010 -0.6889
 6748TIP3    H141659   5.643   0.839   4.430  0.4103  0.4199 -3.9985
 6748TIP3    H241660   5.760   0.809   4.339  3.2214 -1.2343 -0.1568
 6749TIP3   OH241661   1.369   1.786   4.773  0.7880 -0.3757  0.4432
 6749TIP3    H141662   1.359   1.879   4.754  0.9278 -0.8083 -2.0091
 6749TIP3    H241663   1.293   1.765   4.828  0.1833  0.9451  0.1573
 6750TIP3   OH241664   1.782   2.523   3.473  0.1719 -0.0090  0.2559
 6750TIP3    H141665   1.865   2.545   3.431 -0.5995  0.6705 -0.9893
 6750TIP3    H241666   1.774   2.584   3.546 -0.1158  1.2615 -0.8020
 6751TIP3   OH241667   5.638   4.323  11.306  0.2126  0.4521  0.3009
 6751TIP3    H141668   5.595   4.240  11.284 -0.3722 -0.2126  3.5422
 6751TIP3    H241669   5.617   4.380  11.232 -2.1905 -1.2981 -0.5103
 6752TIP3   OH241670   3.020   4.288  12.500  0.0748  0.3879  0.3170
 6752TIP3    H141671   3.068   4.371  12.503  0.6488  0.0656  0.1643
 6752TIP3    H241672   3.054   4.244  12.422 -1.0439  0.4912 -0.2397
 6753TIP3   OH241673   5.861   3.305  13.934 -0.6712  0.4326 -0.7196
 6753TIP3    H141674   5.858   3.224  13.884 -2.5369  0.0874 -0.1134
 6753TIP3    H241675   5.869   3.374  13.868  0.6640 -0.1880 -1.2490
 6754TIP3   OH241676   1.589   1.923  13.580 -0.2808 -0.3612 -0.2238
 6754TIP3    H141677   1.662   1.867  13.605 -0.5131 -0.9657 -0.8835
 6754TIP3    H241678   1.526   1.914  13.652 -0.2555 -0.8289 -0.2597
 6755TIP3   OH241679   6.695   0.804  11.717  0.1132  0.0945 -0.2830
 6755TIP3    H141680   6.712   0.714  11.688  0.8604 -0.1972  1.0165
 6755TIP3    H241681   6.675   0.851  11.636 -1.2203 -1.4190 -0.9076
 6756TIP3   OH241682   4.503   0.751   3.747 -0.3325 -0.1771  0.3241
 6756TIP3    H141683   4.582   0.784   3.704 -1.6933  1.2474 -1.2376
 6756TIP3    H241684   4.472   0.825   3.799 -0.7940 -0.6116  0.6672
 6757TIP3   OH241685   5.808   0.482   1.530  0.3303 -0.0311 -0.6957
 6757TIP3    H141686   5.805   0.566   1.486  0.7209  0.4649  0.1956
 6757TIP3    H241687   5.792   0.502   1.622  0.8314 -0.8754 -0.4102
 6758TIP3   OH241688   2.405   6.760   3.915 -1.0239  0.3629 -0.4945
 6758TIP3    H141689   2.342   6.745   3.845 -1.0590  2.2759 -0.9014
 6758TIP3    H241690   2.397   6.852   3.937  1.5632  0.6644 -0.4946
 6759TIP3   OH241691   0.361   0.656  12.161  0.3224 -0.6259 -0.2200
 6759TIP3    H141692   0.447   0.652  12.203  0.1708 -1.6610  0.0260
 6759TIP3    H241693   0.300   0.632  12.231 -0.1442 -0.2027 -0.4756
 6760TIP3   OH241694   4.861   0.866   1.398  0.0064  0.2045  0.3465
 6760TIP3    H141695   4.870   0.838   1.489 -0.2430  2.4104  1.1018
 6760TIP3    H241696   4.950   0.872   1.365  0.1040 -0.4585  0.4849
 6761TIP3   OH241697   5.611   5.048   4.420  0.4727  0.5011  0.4165
 6761TIP3    H141698   5.524   5.088   4.414  0.5482  0.6864  0.5805
 6761TIP3    H241699   5.594   4.953   4.419  0.3331  0.5182 -0.6060
 6762TIP3   OH241700   3.925   6.239  15.847 -0.2117  0.3075 -0.5400
 6762TIP3    H141701   3.929   6.172  15.916 -1.4068 -0.9364 -1.6303
 6762TIP3    H241702   3.855   6.298  15.874 -0.1905  0.2420 -0.3398
 6763TIP3   OH241703   0.721   2.937  14.335 -0.4820  0.5809  0.2079
 6763TIP3    H141704   0.709   2.843  14.342 -0.1030  0.5959  1.1769
 6763TIP3    H241705   0.634   2.971  14.312 -0.4942 -0.0474 -0.6979
 6764TIP3   OH241706   5.255   1.743  16.842  0.3108  0.4077  0.5865
 6764TIP3    H141707   5.189   1.784  16.786  0.1363 -0.9039 -0.2106
 6764TIP3    H241708   5.205   1.679  16.894  1.2134 -2.3396 -1.7333
 6765TIP3   OH241709   1.181   5.185   3.040 -0.0772 -0.5971 -0.1717
 6765TIP3    H141710   1.131   5.260   3.007 -0.8421 -0.8658  0.3703
 6765TIP3    H241711   1.118   5.133   3.089  0.9101 -0.5153  1.2349
 6766TIP3   OH241712   3.824   5.655  14.770 -0.2477 -0.6962  0.3658
 6766TIP3    H141713   3.795   5.716  14.702 -0.8892  0.0703  1.2957
 6766TIP3    H241714   3.750   5.594  14.779  0.8591 -2.3988 -1.3976
 6767TIP3   OH241715   3.478   5.235   2.562 -0.2491  0.1194  0.0320
 6767TIP3    H141716   3.385   5.247   2.581 -0.6630  0.2345 -1.8181
 6767TIP3    H241717   3.522   5.246   2.646 -1.9843 -0.8907  1.1208
 6768TIP3   OH241718   1.718   4.066   2.057  0.7564 -0.2551 -0.2980
 6768TIP3    H141719   1.727   4.162   2.053  2.7589 -0.4001 -0.2156
 6768TIP3    H241720   1.676   4.050   2.142 -2.7094  0.6383 -1.6337
 6769TIP3   OH241721   1.568   6.572   1.935  0.0758 -0.6650  0.1404
 6769TIP3    H141722   1.630   6.643   1.920 -0.5560 -0.1531 -0.1148
 6769TIP3    H241723   1.591   6.505   1.870 -1.8581  1.0061 -2.4551
 6770TIP3   OH241724   0.499   5.588   1.785 -0.2360  0.2544 -0.0306
 6770TIP3    H141725   0.527   5.636   1.863  2.7443 -2.9310  1.1612
 6770TIP3    H241726   0.535   5.637   1.711  1.6231  0.5815  1.0303
 6771TIP3   OH241727   0.256   0.602  13.210 -0.0325 -1.0531  0.9683
 6771TIP3    H141728   0.247   0.688  13.251 -1.3367 -1.1411  0.8995
 6771TIP3    H241729   0.347   0.599  13.181 -0.1081  0.5184  0.4734
 6772TIP3   OH241730   1.445   2.646  16.571 -0.0248 -0.1800 -0.1748
 6772TIP3    H141731   1.368   2.630  16.626  0.9524 -0.6936  1.0898
 6772TIP3    H241732   1.471   2.559  16.541  1.4169 -0.3362  1.3487
 6773TIP3   OH241733   6.092   4.049  15.016  0.0526 -0.0012 -0.5023
 6773TIP3    H141734   6.000   4.036  15.039  0.3183 -0.4888  0.2909
 6773TIP3    H241735   6.132   3.962  15.024  0.6810  0.2907 -0.3851
 6774TIP3   OH241736   4.986   3.053  11.058  0.3909  0.6875  0.1526
 6774TIP3    H141737   4.928   3.129  11.064 -2.5351 -1.4047  0.9781
 6774TIP3    H241738   4.985   3.029  10.966 -1.4912 -0.2293  0.3570
 6775TIP3   OH241739   2.509   0.415  14.768  0.4923 -0.9292 -0.1663
 6775TIP3    H141740   2.566   0.340  14.752  1.4424 -0.4279  0.6841
 6775TIP3    H241741   2.472   0.398  14.855  1.1957 -0.1487  0.3053
 6776TIP3   OH241742   0.826   3.594   3.561  0.9958 -0.2920 -0.1641
 6776TIP3    H141743   0.901   3.542   3.590 -1.0076 -2.9413  0.6415
 6776TIP3    H241744   0.826   3.669   3.620  3.2626  0.0759 -0.5288
 6777TIP3   OH241745   6.438   4.685   1.213 -0.5484 -0.3488  0.3836
 6777TIP3    H141746   6.487   4.663   1.134  0.2547 -0.7968  0.9988
 6777TIP3    H241747   6.503   4.681   1.284 -1.2690 -0.0205  1.0761
 6778TIP3   OH241748   4.157   0.476  13.749 -0.0354 -0.1375  0.1824
 6778TIP3    H141749   4.170   0.386  13.720  2.3733 -0.0247  0.7162
 6778TIP3    H241750   4.113   0.519  13.675  0.2056 -1.3643 -0.7016
 6779TIP3   OH241751   1.999   1.016  13.766 -0.9352  0.4896 -0.4048
 6779TIP3    H141752   1.941   0.941  13.782  0.9610 -0.4578  3.0419
 6779TIP3    H241753   2.077   0.977  13.725 -0.9241  0.9961 -0.8653
 6780TIP3   OH241754   2.255   5.572  16.824  0.1133  0.0572  0.6564
 6780TIP3    H141755   2.168   5.579  16.864 -0.2389  0.1804 -0.1196
 6780TIP3    H241756   2.245   5.612  16.738  0.9150 -0.0315  0.5175
 6781TIP3   OH241757   5.477   3.092   5.076 -0.1793 -0.4312 -1.2267
 6781TIP3    H141758   5.414   3.062   5.011 -0.2914 -0.8169 -0.9481
 6781TIP3    H241759   5.467   3.187   5.078 -0.3517 -0.4423 -1.5914
 6782TIP3   OH241760   1.801   2.315   3.738 -0.6385  0.5684  0.1867
 6782TIP3    H141761   1.768   2.379   3.675 -1.1805 -0.8202 -0.9777
 6782TIP3    H241762   1.723   2.286   3.785 -0.5227  0.1002  0.0906
 6783TIP3   OH241763   1.740   3.170   5.868 -0.2524 -0.0295 -0.5044
 6783TIP3    H141764   1.735   3.101   5.802 -0.6110  1.0707 -1.6581
 6783TIP3    H241765   1.818   3.149   5.919 -0.4201 -1.3438 -0.7497
 6784TIP3   OH241766   5.852   1.105   3.144 -0.1547  0.3232 -0.0702
 6784TIP3    H141767   5.825   1.072   3.059 -1.6565 -0.9898  0.8508
 6784TIP3    H241768   5.913   1.040   3.178  1.1467  1.2913 -0.4813
 6785TIP3   OH241769   3.437   0.089  12.748  0.2930  0.3731  0.3206
 6785TIP3    H141770   3.383   0.087  12.668 -0.4176 -1.3313  0.7970
 6785TIP3    H241771   3.477   0.002  12.751 -0.3271  0.1172  2.2271
 6786TIP3   OH241772   6.145   6.807  15.986  0.2674 -0.0236  0.0995
 6786TIP3    H141773   6.153   6.887  16.038  1.2206  0.3564 -0.6191
 6786TIP3    H241774   6.229   6.763  15.998  0.4898  0.0556 -1.0874
 6787TIP3   OH241775   3.992   2.937   4.626  0.2665  0.8523  0.0776
 6787TIP3    H141776   3.958   2.955   4.714 -0.7912  1.0903 -0.3615
 6787TIP3    H241777   4.072   2.988   4.620  0.1689  1.0960  0.7864
 6788TIP3   OH241778   3.400   6.047   2.252  0.3087 -1.0532 -0.1445
 6788TIP3    H141779   3.402   6.032   2.347 -2.3774 -0.6031  0.0674
 6788TIP3    H241780   3.347   5.975   2.218 -0.9642  0.1905 -0.9182
 6789TIP3   OH241781   4.915   5.655  16.505 -0.4901 -0.1379 -0.7611
 6789TIP3    H141782   4.947   5.598  16.575 -2.0476 -0.3107 -0.1577
 6789TIP3    H241783   4.867   5.724  16.551  1.3057  1.6791 -1.4713
 6790TIP3   OH241784   0.022   1.780   2.467  0.1948 -0.2721  0.3528
 6790TIP3    H141785   0.078   1.857   2.456 -1.6110  0.8585 -2.2851
 6790TIP3    H241786  -0.043   1.807   2.532 -1.8650  1.5457 -2.2314
 6791TIP3   OH241787   6.425   6.222   2.647 -0.6957 -0.2776 -0.5766
 6791TIP3    H141788   6.412   6.153   2.582  1.7144  0.5299 -2.0846
 6791TIP3    H241789   6.395   6.302   2.604 -0.3490  0.0818 -0.1654
 6792TIP3   OH241790   2.588   3.394   0.317 -0.0571 -0.6795 -0.0784
 6792TIP3    H141791   2.618   3.399   0.407  1.1576  1.0089 -0.5336
 6792TIP3    H241792   2.665   3.367   0.267 -0.8249 -2.0428 -0.5946
 6793TIP3   OH241793   1.440   4.371   6.042  0.1477 -0.9776  0.0308
 6793TIP3    H141794   1.529   4.389   6.014 -0.0739  0.5773  0.2704
 6793TIP3    H241795   1.389   4.371   5.960 -0.0076  0.5698  0.1022
 6794TIP3   OH241796   0.373   1.195  11.511 -0.8623 -0.1482  0.3815
 6794TIP3    H141797   0.341   1.121  11.459 -4.2759  0.3484  1.5642
 6794TIP3    H241798   0.302   1.259  11.508 -0.0712  1.0236  3.4069
 6795TIP3   OH241799   4.790   4.001   4.362  0.3590 -0.7150 -0.2873
 6795TIP3    H141800   4.744   4.078   4.329  0.3615  0.2848  1.8124
 6795TIP3    H241801   4.781   3.935   4.294  1.4772  1.5275 -2.7799
 6796TIP3   OH241802   5.267   0.514  13.329 -0.1060  0.2048 -0.1804
 6796TIP3    H141803   5.261   0.588  13.268 -1.1697 -0.3416 -0.7526
 6796TIP3    H241804   5.360   0.490  13.328  0.0435  0.7733 -0.8832
 6797TIP3   OH241805   3.715   4.370   4.736  0.0077 -0.9761 -0.5269
 6797TIP3    H141806   3.722   4.464   4.720  0.7353 -1.1400 -1.2009
 6797TIP3    H241807   3.621   4.352   4.731 -0.2067 -0.1704  0.3368
 6798TIP3   OH241808   3.627   0.107  13.203 -0.1380 -0.7037  0.0228
 6798TIP3    H141809   3.661   0.133  13.118  0.3255 -1.1546  0.0602
 6798TIP3    H241810   3.651   0.014  13.211 -0.0392 -0.6250  0.7029
 6799TIP3   OH241811   0.189   3.238  14.159 -0.0157 -0.4892 -0.5556
 6799TIP3    H141812   0.108   3.222  14.208  0.3440 -0.3536  0.0826
 6799TIP3    H241813   0.174   3.194  14.075 -0.0467 -2.0081  0.2166
 6800TIP3   OH241814   6.318   3.271  13.961 -0.3616  0.0492 -0.0056
 6800TIP3    H141815   6.229   3.298  13.942 -0.4274  0.1252  0.4025
 6800TIP3    H241816   6.315   3.175  13.962 -0.5217  0.0576  0.3937
 6801TIP3   OH241817   2.112   1.152   3.167 -0.4067 -0.3824 -0.6318
 6801TIP3    H141818   2.131   1.145   3.074 -0.8684  0.1770 -0.7736
 6801TIP3    H241819   2.076   1.066   3.191  1.6881 -1.2600 -0.4782
 6802TIP3   OH241820   3.099   1.720  13.197  0.5330  0.3366 -0.2169
 6802TIP3    H141821   3.042   1.721  13.120  2.3616  1.5820 -1.6613
 6802TIP3    H241822   3.040   1.706  13.271 -1.1847 -2.1303 -1.8891
 6803TIP3   OH241823   3.854   6.445   5.726 -0.3936  0.0764  0.1013
 6803TIP3    H141824   3.822   6.532   5.751 -0.9361  0.2522 -1.1104
 6803TIP3    H241825   3.878   6.454   5.633 -1.2480 -1.2584 -0.2761
 6804TIP3   OH241826   2.531   2.431   0.553  0.3863  0.4104 -0.1574
 6804TIP3    H141827   2.546   2.408   0.644 -0.4802 -0.7112 -0.2731
 6804TIP3    H241828   2.600   2.494   0.532  0.2712  1.1044  1.4091
 6805TIP3   OH241829   6.032   5.927  11.253 -0.5993 -0.4180  0.6404
 6805TIP3    H141830   6.107   5.924  11.193 -1.5521  2.6249 -0.9050
 6805TIP3    H241831   5.968   5.868  11.214 -0.7565  0.6281 -0.7554
 6806TIP3   OH241832   6.381   3.715   2.884 -0.3703 -0.2728 -0.0686
 6806TIP3    H141833   6.475   3.711   2.902 -0.2693 -0.9729 -0.6827
 6806TIP3    H241834   6.347   3.779   2.946  0.8767  1.7339 -1.3208
 6807TIP3   OH241835   5.226   4.920   2.215  0.4547 -0.1806 -0.0275
 6807TIP3    H141836   5.285   4.882   2.281 -1.5094 -1.9682  0.8039
 6807TIP3    H241837   5.274   4.911   2.132  1.0455 -2.4182  0.4955
 6808TIP3   OH241838   0.823   5.391  14.007  0.1579  0.3664 -0.2536
 6808TIP3    H141839   0.795   5.481  14.025  2.8378  0.9776  1.3213
 6808TIP3    H241840   0.852   5.357  14.092  1.9190 -0.9739 -1.3269
 6809TIP3   OH241841   1.464   4.498  11.251 -0.6626  0.1978  0.3773
 6809TIP3    H141842   1.401   4.570  11.245 -0.9212  0.1733  2.2382
 6809TIP3    H241843   1.421   4.434  11.307  0.9218  0.0894  1.5365
 6810TIP3   OH241844   1.680   5.416   0.445  0.4967  0.7352  0.1317
 6810TIP3    H141845   1.589   5.389   0.461 -0.1580  3.2309  1.0775
 6810TIP3    H241846   1.672   5.496   0.392  2.0659  1.5874  1.1041
 6811TIP3   OH241847   3.493   3.984   4.070 -0.3136  0.2800  0.3570
 6811TIP3    H141848   3.484   3.899   4.111  0.3534 -0.0451 -0.1429
 6811TIP3    H241849   3.586   4.007   4.081  0.0580 -0.1340 -1.5094
 6812TIP3   OH241850   1.959   0.281   2.482 -0.0341  0.0128  0.0529
 6812TIP3    H141851   2.052   0.262   2.472  0.0601  0.4151  0.1629
 6812TIP3    H241852   1.956   0.359   2.537 -0.4479 -0.2288  0.3806
 6813TIP3   OH241853   3.284   4.892   0.540  0.0060 -0.5041  0.7273
 6813TIP3    H141854   3.200   4.903   0.585 -0.9139 -3.6499  0.0736
 6813TIP3    H241855   3.283   4.801   0.509  2.9233 -0.1325 -0.8867
 6814TIP3   OH241856   1.337   3.389   4.967 -0.5477  0.2443 -0.0179
 6814TIP3    H141857   1.328   3.442   4.887  0.3261  0.4983  0.0452
 6814TIP3    H241858   1.262   3.329   4.964 -0.2460 -0.1148 -1.3050
 6815TIP3   OH241859   0.150   5.400  15.118 -0.1421  0.8496  0.6483
 6815TIP3    H141860   0.154   5.494  15.134 -0.6512  1.1987 -1.0147
 6815TIP3    H241861   0.229   5.382  15.067 -0.4320  0.5425  0.3022
 6816TIP3   OH241862   2.865   6.247  11.987  0.2096 -0.5628 -0.3657
 6816TIP3    H141863   2.869   6.177  12.052 -0.8334 -1.0255 -0.7920
 6816TIP3    H241864   2.955   6.280  11.983 -0.1503  1.4622  3.4180
 6817TIP3   OH241865   1.861   0.086   3.623  0.3562 -1.0517 -0.2175
 6817TIP3    H141866   1.940   0.101   3.676  0.3706  0.3020 -0.5720
 6817TIP3    H241867   1.792   0.135   3.668  0.1099 -0.8457 -0.8092
 6818TIP3   OH241868   4.769   3.799  12.685 -0.0027  0.0365  0.5016
 6818TIP3    H141869   4.716   3.875  12.707 -0.7892 -0.0045 -1.1096
 6818TIP3    H241870   4.855   3.836  12.662 -0.2519  0.3904  0.1391
 6819TIP3   OH241871   4.649   5.694   5.347  0.6336  0.8115 -0.2178
 6819TIP3    H141872   4.631   5.600   5.345 -0.0050  0.9112  0.3204
 6819TIP3    H241873   4.693   5.708   5.431  2.5731  0.6974 -1.1661
 6820TIP3   OH241874   2.560   0.865  11.337 -0.4274 -0.1249 -0.3869
 6820TIP3    H141875   2.641   0.911  11.360 -1.3600  1.4133 -0.0897
 6820TIP3    H241876   2.560   0.787  11.393 -0.3424  1.1163  1.4114
 6821TIP3   OH241877   6.798   3.113   1.406  0.9354  0.0128  0.2312
 6821TIP3    H141878   6.744   3.145   1.478 -0.2836  0.1139 -0.6873
 6821TIP3    H241879   6.888   3.119   1.438  0.4790  0.8630  1.4101
 6822TIP3   OH241880   0.516   2.938   1.074 -0.2260 -0.1191 -0.3753
 6822TIP3    H141881   0.462   2.928   0.996  0.4739 -0.8000 -0.7874
 6822TIP3    H241882   0.536   3.032   1.077  0.4443 -0.2061 -1.5078
 6823TIP3   OH241883   5.586   0.854  12.087 -0.0072  0.5045 -0.0511
 6823TIP3    H141884   5.679   0.871  12.103 -0.3223 -0.4650  3.6430
 6823TIP3    H241885   5.541   0.898  12.158 -2.5064  1.4186 -2.0762
 6824TIP3   OH241886   0.690   4.864  16.281 -0.1910  0.0602  0.7691
 6824TIP3    H141887   0.735   4.913  16.350 -0.2636  0.0727  0.8083
 6824TIP3    H241888   0.669   4.780  16.321 -0.7705  0.2909  0.9571
 6825TIP3   OH241889   5.927   0.473   0.264  0.3678 -0.1381  0.3752
 6825TIP3    H141890   5.974   0.555   0.277 -0.0460  0.2927 -0.7772
 6825TIP3    H241891   5.950   0.446   0.175  1.0262 -1.6221  0.9593
 6826TIP3   OH241892   4.745   2.709  14.380  0.6060  0.1043  0.3887
 6826TIP3    H141893   4.711   2.760  14.306  1.1386  1.9269  1.3407
 6826TIP3    H241894   4.832   2.681  14.351  1.4097  2.0209  0.7785
 6827TIP3   OH241895   5.942   0.938  14.101 -0.2095 -0.4768  0.0545
 6827TIP3    H141896   5.894   0.953  14.182 -1.8354  1.5082 -1.1753
 6827TIP3    H241897   5.905   0.858  14.065 -0.0671 -0.9030  0.8415
 6828TIP3   OH241898   2.018   1.249   5.504 -0.3314  0.6040 -0.2266
 6828TIP3    H141899   1.963   1.316   5.544  0.3134  2.0503 -1.6222
 6828TIP3    H241900   2.096   1.246   5.559  0.4093  2.3444 -1.0853
 6829TIP3   OH241901   0.333   0.194  11.059 -0.2807  0.4043  0.1590
 6829TIP3    H141902   0.319   0.158  11.147  0.1684  0.9907  0.4788
 6829TIP3    H241903   0.264   0.259  11.049 -0.1149  0.5925  0.2252
 6830TIP3   OH241904   3.518   5.517  14.763  0.5140  0.1918 -0.2045
 6830TIP3    H141905   3.500   5.601  14.721  1.0308 -0.0642 -0.9553
 6830TIP3    H241906   3.432   5.480  14.781  0.2674 -0.1523 -1.9711
 6831TIP3   OH241907   2.948   3.386  16.074 -0.2186 -0.5104  0.4108
 6831TIP3    H141908   2.935   3.312  16.133 -1.4312 -1.4452 -0.9411
 6831TIP3    H241909   2.872   3.442  16.089 -1.1343 -1.3066 -0.9596
 6832TIP3   OH241910   4.956   0.760   3.349  0.1466  0.2486  0.3127
 6832TIP3    H141911   4.891   0.697   3.382  0.4151  0.1260  0.6182
 6832TIP3    H241912   4.909   0.843   3.348 -0.1720  0.0725  0.0338
 6833TIP3   OH241913   4.343   6.316  15.087 -0.0666 -0.2809 -0.3497
 6833TIP3    H141914   4.411   6.382  15.072  2.0454 -2.4516 -0.9652
 6833TIP3    H241915   4.391   6.241  15.122 -2.5768 -1.0516  1.7123
 6834TIP3   OH241916   4.780   3.431  11.299  0.7081 -0.0526  0.8796
 6834TIP3    H141917   4.786   3.335  11.292 -1.1513 -0.2304  1.0150
 6834TIP3    H241918   4.772   3.460  11.208 -2.6331 -0.4653  0.8851
 6835TIP3   OH241919   3.750   1.482  14.194  0.1650 -0.4247  0.0291
 6835TIP3    H141920   3.820   1.540  14.224  0.6977 -0.7582 -0.5460
 6835TIP3    H241921   3.747   1.413  14.260 -0.3997  0.1834  0.6606
 6836TIP3   OH241922   6.634   3.232   1.599  0.6445  0.2376  0.5097
 6836TIP3    H141923   6.660   3.317   1.634 -2.4591  1.4555  0.2018
 6836TIP3    H241924   6.611   3.180   1.675  1.6762 -0.0524  0.6434
 6837TIP3   OH241925   0.316   5.418   2.132  0.0610  0.0528 -0.0301
 6837TIP3    H141926   0.328   5.324   2.147  1.8909 -0.1858 -2.4065
 6837TIP3    H241927   0.234   5.424   2.084  0.1184 -0.3726 -0.1878
 6838TIP3   OH241928   1.092   3.197  11.399 -0.2844 -0.0525 -0.1234
 6838TIP3    H141929   1.058   3.263  11.460  0.5104 -0.4373  0.7645
 6838TIP3    H241930   1.014   3.163  11.355 -0.8345  0.5213  0.3935
 6839TIP3   OH241931   1.606   6.715   0.422  0.0915  0.5078  0.1517
 6839TIP3    H141932   1.586   6.721   0.329 -0.7953 -0.3315  0.2672
 6839TIP3    H241933   1.649   6.798   0.443  1.2272  0.3001 -1.2019
 6840TIP3   OH241934   2.259   1.831  13.190  0.9225 -0.3603  0.1091
 6840TIP3    H141935   2.256   1.881  13.272  2.3754 -0.5527  0.3047
 6840TIP3    H241936   2.167   1.814  13.169  0.5216 -0.2476  1.6644
 6841TIP3   OH241937   4.837   4.498   1.774  0.5232  0.1748  0.1876
 6841TIP3    H141938   4.823   4.588   1.805  1.9834  0.2300  0.7318
 6841TIP3    H241939   4.896   4.459   1.838 -0.9650 -1.5634  0.5963
 6842TIP3   OH241940   0.003   6.402   4.946  0.2279  0.6603  0.4388
 6842TIP3    H141941  -0.039   6.400   4.860 -0.1761  1.0714  0.6206
 6842TIP3    H241942  -0.049   6.342   5.000 -0.3136  1.3812  0.7397
 6843TIP3   OH241943   6.255   4.205  11.152  0.1536  0.0721 -0.1844
 6843TIP3    H141944   6.177   4.212  11.097  0.6853  1.8542 -0.7953
 6843TIP3    H241945   6.292   4.120  11.130 -2.0155 -1.1905  0.7230
 6844TIP3   OH241946   5.617   3.342  14.519  0.3252  0.0131  0.4029
 6844TIP3    H141947   5.685   3.299  14.468  0.1004  0.0984  0.0267
 6844TIP3    H241948   5.591   3.278  14.585 -1.6544 -1.3714 -1.5799
 6845TIP3   OH241949   1.977   1.317  12.585 -0.1208 -0.4194 -0.5055
 6845TIP3    H141950   1.944   1.402  12.555 -1.2403  0.5002  2.8414
 6845TIP3    H241951   2.036   1.339  12.658  1.5077 -2.4616 -1.1187
 6846TIP3   OH241952   0.321   0.982  11.348  0.2546 -0.0691  0.0329
 6846TIP3    H141953   0.401   0.955  11.303  1.1965  1.0110  0.9861
 6846TIP3    H241954   0.250   0.953  11.291  1.2507 -2.4039 -0.1226
 6847TIP3   OH241955   4.319   1.573   0.223  0.0095 -0.4910  0.2786
 6847TIP3    H141956   4.387   1.566   0.291  2.9853  0.1833 -2.3680
 6847TIP3    H241957   4.343   1.508   0.158 -1.2472  0.5261 -1.2882
 6848TIP3   OH241958   4.765   2.794  16.201  0.4903 -0.4224 -0.0795
 6848TIP3    H141959   4.845   2.806  16.150  0.1239 -0.8413 -0.7760
 6848TIP3    H241960   4.697   2.781  16.135 -0.5119  1.8622  0.4313
 6849TIP3   OH241961   3.298   2.925   5.450  0.1279  0.2482 -0.1462
 6849TIP3    H141962   3.275   2.937   5.358 -1.6402  1.1562  0.3549
 6849TIP3    H241963   3.213   2.915   5.494  0.8646  0.9223  1.5150
 6850TIP3   OH241964   5.862   5.831  16.999  0.3967  0.2000 -0.6137
 6850TIP3    H141965   5.824   5.918  17.012  0.0926  0.5010 -2.9908
 6850TIP3    H241966   5.800   5.787  16.941  1.4367 -0.9628 -0.8841
 6851TIP3   OH241967   1.505   2.301   5.491 -0.4642  0.3678  0.3381
 6851TIP3    H141968   1.465   2.304   5.578 -2.2981  1.6231 -0.5013
 6851TIP3    H241969   1.441   2.254   5.437 -0.3113  1.4198 -0.7897
 6852TIP3   OH241970   2.964   0.509   3.821 -0.0115 -0.5366 -0.0637
 6852TIP3    H141971   2.947   0.546   3.907 -1.7806 -0.4146 -0.4251
 6852TIP3    H241972   2.914   0.427   3.819  0.3647 -0.7588 -0.8091
 6853TIP3   OH241973   1.727   3.475  14.302  0.3857  0.9423 -0.0325
 6853TIP3    H141974   1.716   3.568  14.284  0.2000  1.0359  0.5299
 6853TIP3    H241975   1.701   3.431  14.221  0.4269  1.3769 -0.2845
 6854TIP3   OH241976   3.213   5.943  13.507  0.0275  0.1881  0.0915
 6854TIP3    H141977   3.275   5.910  13.441 -1.2789 -0.4650 -0.8408
 6854TIP3    H241978   3.269   5.975  13.577  1.4679  0.6541 -1.2011
 6855TIP3   OH241979   2.275   3.842   1.716  0.4995  0.7168  0.1466
 6855TIP3    H141980   2.285   3.937   1.721 -0.5842  1.0016 -1.8602
 6855TIP3    H241981   2.347   3.813   1.661 -0.1915  0.6494 -0.7534
 6856TIP3   OH241982   6.302   4.800   5.052 -0.2227  0.4516  0.1536
 6856TIP3    H141983   6.264   4.714   5.036 -0.1719  0.1699  1.4211
 6856TIP3    H241984   6.229   4.854   5.081  0.0863  0.2704  1.3177
 6857TIP3   OH241985   0.340   2.752  16.522 -0.3425 -0.3855  0.3356
 6857TIP3    H141986   0.425   2.768  16.482 -0.3376  1.1672  0.9212
 6857TIP3    H241987   0.285   2.722  16.449  0.0256  1.0877 -0.5904
 6858TIP3   OH241988   2.818   3.932  16.872 -0.4218 -0.3036  0.5638
 6858TIP3    H141989   2.730   3.894  16.863 -0.6410  0.5576 -1.7078
 6858TIP3    H241990   2.859   3.918  16.786  0.6503  1.6974  0.6807
 6859TIP3   OH241991   2.467   5.271   5.414  0.6268  0.4566 -0.1883
 6859TIP3    H141992   2.453   5.320   5.495 -0.7757  0.4003 -0.3821
 6859TIP3    H241993   2.543   5.216   5.433  0.1954  0.2854  1.1686
 6860TIP3   OH241994   0.838   6.023  12.632 -0.2652  0.3041 -0.2714
 6860TIP3    H141995   0.921   6.046  12.592 -0.9177 -0.3844 -2.1185
 6860TIP3    H241996   0.858   6.014  12.726  2.2575 -2.1397 -0.9063
 6861TIP3   OH241997   0.820   3.136   1.458 -0.3755  0.6234 -0.0118
 6861TIP3    H141998   0.807   3.041   1.466  0.2603  0.5263 -0.0150
 6861TIP3    H241999   0.873   3.159   1.534 -0.5709  0.9829  0.0137
 6862TIP3   OH242000   2.969   4.046  13.526 -0.3167  0.4075  0.4357
 6862TIP3    H142001   3.055   4.007  13.512 -0.4267  0.1724  0.4151
 6862TIP3    H242002   2.984   4.140  13.521 -0.2044  0.3530 -0.4190
 6863TIP3   OH242003   3.966   3.220   4.199 -0.2086 -0.2180 -0.2639
 6863TIP3    H142004   4.027   3.219   4.126  0.1235  0.8268 -0.0127
 6863TIP3    H242005   4.019   3.195   4.275 -0.8674 -2.8336 -0.5661
 6864TIP3   OH242006   1.994   5.440  16.667 -0.1807 -0.3987  0.0071
 6864TIP3    H142007   2.010   5.429  16.760 -3.1486 -0.1960  0.6465
 6864TIP3    H242008   1.990   5.351  16.632  0.0300 -0.5031  0.2524
 6865TIP3   OH242009   0.486   0.614   1.802  0.5073 -0.3769 -0.4639
 6865TIP3    H142010   0.411   0.635   1.858 -0.2038 -0.9397 -1.1725
 6865TIP3    H242011   0.480   0.519   1.789  1.0735 -0.3579 -0.9085
 6866TIP3   OH242012   0.541   0.361   2.115  0.1413  0.5689 -0.3438
 6866TIP3    H142013   0.579   0.446   2.095 -0.9415  0.8149 -1.5206
 6866TIP3    H242014   0.573   0.339   2.202  0.2210  2.2993  0.0843
 6867TIP3   OH242015   6.347   4.285   3.886 -0.0646 -0.0045  0.1983
 6867TIP3    H142016   6.423   4.227   3.897 -0.1619 -0.2427 -0.3196
 6867TIP3    H242017   6.322   4.309   3.974 -0.5694 -1.4716  0.4920
 6868TIP3   OH242018   1.301   2.637   1.660 -0.3645 -0.3715 -0.8987
 6868TIP3    H142019   1.346   2.578   1.721 -1.7550  1.0703  1.6831
 6868TIP3    H242020   1.236   2.582   1.618 -2.2903 -0.6677  2.1608
 6869TIP3   OH242021   4.360   0.860   0.773 -0.0592 -0.1787 -0.3399
 6869TIP3    H142022   4.452   0.887   0.779  0.4166 -1.4305 -1.5755
 6869TIP3    H242023   4.337   0.835   0.863  0.0929  2.2294  0.4368
 6870TIP3   OH242024   0.144   5.678  16.789 -0.5062 -0.1227 -0.1340
 6870TIP3    H142025   0.205   5.748  16.813 -0.4485 -0.4173  0.6060
 6870TIP3    H242026   0.104   5.652  16.872 -1.7397  0.1503 -0.6318
 6871TIP3   OH242027   5.805   6.057   5.713 -0.6780 -0.3643 -0.1229
 6871TIP3    H142028   5.814   6.104   5.629 -1.0085 -1.3820 -0.7492
 6871TIP3    H242029   5.865   6.101   5.772  0.1230 -0.0978 -1.1108
 6872TIP3   OH242030   1.583   2.205   1.569 -0.1106  1.3280  0.2403
 6872TIP3    H142031   1.609   2.156   1.646 -1.3155  0.6380  0.2345
 6872TIP3    H242032   1.639   2.283   1.570  0.9054  0.6160  0.9798
 6873TIP3   OH242033   4.799   1.999  15.510  0.6037 -0.1106 -0.1900
 6873TIP3    H142034   4.741   2.007  15.434  2.2053  0.7346 -1.3671
 6873TIP3    H242035   4.819   1.905  15.514  1.3235 -0.0421 -1.4855
 6874TIP3   OH242036   2.165   2.071  11.152 -0.3007  0.1291 -0.0972
 6874TIP3    H142037   2.103   2.113  11.094  0.6500  0.8880 -0.5932
 6874TIP3    H242038   2.230   2.032  11.094  1.2490  1.7983  0.4391
 6875TIP3   OH242039   0.131   1.948  13.990  0.0035 -0.3015  0.5206
 6875TIP3    H142040   0.109   1.920  13.901  1.7330  1.0299 -0.3915
 6875TIP3    H242041   0.060   1.913  14.044 -4.2570  3.3603 -1.9934
 6876TIP3   OH242042   1.410   2.799  16.864  0.0363 -0.5578 -0.1526
 6876TIP3    H142043   1.436   2.891  16.874 -0.6020 -0.4716  0.9182
 6876TIP3    H242044   1.325   2.794  16.906 -0.4961 -1.3954 -1.2911
 6877TIP3   OH242045   0.094   4.119   5.369  0.1292 -0.0508 -0.3742
 6877TIP3    H142046   0.024   4.178   5.395  0.3068 -0.2402  0.5911
 6877TIP3    H242047   0.066   4.082   5.286  0.7303  2.5929 -1.8564
 6878TIP3   OH242048   1.786   3.764   5.202 -0.4445  0.6581 -0.4724
 6878TIP3    H142049   1.852   3.702   5.234 -1.9659 -0.2700  1.0906
 6878TIP3    H242050   1.821   3.798   5.120  1.7326 -0.1408  0.0746
 6879TIP3   OH242051   4.796   1.669  10.477 -0.0408  0.1860 -0.3110
 6879TIP3    H142052   4.882   1.629  10.466 -0.2770  0.1630 -2.5322
 6879TIP3    H242053   4.734   1.597  10.462 -0.4397  0.8340 -2.0414
 6880TIP3   OH242054   3.521   1.218  15.344  0.1445 -0.5198  0.0763
 6880TIP3    H142055   3.610   1.238  15.374  1.1926 -1.4808 -2.1674
 6880TIP3    H242056   3.515   1.123  15.346 -0.8721 -0.4653  0.2410
 6881TIP3   OH242057   0.711   3.640   5.999 -0.4730  0.7213  0.2490
 6881TIP3    H142058   0.683   3.609   6.085  1.3319  1.0472  0.9873
 6881TIP3    H242059   0.647   3.601   5.938 -1.4403  0.0152  1.6541
 6882TIP3   OH242060   2.221   0.805   4.140  0.2030  0.2241 -0.8567
 6882TIP3    H142061   2.305   0.808   4.094  0.7228  2.1314  0.1131
 6882TIP3    H242062   2.164   0.860   4.087 -0.2792 -0.5609 -1.1697
 6883TIP3   OH242063   5.055   2.075   0.483 -0.6859 -0.2520  0.4772
 6883TIP3    H142064   5.119   2.131   0.527 -0.1267 -0.3322 -0.2344
 6883TIP3    H242065   5.069   2.089   0.390 -0.4920 -1.6209  0.2799
 6884TIP3   OH242066   4.760   4.067  16.465 -0.1709 -0.2344  0.0657
 6884TIP3    H142067   4.734   3.984  16.425  0.4537 -0.9256  1.0469
 6884TIP3    H242068   4.697   4.081  16.535  0.1232 -0.2385  0.3361
 6885TIP3   OH242069   1.927   0.997  15.683  0.3798 -0.4104  0.5976
 6885TIP3    H142070   1.868   1.058  15.640  1.9385  0.7029 -0.0696
 6885TIP3    H242071   2.014   1.037  15.674  1.1858 -1.7451  1.9380
 6886TIP3   OH242072   2.757   1.052  10.943  1.2420 -1.1199 -0.1053
 6886TIP3    H142073   2.663   1.044  10.959  1.1108 -0.1179 -0.3035
 6886TIP3    H242074   2.768   1.022  10.853  1.2824 -2.2598  0.2649
 6887TIP3   OH242075   4.365   0.091   4.486  0.1443 -0.2469  0.1722
 6887TIP3    H142076   4.327   0.164   4.437 -0.9830 -0.2895  0.9442
 6887TIP3    H242077   4.353   0.115   4.578  0.4879 -1.0382  0.4303
 6888TIP3   OH242078   4.279   5.315   4.616  0.1842  0.3755  0.1266
 6888TIP3    H142079   4.211   5.287   4.555  0.2169  0.7904 -0.1089
 6888TIP3    H242080   4.360   5.278   4.580  0.1289  0.1796  0.2082
 6889TIP3   OH242081   1.175   1.730   6.652 -0.0738  0.0024  0.8192
 6889TIP3    H142082   1.205   1.795   6.715  0.2220  0.2474  0.4334
 6889TIP3    H242083   1.091   1.764   6.621  0.0800  0.2112  0.6183
 6890TIP3   OH242084   3.976   5.750  13.488 -0.4363 -0.0077  0.2547
 6890TIP3    H142085   4.067   5.737  13.463 -0.5547 -0.4316  0.0367
 6890TIP3    H242086   3.932   5.668  13.463 -1.0165  0.4570 -0.2796
 6891TIP3   OH242087   4.528   5.000  16.299 -0.0777 -0.0070  0.2625
 6891TIP3    H142088   4.446   4.998  16.249 -0.1477  1.3533  0.2843
 6891TIP3    H242089   4.592   5.036  16.237  0.8865 -2.3418 -0.2244
 6892TIP3   OH242090   3.261   3.127  13.150  0.7857  0.5246  0.5038
 6892TIP3    H142091   3.252   3.213  13.191  1.9640 -0.2016  2.4363
 6892TIP3    H242092   3.292   3.070  13.221 -1.3033 -1.8427 -0.3334
 6893TIP3   OH242093   2.324   1.162   0.773 -1.1422 -0.1488  0.1045
 6893TIP3    H142094   2.276   1.231   0.727 -1.5440 -0.0010  0.7340
 6893TIP3    H242095   2.416   1.181   0.755 -1.1539  1.4481  1.4809
 6894TIP3   OH242096   6.756   5.168   1.138 -0.1878 -0.4690 -0.2003
 6894TIP3    H142097   6.763   5.124   1.223 -1.5388  0.0152  0.1845
 6894TIP3    H242098   6.767   5.261   1.158  0.2129 -0.4155 -0.6630
 6895TIP3   OH242099   0.530   1.440  11.564 -0.0335 -0.0739 -0.5578
 6895TIP3    H142100   0.497   1.498  11.495  0.1264 -0.2814 -0.8103
 6895TIP3    H242101   0.494   1.354  11.541  0.1969 -0.1844 -0.5019
 6896TIP3   OH242102   0.543   0.897  11.183  0.0037  0.0808 -0.1292
 6896TIP3    H142103   0.629   0.896  11.225 -0.2607 -0.1288  0.4199
 6896TIP3    H242104   0.558   0.858  11.097  0.6691  1.0600 -0.4792
 6897TIP3   OH242105   0.921   6.149  13.554 -0.6192 -0.3401  0.1266
 6897TIP3    H142106   0.889   6.081  13.613  1.0436 -0.4510  0.9600
 6897TIP3    H242107   0.888   6.124  13.468 -0.1713 -2.1317  0.4378
 6898TIP3   OH242108   1.559   0.436  11.887  0.1642  0.2873 -0.4299
 6898TIP3    H142109   1.605   0.393  11.814 -2.5182 -1.0181 -1.5446
 6898TIP3    H242110   1.573   0.529  11.873  1.7114 -0.0217 -1.1752
 6899TIP3   OH242111   0.172   6.265   3.037 -0.3451 -0.0828 -0.6727
 6899TIP3    H142112   0.168   6.169   3.033 -4.0806 -0.0319 -1.8412
 6899TIP3    H242113   0.180   6.285   3.131  0.8870 -1.4936 -0.4436
 6900TIP3   OH242114   0.145   3.796   4.894 -0.0931  0.4019 -0.2993
 6900TIP3    H142115   0.224   3.788   4.840  0.7352 -1.5734  1.0979
 6900TIP3    H242116   0.176   3.834   4.976 -0.6261 -0.1403  0.1650
 6901TIP3   OH242117   1.841   1.329  14.868  0.1808 -0.1336  0.2131
 6901TIP3    H142118   1.840   1.234  14.861  1.3353 -0.2615  1.2741
 6901TIP3    H242119   1.934   1.352  14.868 -0.0909  1.1232 -1.2787
 6902TIP3   OH242120   1.293   4.286   5.265 -0.0433  0.4256 -0.1189
 6902TIP3    H142121   1.360   4.308   5.330 -0.0554  0.8423 -0.2450
 6902TIP3    H242122   1.210   4.303   5.310 -0.1000 -0.9148  0.3390
 6903TIP3   OH242123   6.240   4.884   3.670 -0.4503  0.6301  0.3343
 6903TIP3    H142124   6.183   4.809   3.691 -0.2007  0.2412 -0.3325
 6903TIP3    H242125   6.326   4.857   3.701 -0.3728  0.6650  0.1492
 6904TIP3   OH242126   2.176   3.447   1.601  0.5518  0.3618  0.4137
 6904TIP3    H142127   2.150   3.361   1.635  1.1675 -0.5877 -1.3990
 6904TIP3    H242128   2.143   3.509   1.667 -1.3616 -1.1312  0.9834
 6905TIP3   OH242129   0.780   5.749  11.203 -0.6466  0.2942 -0.4375
 6905TIP3    H142130   0.704   5.791  11.242 -0.5144 -0.9694  1.3148
 6905TIP3    H242131   0.854   5.780  11.255 -0.3605 -0.7911 -0.1549
 6906TIP3   OH242132   4.187   2.268   2.513 -0.1212 -0.1685  0.2401
 6906TIP3    H142133   4.222   2.356   2.499 -0.7030 -0.0653 -0.6997
 6906TIP3    H242134   4.262   2.216   2.539  0.0852  0.7700  1.6106
 6907TIP3   OH242135   2.579   3.786  13.719  0.8224 -0.1966  0.4458
 6907TIP3    H142136   2.660   3.810  13.763  1.0667  0.0557 -0.1213
 6907TIP3    H242137   2.593   3.696  13.689 -0.2903 -1.3124  3.0284
 6908TIP3   OH242138   4.907   4.447  11.557  0.3230  0.0471  0.0321
 6908TIP3    H142139   4.948   4.476  11.638  0.1039 -0.6656  0.3973
 6908TIP3    H242140   4.871   4.527  11.519  1.2547  0.5417  0.1540
 6909TIP3   OH242141   2.160   2.802  16.450  0.7814  0.8399 -0.3546
 6909TIP3    H142142   2.126   2.715  16.474  1.4859  0.1805 -1.6598
 6909TIP3    H242143   2.090   2.841  16.398  2.1172 -0.7888 -3.6279
 6910TIP3   OH242144   0.307   4.791   6.053  0.0848  0.4459  0.1501
 6910TIP3    H142145   0.219   4.795   6.092 -0.1600 -1.0403 -0.1850
 6910TIP3    H242146   0.291   4.764   5.962  0.9538 -1.2467  0.4641
 6911TIP3   OH242147   2.543   3.667   1.741  0.0656  0.0451 -0.1886
 6911TIP3    H142148   2.623   3.680   1.792  0.3347 -2.0931  0.0183
 6911TIP3    H242149   2.483   3.623   1.801 -0.9945  0.8699 -0.6002
 6912TIP3   OH242150   1.050   4.976   2.609 -0.0763  0.4634 -0.6415
 6912TIP3    H142151   1.093   4.951   2.527 -0.9651  1.0677 -1.3177
 6912TIP3    H242152   0.957   4.969   2.590 -0.2889  0.3758  0.4056
 6913TIP3   OH242153   5.392   1.111   4.220 -0.0669 -0.1983 -0.1954
 6913TIP3    H142154   5.461   1.129   4.157 -0.4405 -0.6948 -0.7587
 6913TIP3    H242155   5.374   1.018   4.210  0.6778 -0.5640  1.4834
 6914TIP3   OH242156   5.457   5.490   6.458  0.0718  0.2891 -0.0391
 6914TIP3    H142157   5.515   5.508   6.532 -0.0401 -0.1551  0.1655
 6914TIP3    H242158   5.419   5.575   6.436 -0.7103  0.2748  1.1156
 6915TIP3   OH242159   6.364   1.257   0.417 -0.1488  0.5482 -0.0872
 6915TIP3    H142160   6.348   1.346   0.449  0.8037  0.3569  0.9833
 6915TIP3    H242161   6.459   1.251   0.410 -0.2422 -0.1552 -0.8600
 6916TIP3   OH242162   5.362   0.843  11.139 -0.1366  0.4004 -0.7547
 6916TIP3    H142163   5.294   0.886  11.088 -1.4050  0.4094  0.8503
 6916TIP3    H242164   5.350   0.875  11.229  0.6917 -1.1256 -0.0433
 6917TIP3   OH242165   2.855   1.803  13.003 -0.3386  0.1472  0.1455
 6917TIP3    H142166   2.930   1.759  12.963 -0.6667 -0.9973  0.7137
 6917TIP3    H242167   2.797   1.824  12.930 -0.1097 -0.2592 -0.1562
 6918TIP3   OH242168   6.067   6.517  15.817  0.0237 -0.5406 -0.2188
 6918TIP3    H142169   5.993   6.571  15.788 -0.0754 -0.6472 -0.1665
 6918TIP3    H242170   6.145   6.569  15.795 -0.0923 -0.0639  0.4571
 6919TIP3   OH242171   2.823   1.812   2.461  0.2283 -0.0502  0.2378
 6919TIP3    H142172   2.787   1.895   2.494  0.4614  1.0607 -2.1272
 6919TIP3    H242173   2.751   1.750   2.467 -0.2511  0.5564  1.1020
 6920TIP3   OH242174   2.226   3.782  12.464 -0.5213  0.4033 -0.0314
 6920TIP3    H142175   2.159   3.722  12.495 -0.0397  1.0541  2.5560
 6920TIP3    H242176   2.309   3.738  12.484 -0.1855  1.3299  0.7101
 6921TIP3   OH242177   5.156   3.216  13.797  0.7262  0.2963 -0.0781
 6921TIP3    H142178   5.192   3.127  13.792 -1.4466 -0.6913  0.7133
 6921TIP3    H242179   5.130   3.236  13.707 -2.2173 -1.4901  0.2280
 6922TIP3   OH242180   5.649   2.866   4.842  0.1401 -0.1992 -0.9609
 6922TIP3    H142181   5.741   2.867   4.814  0.6914  1.1791  0.6531
 6922TIP3    H242182   5.622   2.958   4.836 -0.2657 -0.1367  1.0972
 6923TIP3   OH242183   5.357   4.092  13.267  0.4211 -0.5766 -0.0772
 6923TIP3    H142184   5.432   4.141  13.233 -0.7144 -0.3728 -2.4634
 6923TIP3    H242185   5.367   4.097  13.362  2.2781  1.2485 -0.2899
 6924TIP3   OH242186   5.427   2.224   3.129 -0.1847  0.4031 -0.2487
 6924TIP3    H142187   5.493   2.180   3.183 -0.6431 -0.0929 -0.0865
 6924TIP3    H242188   5.420   2.169   3.050  0.5459  1.1709 -0.8643
 6925TIP3   OH242189   0.714   0.023  14.876  0.3839  0.3951  0.0460
 6925TIP3    H142190   0.631   0.039  14.922 -0.2002  1.1614 -1.2040
 6925TIP3    H242191   0.691   0.031  14.783  1.5929 -0.7662 -0.3744
 6926TIP3   OH242192   3.993   6.649   0.883 -0.1417 -0.3821 -0.2078
 6926TIP3    H142193   3.984   6.659   0.977 -0.3507 -1.0559 -0.1538
 6926TIP3    H242194   3.937   6.575   0.861 -0.6328  0.1939 -0.9573
 6927TIP3   OH242195   1.490   2.188   1.324  0.1092 -0.1963 -0.2983
 6927TIP3    H142196   1.396   2.202   1.340  0.3292  1.5788 -0.3458
 6927TIP3    H242197   1.530   2.200   1.410  0.4605  0.8836 -0.6049
 6928TIP3   OH242198   0.660   1.099  10.912  0.5201  0.0020  0.9717
 6928TIP3    H142199   0.637   1.025  10.855  0.2600  1.0651 -0.3316
 6928TIP3    H242200   0.580   1.151  10.918  1.1282  1.0109  0.5882
 6929TIP3   OH242201   6.238   2.262   3.640  0.2266 -0.0499 -0.0633
 6929TIP3    H142202   6.303   2.331   3.652 -0.6386  0.7665  0.1098
 6929TIP3    H242203   6.235   2.216   3.724  3.2089 -2.5423 -1.1500
 6930TIP3   OH242204   4.227   1.770   3.354 -0.3676  0.0195 -0.1195
 6930TIP3    H142205   4.172   1.806   3.285 -0.5527 -0.0778 -0.0235
 6930TIP3    H242206   4.313   1.811   3.340 -0.2308 -0.4571 -0.7856
 6931TIP3   OH242207   6.563   6.245  12.221  0.4597  0.2436  0.3501
 6931TIP3    H142208   6.526   6.258  12.134  0.4342  0.5171  0.4021
 6931TIP3    H242209   6.655   6.221  12.204  0.6570  1.0318  0.2702
 6932TIP3   OH242210   3.225   1.341  16.160 -0.2588  0.1148 -0.2237
 6932TIP3    H142211   3.249   1.323  16.251 -0.1832 -2.0087 -0.6061
 6932TIP3    H242212   3.131   1.356  16.164 -0.1883  0.4732  0.2556
 6933TIP3   OH242213   2.349   0.966  14.909  0.2000 -0.4270 -0.0805
 6933TIP3    H142214   2.336   0.979  15.003 -0.7107  0.9840 -0.3696
 6933TIP3    H242215   2.363   0.872  14.900  1.8026 -0.4221  1.6256
 6934TIP3   OH242216   3.866   5.544  13.156 -0.1869 -0.4857  0.6707
 6934TIP3    H142217   3.805   5.470  13.160  0.0614 -0.6537  1.5561
 6934TIP3    H242218   3.810   5.622  13.157 -0.4340 -0.6508  0.1026
 6935TIP3   OH242219   2.693   0.435  12.751 -0.1748  0.0845 -0.0569
 6935TIP3    H142220   2.724   0.503  12.811  0.1129 -0.4361  0.3985
 6935TIP3    H242221   2.678   0.359  12.807  1.6469 -0.9298 -0.8495
 6936TIP3   OH242222   1.511   5.157   2.151  0.4741 -0.2599  0.2289
 6936TIP3    H142223   1.595   5.122   2.182  1.0331  0.9319  0.0969
 6936TIP3    H242224   1.519   5.252   2.162 -0.5088 -0.0606 -0.6485
 6937TIP3   OH242225   4.191   2.519  13.268 -0.0486 -0.2475 -0.2047
 6937TIP3    H142226   4.248   2.575  13.215 -1.4111 -0.3272 -1.8409
 6937TIP3    H242227   4.239   2.507  13.350  1.3620  1.3213 -0.7377
 6938TIP3   OH242228   6.604   2.934   5.795 -0.3241 -0.2584 -0.7917
 6938TIP3    H142229   6.589   2.918   5.702  2.3980  0.5336 -1.4744
 6938TIP3    H242230   6.586   3.028   5.807  0.8177 -0.0032 -0.9257
 6939TIP3   OH242231   0.931   4.821  16.739 -0.1770 -0.9673 -0.5586
 6939TIP3    H142232   0.926   4.770  16.820 -0.3425 -0.0544  0.0110
 6939TIP3    H242233   0.875   4.773  16.678 -0.5555 -1.3165  0.0507
 6940TIP3   OH242234   0.225   2.052   2.736 -1.0328 -0.2054  0.0411
 6940TIP3    H142235   0.256   2.026   2.823 -1.8010  1.0395  0.7059
 6940TIP3    H242236   0.300   2.097   2.697 -0.1471 -2.1233 -0.5999
 6941TIP3   OH242237   3.174   3.815   2.825 -0.3534  0.5065 -0.7206
 6941TIP3    H142238   3.173   3.909   2.842 -1.1096  0.5851 -1.1654
 6941TIP3    H242239   3.247   3.802   2.765 -0.2421  0.8022 -0.6517
 6942TIP3   OH242240   2.625   2.892  13.093  0.2734 -0.2879  0.5199
 6942TIP3    H142241   2.632   2.959  13.162  2.9188 -0.3132  0.3860
 6942TIP3    H242242   2.715   2.878  13.064 -0.5392 -1.7786 -1.5483
 6943TIP3   OH242243   3.105   0.934   2.570  0.7334 -0.1762  0.2668
 6943TIP3    H142244   3.057   1.004   2.614 -1.0852  0.9447 -3.1764
 6943TIP3    H242245   3.197   0.954   2.586  0.2173  1.6705  1.2233
 6944TIP3   OH242246   1.226   4.786   2.950 -0.1775 -0.5709  0.0128
 6944TIP3    H142247   1.140   4.746   2.940 -0.9292  1.2229 -1.2713
 6944TIP3    H242248   1.212   4.856   3.013  0.3813 -0.3989 -0.0538
 6945TIP3   OH242249   4.876   2.442   3.901  0.1322  0.7158  0.4831
 6945TIP3    H142250   4.845   2.386   3.830 -2.2039 -1.5205  2.9949
 6945TIP3    H242251   4.812   2.513   3.905 -1.4042 -0.6566  1.9276
 6946TIP3   OH242252   6.710   3.419   0.462  0.1634  0.5734 -0.6207
 6946TIP3    H142253   6.691   3.404   0.555 -1.0197  0.7544 -0.8110
 6946TIP3    H242254   6.646   3.485   0.435  0.0533  0.0405 -1.7171
 6947TIP3   OH242255   1.394   6.554   2.826  0.0189 -0.6899  0.1102
 6947TIP3    H142256   1.353   6.467   2.829  2.0052 -1.6771 -0.0217
 6947TIP3    H242257   1.425   6.569   2.915  0.7724 -0.6717 -0.1531
 6948TIP3   OH242258   5.127   0.204  11.180  0.0085 -0.1976  0.0369
 6948TIP3    H142259   5.184   0.127  11.175 -0.7514 -0.8675  1.1660
 6948TIP3    H242260   5.062   0.181  11.246  0.4284  1.8762  1.2602
 6949TIP3   OH242261   4.551   3.471   0.726 -0.0271 -0.0325  0.2008
 6949TIP3    H142262   4.571   3.564   0.728 -3.9787  1.0221 -0.8384
 6949TIP3    H242263   4.517   3.455   0.638  1.2516 -2.7187  0.0789
 6950TIP3   OH242264   4.069   1.958   4.771 -0.1003 -0.0083  0.1938
 6950TIP3    H142265   4.020   1.896   4.716 -0.8282  0.9049 -0.2170
 6950TIP3    H242266   4.035   1.944   4.859  0.3298 -0.7559  0.2499
 6951TIP3   OH242267   0.140   5.612  13.734  0.3337 -0.1884  0.3219
 6951TIP3    H142268   0.180   5.681  13.788  0.4620 -0.1315  0.1537
 6951TIP3    H242269   0.068   5.579  13.788  0.4156 -0.0816  0.5003
 6952TIP3   OH242270   0.610   4.455   2.516  0.0628  0.0847 -0.3207
 6952TIP3    H142271   0.705   4.444   2.515  0.1219  0.4494  0.4265
 6952TIP3    H242272   0.588   4.480   2.426  0.6683 -0.0446 -0.5110
 6953TIP3   OH242273   1.589   5.820   3.078 -0.2855  0.0616  0.3961
 6953TIP3    H142274   1.648   5.892   3.058  0.3873 -1.0324 -1.9199
 6953TIP3    H242275   1.606   5.800   3.170  1.2433  1.3169  0.4245
 6954TIP3   OH242276   5.149   1.683  13.552 -0.2067  0.3352 -0.4227
 6954TIP3    H142277   5.117   1.676  13.642  0.4911  2.6525  0.0653
 6954TIP3    H242278   5.231   1.731  13.559  0.2507 -0.0931 -2.2534
 6955TIP3   OH242279   3.123   1.912  16.609 -0.1743 -0.4671 -0.3666
 6955TIP3    H142280   3.213   1.884  16.621  0.2615  0.1524 -1.9187
 6955TIP3    H242281   3.084   1.845  16.553  0.1674  0.6598 -2.0317
 6956TIP3   OH242282   3.110   5.665   4.328  0.0141  0.5304  0.7435
 6956TIP3    H142283   3.129   5.694   4.417 -0.9084  0.3699  0.9984
 6956TIP3    H242284   3.115   5.570   4.331  1.2525  0.5511  0.3111
 6957TIP3   OH242285   2.929   3.996  16.610 -0.7706  0.4078  0.7894
 6957TIP3    H142286   2.942   3.929  16.544 -0.7351 -0.2496  1.4526
 6957TIP3    H242287   2.979   4.072  16.578  2.7978 -1.1778  1.9969
 6958TIP3   OH242288   4.612   6.640   4.866  0.2762  0.0432 -0.0737
 6958TIP3    H142289   4.630   6.604   4.953 -0.3778  0.9796  0.4671
 6958TIP3    H242290   4.521   6.614   4.847  0.4829 -0.3400 -0.5838
 6959TIP3   OH242291   3.758   4.504   5.411  0.4261 -0.0119  0.2299
 6959TIP3    H142292   3.797   4.435   5.465 -1.1798 -1.4512 -0.3781
 6959TIP3    H242293   3.821   4.576   5.416  0.3685 -0.0475  3.9830
 6960TIP3   OH242294   5.945   0.904   1.147 -0.7722 -0.2919  0.5309
 6960TIP3    H142295   6.028   0.858   1.137 -0.1159  1.0904 -0.9641
 6960TIP3    H242296   5.892   0.847   1.202  0.3441 -2.3233 -0.3782
 6961TIP3   OH242297   2.959   3.129  16.229 -0.1305 -0.0351  0.6978
 6961TIP3    H142298   2.874   3.095  16.201  0.7433 -1.9906  0.2575
 6961TIP3    H242299   2.957   3.123  16.325  0.2514 -2.1007  0.6169
 6962TIP3   OH242300   2.016   5.424   1.801 -0.1183 -0.0057 -0.0948
 6962TIP3    H142301   2.087   5.470   1.846 -0.4129  0.8163 -0.4518
 6962TIP3    H242302   1.956   5.396   1.870  1.1266 -1.7835  0.3449
 6963TIP3   OH242303   0.559   2.712  16.208 -0.0114 -0.1710 -0.5866
 6963TIP3    H142304   0.601   2.734  16.291  1.1839 -1.5432 -0.7795
 6963TIP3    H242305   0.535   2.796  16.170 -0.3776  0.4963  1.0217
 6964TIP3   OH242306   4.380   4.049   2.156  0.5611 -0.4140  0.4892
 6964TIP3    H142307   4.326   3.970   2.160 -0.9766  0.4825 -1.2422
 6964TIP3    H242308   4.378   4.083   2.246  1.0172 -2.1416  1.2003
 6965TIP3   OH242309   0.465   0.259  13.206  0.4093 -0.6173  0.7053
 6965TIP3    H142310   0.490   0.168  13.192  0.0548 -0.6791  0.4723
 6965TIP3    H242311   0.545   0.301  13.237  1.1198 -0.5832 -1.0798
 6966TIP3   OH242312   3.000   5.972  16.445  0.7396 -0.5653  0.1203
 6966TIP3    H142313   3.064   5.925  16.391  0.4918  0.3346 -0.9917
 6966TIP3    H242314   2.920   5.973  16.392  1.4630  3.4387 -1.2334
 6967TIP3   OH242315   1.452   2.281   4.118  0.3091 -0.3414 -0.1171
 6967TIP3    H142316   1.415   2.250   4.201 -1.5316  0.8243 -0.4458
 6967TIP3    H242317   1.536   2.319   4.142 -0.3413  0.2846  1.2788
 6968TIP3   OH242318   6.646   4.712  16.515  0.1328 -0.6652 -0.0297
 6968TIP3    H142319   6.613   4.622  16.521 -0.9290 -0.3825 -1.2881
 6968TIP3    H242320   6.620   4.742  16.428 -3.0328  2.1901  1.6302
 6969TIP3   OH242321   3.490   3.211   4.782  0.5018 -0.4080  0.4188
 6969TIP3    H142322   3.432   3.135   4.790 -0.3357  0.0735 -0.8666
 6969TIP3    H242323   3.474   3.262   4.862 -2.8576  1.0278 -0.9632
 6970TIP3   OH242324   1.441   1.979   1.741 -0.7385  0.5594 -0.6111
 6970TIP3    H142325   1.478   1.967   1.654  0.8181  0.2759  0.0558
 6970TIP3    H242326   1.458   1.896   1.786 -1.0650  0.8757  0.1191
 6971TIP3   OH242327   5.632   6.227   0.212  0.2973 -0.4436 -0.5821
 6971TIP3    H142328   5.560   6.285   0.189  0.4748 -0.1568 -0.4165
 6971TIP3    H242329   5.711   6.278   0.195  0.4564 -0.6604 -0.5044
 6972TIP3   OH242330   6.575   4.152   2.092  0.2543  0.2813 -0.0945
 6972TIP3    H142331   6.592   4.207   2.168 -2.9886  0.4547  0.6594
 6972TIP3    H242332   6.555   4.066   2.130 -1.0913  0.2907 -0.7560
 6973TIP3   OH242333   4.451   0.221  14.957  0.1610  0.2902  0.5670
 6973TIP3    H142334   4.426   0.163  15.028  0.1390  0.0083  0.3288
 6973TIP3    H242335   4.535   0.258  14.985 -0.0575  0.5150  0.9354
 6974TIP3   OH242336   2.005   0.466  12.514  0.2124  0.1316  0.3699
 6974TIP3    H142337   1.935   0.528  12.535  0.4948  0.9322 -0.9841
 6974TIP3    H242338   2.062   0.467  12.591  0.6617  2.1966  0.0499
 6975TIP3   OH242339   5.426   5.469  15.862 -0.4474 -0.2340 -0.1619
 6975TIP3    H142340   5.445   5.375  15.865  0.9083  0.0316  0.5252
 6975TIP3    H242341   5.391   5.488  15.949 -2.0303 -0.3263 -0.7433
 6976TIP3   OH242342   5.208   5.648   0.585 -0.1229 -0.6072 -0.2634
 6976TIP3    H142343   5.297   5.633   0.553 -0.0916 -0.6168 -0.1722
 6976TIP3    H242344   5.181   5.730   0.542  1.0121  1.0332  1.9407
 6977TIP3   OH242345   5.500   2.308  11.833  0.4311 -0.2611  0.1486
 6977TIP3    H142346   5.569   2.242  11.827 -0.4212 -1.3633  1.6661
 6977TIP3    H242347   5.544   2.385  11.870  2.1117  1.2300 -4.3060
 6978TIP3   OH242348   2.927   0.144  16.777  0.5565 -0.7530  0.2202
 6978TIP3    H142349   2.870   0.067  16.777 -0.7426  0.1456  2.0623
 6978TIP3    H242350   2.942   0.163  16.870  0.4811  1.4508 -0.1632
 6979TIP3   OH242351   5.902   0.050   3.758 -0.2768 -0.4611  0.2129
 6979TIP3    H142352   5.972   0.009   3.708  0.2639 -0.3855  0.9008
 6979TIP3    H242353   5.876  -0.017   3.822 -1.5195 -0.8616 -0.6653
 6980TIP3   OH242354   4.931   6.387   3.991  0.4491 -0.0401  0.0659
 6980TIP3    H142355   4.895   6.445   4.058 -2.0830  2.4375 -3.0745
 6980TIP3    H242356   5.013   6.429   3.965  0.2554  0.3298  0.0454
 6981TIP3   OH242357   1.646   0.171   5.580  0.4726  0.1641  0.1444
 6981TIP3    H142358   1.713   0.208   5.638  0.1937  2.3118 -0.8404
 6981TIP3    H242359   1.564   0.182   5.628  0.4399  0.4734  0.0199
 6982TIP3   OH242360   4.705   4.772   5.520 -0.2980  0.1843  0.2635
 6982TIP3    H142361   4.682   4.793   5.429 -4.0929  0.2811  1.0802
 6982TIP3    H242362   4.708   4.676   5.522  1.5252  0.1922 -0.2411
 6983TIP3   OH242363   4.070   5.555   2.436 -0.7022  0.1442 -0.0355
 6983TIP3    H142364   4.127   5.482   2.415  0.0501  0.5735  0.4703
 6983TIP3    H242365   4.114   5.632   2.400 -1.3192  0.3968 -0.2738
 6984TIP3   OH242366   2.594   5.075  15.419 -0.4737  0.3135 -0.2778
 6984TIP3    H142367   2.529   5.005  15.419 -1.5718  1.2751  1.5243
 6984TIP3    H242368   2.543   5.156  15.410  0.3480  1.1340  1.7856
 6985TIP3   OH242369   4.874   6.772  13.166 -0.3626 -0.4543 -0.2308
 6985TIP3    H142370   4.795   6.791  13.217  0.4990  1.7670  0.3914
 6985TIP3    H242371   4.872   6.837  13.095  1.7118  0.7467  0.7474
 6986TIP3   OH242372   3.178   6.348   0.657  0.0297 -0.4358  0.2346
 6986TIP3    H142373   3.222   6.268   0.688  0.1423 -0.0363  1.1451
 6986TIP3    H242374   3.238   6.419   0.680 -0.2935 -0.0472 -0.1212
 6987TIP3   OH242375   1.902   3.066  13.222  0.6235  0.2600  0.0752
 6987TIP3    H142376   1.862   3.143  13.263 -0.5973  0.6791 -1.7739
 6987TIP3    H242377   1.874   2.992  13.275  1.1481  1.0065  1.4187
 6988TIP3   OH242378   3.511   1.238   0.443 -0.5018  0.2677 -0.0281
 6988TIP3    H142379   3.520   1.161   0.387 -0.5186 -0.7748  1.3415
 6988TIP3    H242380   3.468   1.303   0.388 -0.6289 -0.7546 -1.1752
 6989TIP3   OH242381   0.881   4.898   1.792  0.0572  0.4990  0.0404
 6989TIP3    H142382   0.869   4.835   1.863 -2.8508 -0.3137 -1.0439
 6989TIP3    H242383   0.815   4.965   1.808 -0.2816  0.5862 -1.6065
 6990TIP3   OH242384   5.430   4.320  15.680 -0.7082  0.3745  0.6676
 6990TIP3    H142385   5.357   4.345  15.736 -2.7457 -0.6827 -1.3630
 6990TIP3    H242386   5.390   4.292  15.598  2.0527  0.7759 -0.9696
 6991TIP3   OH242387   5.601   5.961   0.286  0.2905 -0.0452  0.0580
 6991TIP3    H142388   5.604   5.903   0.210 -1.9205 -0.1985  0.0159
 6991TIP3    H242389   5.609   6.049   0.250  3.7070 -0.2216  0.1255
 6992TIP3   OH242390   6.596   6.702  16.839 -0.5234  0.2925  0.1826
 6992TIP3    H142391   6.671   6.719  16.782 -0.3512  1.2841  0.6832
 6992TIP3    H242392   6.634   6.682  16.924 -0.8172  0.5106  0.3689
 6993TIP3   OH242393   5.207   4.498   3.455  0.7224 -0.8692  0.6334
 6993TIP3    H142394   5.270   4.558   3.413 -0.2507  0.0825  0.5055
 6993TIP3    H242395   5.199   4.425   3.393  0.6731 -0.3431  0.0138
 6994TIP3   OH242396   3.487   1.832   3.602 -1.0911 -1.0823  0.2782
 6994TIP3    H142397   3.473   1.829   3.697 -1.2202 -0.0202  0.3067
 6994TIP3    H242398   3.546   1.906   3.589 -2.3018 -0.2319 -0.5954
 6995TIP3   OH242399   1.922   5.997  15.519 -0.1483 -0.3480  0.2999
 6995TIP3    H142400   1.931   6.009  15.424  0.8927 -1.4437  0.2329
 6995TIP3    H242401   1.845   5.941  15.528 -1.2947  1.1558  0.2410
 6996TIP3   OH242402   3.046   0.423  13.176 -0.0242  0.1003  0.3090
 6996TIP3    H142403   3.140   0.418  13.158  0.0331  0.2795  0.5555
 6996TIP3    H242404   3.034   0.505  13.223  0.0351 -0.9609  2.2675
 6997TIP3   OH242405   0.508   6.239  14.377  0.4882  0.6173 -0.6170
 6997TIP3    H142406   0.566   6.165  14.394  0.6002  0.5075 -1.4257
 6997TIP3    H242407   0.479   6.268  14.463 -0.4806 -1.1069 -0.3135
 6998TIP3   OH242408   6.349   2.020   5.424 -0.4206 -0.5900 -0.0574
 6998TIP3    H142409   6.382   2.018   5.514  0.8686  2.2436 -0.3695
 6998TIP3    H242410   6.293   1.943   5.418 -0.1108 -1.1886  2.9952
 6999TIP3   OH242411   0.172   2.778  12.511  0.1370  0.3168  0.0129
 6999TIP3    H142412   0.158   2.740  12.424  0.2932 -0.2941  0.2459
 6999TIP3    H242413   0.084   2.801  12.541 -0.0615 -0.5911  0.1788
 7000TIP3   OH242414   6.720   1.551  13.382  0.3004  0.0743  0.3935
 7000TIP3    H142415   6.749   1.523  13.295 -1.7429 -0.2672 -0.2148
 7000TIP3    H242416   6.772   1.497  13.442  0.0181 -1.4473 -0.6698
 7001TIP3   OH242417   0.699   5.369  15.148  0.0750 -0.3244  0.3505
 7001TIP3    H142418   0.727   5.348  15.237 -1.3208 -0.9081  0.6739
 7001TIP3    H242419   0.735   5.299  15.094  0.5632 -0.2041  0.5168
 7002TIP3   OH242420   6.185   4.150  16.602 -0.5533  0.3243  0.1720
 7002TIP3    H142421   6.264   4.117  16.559 -1.2825  0.2647 -1.1823
 7002TIP3    H242422   6.140   4.071  16.632 -0.4117  0.3292  0.4085
 7003TIP3   OH242423   1.044   0.275  12.187  0.2222  0.0863 -0.7408
 7003TIP3    H142424   1.010   0.226  12.262  0.8921 -0.6661 -0.9083
 7003TIP3    H242425   1.109   0.216  12.148  0.6467  0.8966 -1.2808
 7004TIP3   OH242426   6.278   3.385   5.687  0.1607 -0.8995 -0.0297
 7004TIP3    H142427   6.313   3.467   5.722  1.2069 -0.5224 -1.8437
 7004TIP3    H242428   6.345   3.355   5.625 -2.5840 -0.2567 -3.5926
 7005TIP3   OH242429   3.834   6.289  15.367  0.2226  0.4336  0.3798
 7005TIP3    H142430   3.901   6.300  15.299 -0.5649 -0.5282 -0.5917
 7005TIP3    H242431   3.874   6.230  15.431 -0.1620 -1.3295 -0.9280
 7006TIP3   OH242432   4.140   6.004   0.033  0.0452 -0.2398 -0.6290
 7006TIP3    H142433   4.217   6.059   0.048 -0.1332 -0.0931 -0.2398
 7006TIP3    H242434   4.066   6.064   0.040 -0.1455 -0.5121 -0.2773
 7007TIP3   OH242435   6.251   3.881   1.619 -0.0547  0.4941 -0.2988
 7007TIP3    H142436   6.252   3.911   1.710 -0.5392  0.9400 -0.4397
 7007TIP3    H242437   6.159   3.866   1.600  0.1716 -1.1931 -0.2035
 7008TIP3   OH242438   2.108   6.162   2.477  0.0567  0.6826 -0.0473
 7008TIP3    H142439   2.055   6.112   2.538  0.2119 -1.3898 -1.5015
 7008TIP3    H242440   2.047   6.226   2.439 -1.1373 -0.8002 -0.7454
 7009TIP3   OH242441   6.053   1.090   1.740  0.2125  0.0578  0.5485
 7009TIP3    H142442   5.971   1.132   1.713 -1.1013 -2.3154  0.5937
 7009TIP3    H242443   6.119   1.159   1.731 -1.9406  2.4781  1.7565
 7010TIP3   OH242444   5.670   2.148   0.408 -0.1750 -0.6888  0.2848
 7010TIP3    H142445   5.762   2.121   0.413  0.0489  0.0445  0.2755
 7010TIP3    H242446   5.674   2.242   0.392 -0.9322 -0.6630  0.2248
 7011TIP3   OH242447   4.204   4.814   2.372 -0.2253  0.2903  0.6783
 7011TIP3    H142448   4.239   4.740   2.422  0.1673  0.6147  0.8984
 7011TIP3    H242449   4.189   4.882   2.438 -0.5681  0.4109  0.4764
 7012TIP3   OH242450   4.914   6.564  12.376 -0.1750  0.0642 -0.0377
 7012TIP3    H142451   4.878   6.624  12.442  1.0576  1.6901 -0.7695
 7012TIP3    H242452   5.009   6.575  12.383  0.0848 -1.6399 -0.3899
 7013TIP3   OH242453   0.489   2.474   2.376  0.4007 -0.1230  0.1635
 7013TIP3    H142454   0.396   2.451   2.373  0.1338  0.9911 -0.3583
 7013TIP3    H242455   0.513   2.463   2.468 -0.3950  0.1506  0.4141
 7014TIP3   OH242456   3.586   4.208   0.460  0.2661 -0.5725 -0.1538
 7014TIP3    H142457   3.652   4.151   0.421  2.0183  0.3811  1.3006
 7014TIP3    H242458   3.507   4.153   0.463  1.2349 -2.0958 -0.9781
 7015TIP3   OH242459   0.209   3.004  11.011 -0.6992 -0.1227 -0.4481
 7015TIP3    H142460   0.244   2.958  10.935  0.5289  1.5834 -0.9916
 7015TIP3    H242461   0.252   2.963  11.086  0.6455  0.3161 -0.9423
 7016TIP3   OH242462   0.195   2.829  15.074 -0.1037  0.4035 -0.6688
 7016TIP3    H142463   0.117   2.804  15.023  0.2154 -1.4707 -0.3122
 7016TIP3    H242464   0.163   2.837  15.163  0.1983 -1.1438 -0.3840
 7017TIP3   OH242465   4.306   2.634   5.771  0.1095 -0.3901 -0.0065
 7017TIP3    H142466   4.391   2.648   5.730 -0.0378  0.0596 -0.1638
 7017TIP3    H242467   4.299   2.704   5.836  0.9319 -1.8965  1.7762
 7018TIP3   OH242468   0.496   4.857  12.770 -0.1905  0.0888  0.2255
 7018TIP3    H142469   0.579   4.822  12.739  0.2542  1.3938 -0.1098
 7018TIP3    H242470   0.493   4.947  12.737 -0.5032  0.9657  2.4668
 7019TIP3   OH242471   5.392   3.900  15.019 -0.5168 -0.3933  0.2677
 7019TIP3    H142472   5.409   3.940  14.934  0.2380 -2.1055 -0.4312
 7019TIP3    H242473   5.299   3.916  15.035 -0.3697  1.1043 -0.2293
 7020TIP3   OH242474   6.040   2.905  13.332  0.3467 -0.3264  0.7451
 7020TIP3    H142475   6.037   2.900  13.236 -0.8122 -1.6576  0.8158
 7020TIP3    H242476   6.133   2.902  13.354  0.6022 -0.4762 -0.3237
 7021TIP3   OH242477   4.158   5.169   4.408 -0.1170  1.0290 -0.5190
 7021TIP3    H142478   4.178   5.076   4.395 -1.6291  0.5366  0.3732
 7021TIP3    H242479   4.188   5.211   4.328  0.1906 -0.2953 -1.1401
 7022TIP3   OH242480   6.511   1.044   0.243 -0.2000  0.0029 -0.3156
 7022TIP3    H142481   6.419   1.070   0.245 -0.0367  0.6347  1.7421
 7022TIP3    H242482   6.545   1.081   0.162 -1.1274  2.1598  0.2248
 7023TIP3   OH242483   2.413   0.474  12.653 -0.4018  0.0923 -0.5590
 7023TIP3    H142484   2.412   0.381  12.675  0.8390  0.1916 -0.0217
 7023TIP3    H242485   2.491   0.508  12.696  0.0716  1.0539 -2.0988
 7024TIP3   OH242486   5.449   4.301  16.331 -0.2634  0.1661 -0.4085
 7024TIP3    H142487   5.528   4.342  16.367 -0.2137 -0.5569  0.3409
 7024TIP3    H242488   5.378   4.339  16.382 -0.4161  0.9085 -1.1668
 7025TIP3   OH242489   4.441   5.766  12.731 -0.3404 -0.1655  0.3973
 7025TIP3    H142490   4.424   5.840  12.673  2.3055  0.7615  0.7067
 7025TIP3    H242491   4.474   5.805  12.812 -0.2400 -1.6275  1.1041
 7026TIP3   OH242492   4.622   5.155   0.301 -0.4206 -0.0403 -0.5382
 7026TIP3    H142493   4.717   5.156   0.302 -0.4033 -0.3437 -1.3370
 7026TIP3    H242494   4.597   5.152   0.394  0.3707 -2.1419 -0.3521
 7027TIP3   OH242495   5.380   0.211   4.102  0.1364 -0.2373  0.2754
 7027TIP3    H142496   5.404   0.192   4.011 -0.3159 -0.8945  0.2894
 7027TIP3    H242497   5.292   0.248   4.097  1.1693  2.4635  0.1976
 7028TIP3   OH242498   1.408   0.482  10.711  0.1742  0.3798 -0.0202
 7028TIP3    H142499   1.394   0.395  10.674 -0.1563  1.6881 -3.3639
 7028TIP3    H242500   1.330   0.499  10.764 -1.0741 -0.3749 -1.5291
 7029TIP3   OH242501   3.318   2.026  11.103  0.0166 -0.3313 -0.6323
 7029TIP3    H142502   3.392   1.976  11.069 -0.5768 -1.1205 -0.7813
 7029TIP3    H242503   3.300   2.091  11.035  0.3783 -0.3335 -0.7309
 7030TIP3   OH242504   1.409   1.283   1.614 -0.1655 -0.0446  0.0669
 7030TIP3    H142505   1.453   1.346   1.556  0.3492 -0.2899  0.1831
 7030TIP3    H242506   1.357   1.229   1.555  0.8694 -0.7205 -0.2581
 7031TIP3   OH242507   0.191   1.362   2.709 -0.1770  0.5134  0.0782
 7031TIP3    H142508   0.174   1.267   2.713  1.0837  0.3041  2.2899
 7031TIP3    H242509   0.138   1.393   2.636  0.0575 -2.0397 -1.2841
 7032TIP3   OH242510   3.010   0.083  15.026 -0.2318 -0.1209 -0.0262
 7032TIP3    H142511   2.937   0.046  14.976  0.7891  0.0609 -1.7012
 7032TIP3    H242512   3.023   0.170  14.989  0.6255 -0.0235  0.4923
 7033TIP3   OH242513   3.486   2.343   5.757  0.3658 -0.1748  0.0208
 7033TIP3    H142514   3.392   2.358   5.753  0.4522  0.7000  0.8131
 7033TIP3    H242515   3.518   2.412   5.816  1.1823 -1.9359  1.7310
 7034TIP3   OH242516   4.057   1.673  14.702  0.3252  0.1200  0.9992
 7034TIP3    H142517   3.991   1.694  14.637  0.7497 -0.8189  0.2400
 7034TIP3    H242518   4.141   1.695  14.662  0.6756 -1.5024  0.7410
 7035TIP3   OH242519   4.084   1.623  11.826 -0.2380  0.6303 -0.6140
 7035TIP3    H142520   4.077   1.694  11.889 -1.4430  1.4387 -1.6054
 7035TIP3    H242521   4.025   1.648  11.755 -0.2361 -1.0810 -1.2705
 7036TIP3   OH242522   2.713   1.390   3.880 -0.5988  0.2290  0.7962
 7036TIP3    H142523   2.654   1.465   3.888 -0.2025  0.5038  1.2121
 7036TIP3    H242524   2.801   1.428   3.887 -0.3602 -0.1561  0.0740
 7037TIP3   OH242525   4.955   0.595  11.264  0.0625 -0.1378  0.4933
 7037TIP3    H142526   5.044   0.580  11.298  0.1547  1.6139  1.1176
 7037TIP3    H242527   4.966   0.663  11.197 -0.8596  0.4094  0.8845
 7038TIP3   OH242528   4.111   2.557   4.226  0.2124  0.0720 -0.0499
 7038TIP3    H142529   4.127   2.582   4.134 -0.2524  3.4021  0.6259
 7038TIP3    H242530   4.193   2.578   4.270 -0.1306  0.1510  0.5533
 7039TIP3   OH242531   3.706   4.450   3.228  0.7419  1.1068  0.0059
 7039TIP3    H142532   3.678   4.377   3.173  0.1571  1.1863  0.1825
 7039TIP3    H242533   3.793   4.426   3.258  1.0508  1.0397 -0.9131
 7040TIP3   OH242534   4.028   5.971  12.613 -0.3641 -0.1580  0.4872
 7040TIP3    H142535   4.014   5.891  12.663  0.8374 -0.8025 -0.1428
 7040TIP3    H242536   4.055   5.941  12.526  3.0826  0.8267  1.0629
 7041TIP3   OH242537   5.217   1.155   1.273 -0.4079 -0.4259 -0.0140
 7041TIP3    H142538   5.196   1.210   1.348 -1.6045 -0.1490 -0.5279
 7041TIP3    H242539   5.281   1.206   1.223 -0.4038 -0.1510  0.2721
 7042TIP3   OH242540   2.964   3.266  16.527 -0.4240  0.3472 -0.5048
 7042TIP3    H142541   2.978   3.308  16.612  0.4646  0.1849 -0.5659
 7042TIP3    H242542   3.046   3.221  16.509 -0.7794 -0.0146 -1.2321
 7043TIP3   OH242543   3.558   1.320  16.748 -0.4829  0.0182 -0.2728
 7043TIP3    H142544   3.470   1.291  16.771 -0.4883 -0.0199 -0.3384
 7043TIP3    H242545   3.551   1.415  16.738 -0.5116  0.0178 -0.2536
 7044TIP3   OH242546   4.830   6.483  15.265  0.0996  0.1222 -0.3280
 7044TIP3    H142547   4.902   6.443  15.217  0.6078  0.8909 -0.2370
 7044TIP3    H242548   4.757   6.422  15.256  0.7290 -0.6141 -0.5197
 7045TIP3   OH242549   2.327   5.953   2.822 -0.0524  0.2324 -0.1650
 7045TIP3    H142550   2.387   5.941   2.896  1.2419 -1.3443 -1.4084
 7045TIP3    H242551   2.306   6.046   2.824 -0.0473  0.2626  2.1490
 7046TIP3   OH242552   6.397   3.019   2.583  0.4234 -0.8073  0.2950
 7046TIP3    H142553   6.484   3.007   2.622  0.8501  1.2674  0.0882
 7046TIP3    H242554   6.337   3.018   2.658  1.1694  2.4619  1.0844
 7047TIP3   OH242555   3.469   5.763   1.943 -0.0946  0.2184 -0.5277
 7047TIP3    H142556   3.448   5.842   1.893 -2.5744  0.2054  0.3638
 7047TIP3    H242557   3.437   5.781   2.031  0.8907 -1.1490  0.1501
 7048TIP3   OH242558   2.179   5.864   4.833 -0.1473  0.4113 -0.8805
 7048TIP3    H142559   2.261   5.858   4.882 -0.8534 -0.4937  0.2395
 7048TIP3    H242560   2.162   5.774   4.804 -1.5321  0.2651  0.2708
 7049TIP3   OH242561   4.329   6.505  10.320  0.7650 -0.4274 -0.3016
 7049TIP3    H142562   4.417   6.474  10.340  0.0733 -0.9822  2.2807
 7049TIP3    H242563   4.306   6.561  10.394 -0.9117  0.0108 -1.1018
 7050TIP3   OH242564   4.735   5.571   3.447  0.1063  0.3315 -0.1894
 7050TIP3    H142565   4.663   5.619   3.407  0.2808  0.4811 -0.3290
 7050TIP3    H242566   4.760   5.625   3.522 -0.0819  0.1597 -0.0046
 7051TIP3   OH242567   0.787   3.617  12.271  0.3296 -0.7080  0.5458
 7051TIP3    H142568   0.866   3.611  12.324  0.1638 -0.5395  0.8140
 7051TIP3    H242569   0.726   3.555  12.310  0.0761 -0.3155  0.7879
 7052TIP3   OH242570   5.465   3.814   2.924  0.0802  0.1635  0.1537
 7052TIP3    H142571   5.435   3.784   2.838  1.4100  0.6640 -0.5199
 7052TIP3    H242572   5.440   3.744   2.984 -3.5044  1.0654 -0.0586
 7053TIP3   OH242573   2.358   6.119   5.748  0.2542  0.1015 -0.0357
 7053TIP3    H142574   2.373   6.164   5.665 -2.2894  1.6723  0.2650
 7053TIP3    H242575   2.268   6.087   5.742 -0.0623  0.4616  2.2146
 7054TIP3   OH242576   2.411   4.973  13.238  0.3970  0.0223 -0.1681
 7054TIP3    H142577   2.503   4.949  13.235  0.7069  1.1172  0.2319
 7054TIP3    H242578   2.374   4.938  13.157  1.4400  0.6332 -0.9220
 7055TIP3   OH242579   4.552   3.429  14.985 -0.5590 -0.3538  0.4466
 7055TIP3    H142580   4.472   3.468  14.952  0.1712  0.2532 -0.6589
 7055TIP3    H242581   4.573   3.480  15.064  2.3710  4.2859 -2.8534
 7056TIP3   OH242582   1.341   2.199   6.708  0.4115  0.2537 -0.8824
 7056TIP3    H142583   1.361   2.106   6.722 -0.6697 -0.0866 -1.4971
 7056TIP3    H242584   1.361   2.214   6.616 -1.4259  0.0624 -1.3545
 7057TIP3   OH242585   5.104   2.707  13.920  0.0505  0.2974  0.1392
 7057TIP3    H142586   5.043   2.714  13.994  2.0073  0.9971  1.7801
 7057TIP3    H242587   5.124   2.798  13.898  1.7548  0.1322  0.7958
 7058TIP3   OH242588   5.933   3.421   4.718 -0.1669  0.8162 -0.2543
 7058TIP3    H142589   5.991   3.387   4.786 -1.0174 -0.2018 -0.0153
 7058TIP3    H242590   5.890   3.496   4.759  1.2555  1.8591 -0.5747
 7059TIP3   OH242591   6.504   3.518  16.188  0.2856  0.1986 -0.3674
 7059TIP3    H142592   6.429   3.577  16.195  0.8614  0.9017  0.1641
 7059TIP3    H242593   6.578   3.576  16.169  1.0494 -0.2056  1.1547
 7060TIP3   OH242594   0.036   4.360  11.035  0.7458 -0.6156 -0.1697
 7060TIP3    H142595   0.114   4.307  11.055  0.6953 -0.1288  1.4853
 7060TIP3    H242596  -0.027   4.335  11.102  0.1522  0.3757 -0.3499
 7061TIP3   OH242597   1.318   1.888   3.769  0.1953 -0.0487  0.1539
 7061TIP3    H142598   1.369   1.896   3.849 -0.1324 -0.7637  0.4405
 7061TIP3    H242599   1.339   1.967   3.719 -0.7619  1.1803  1.6016
 7062TIP3   OH242600   4.755   3.419   0.235  0.5233 -0.5483 -0.0824
 7062TIP3    H142601   4.739   3.502   0.189  2.4219  0.6492  1.2436
 7062TIP3    H242602   4.821   3.441   0.301  0.4606 -2.9600  0.8861
 7063TIP3   OH242603   5.177   3.189   6.493 -0.9024 -0.4385 -0.5718
 7063TIP3    H142604   5.168   3.094   6.505  1.2313 -0.7744 -1.1667
 7063TIP3    H242605   5.247   3.198   6.427 -0.5399  1.5597  0.0249
 7064TIP3   OH242606   0.042   5.675   3.477  0.0704  0.3086  0.1388
 7064TIP3    H142607  -0.012   5.626   3.415 -0.5472 -0.6222  1.3669
 7064TIP3    H242608   0.128   5.682   3.434 -0.6721  0.8163 -1.3471
 7065TIP3   OH242609   4.507   5.901  10.573  0.1296  0.2382  0.0051
 7065TIP3    H142610   4.537   5.986  10.539 -0.5880  0.6239  0.3032
 7065TIP3    H242611   4.412   5.908  10.574  0.0983  0.1396  1.7989
 7066TIP3   OH242612   2.211   6.160   0.471 -0.5455 -0.3853  0.0293
 7066TIP3    H142613   2.288   6.192   0.518 -1.1634  1.5381 -0.1516
 7066TIP3    H242614   2.150   6.134   0.540  0.3259 -2.1945  0.1707
 7067TIP3   OH242615   3.970   1.112   2.676  0.4868  0.1102  0.2399
 7067TIP3    H142616   4.005   1.059   2.747  0.5830 -0.1320  0.0117
 7067TIP3    H242617   3.877   1.090   2.673  0.2908  0.8036  0.8896
 7068TIP3   OH242618   2.154   6.515  10.463 -0.0699 -0.2861 -0.1389
 7068TIP3    H142619   2.124   6.596  10.505  2.9171  0.9385 -0.0917
 7068TIP3    H242620   2.182   6.460  10.536 -0.6545 -0.7304 -0.2485
 7069TIP3   OH242621   0.036   3.134  11.853 -1.4347 -0.3872  0.5137
 7069TIP3    H142622  -0.041   3.078  11.846 -1.6634  0.1322 -3.1591
 7069TIP3    H242623   0.004   3.222  11.836 -0.1146 -0.1723 -1.2033
 7070TIP3   OH242624   1.318   6.547   6.229  0.1322 -0.1645  0.3121
 7070TIP3    H142625   1.278   6.496   6.159 -0.4220  0.0282  0.4884
 7070TIP3    H242626   1.245   6.592   6.272  0.2714 -1.3841  1.9254
 7071TIP3   OH242627   0.147   5.026   1.857 -0.0239 -0.5732 -0.0431
 7071TIP3    H142628   0.152   5.096   1.793  0.9865 -1.3242 -0.8098
 7071TIP3    H242629   0.090   4.961   1.817 -0.1872 -0.6121  0.2505
 7072TIP3   OH242630   1.123   4.694   1.406  0.0048  0.2357 -0.2878
 7072TIP3    H142631   1.091   4.707   1.495 -0.9831  1.3281 -0.7847
 7072TIP3    H242632   1.080   4.762   1.355  3.0080  1.7526 -1.0197
 7073TIP3   OH242633   1.377   5.562  15.916  0.3781  0.2817  0.0790
 7073TIP3    H142634   1.371   5.503  15.991 -0.8843  1.3388  0.8431
 7073TIP3    H242635   1.370   5.505  15.839 -1.1745 -0.5347  0.8021
 7074TIP3   OH242636   6.056   1.903   5.081 -0.0331 -0.2074 -0.0482
 7074TIP3    H142637   6.081   1.907   4.988 -0.5132 -1.2704 -0.2414
 7074TIP3    H242638   6.130   1.862   5.124 -0.6034 -1.5770 -0.3097
 7075TIP3   OH242639   1.328   6.397  15.345  0.4217  0.1496  0.2642
 7075TIP3    H142640   1.371   6.452  15.411  0.5575  0.2150  0.1213
 7075TIP3    H242641   1.384   6.320  15.338  1.6255  1.0971 -1.3522
 7076TIP3   OH242642   2.298   3.043  13.781 -0.2019  0.0004 -0.0795
 7076TIP3    H142643   2.301   2.969  13.842  1.9831 -0.5826 -0.8333
 7076TIP3    H242644   2.290   3.120  13.838  1.0203 -0.5735  0.9110
 7077TIP3   OH242645   3.174   3.561   0.200  0.8890  0.4136 -0.4666
 7077TIP3    H142646   3.225   3.610   0.135  0.2575  1.0499 -0.4980
 7077TIP3    H242647   3.119   3.628   0.242  1.4966  0.0699  0.9257
 7078TIP3   OH242648   3.941   2.743   0.221 -0.7664  0.1683 -0.0248
 7078TIP3    H142649   3.883   2.678   0.180 -0.3087  0.1292 -0.6374
 7078TIP3    H242650   4.012   2.691   0.259  0.0978  0.3235 -1.3208
 7079TIP3   OH242651   1.151   5.993  13.001  0.1559  0.0122 -0.0730
 7079TIP3    H142652   1.230   6.007  12.949 -0.5716 -0.0007 -1.2119
 7079TIP3    H242653   1.163   6.049  13.078  1.0315  0.4214 -0.4968
 7080TIP3   OH242654   5.395   4.938  13.849  0.2454  0.0661  0.2017
 7080TIP3    H142655   5.381   4.973  13.937 -0.2178 -0.5078  0.3653
 7080TIP3    H242656   5.309   4.942  13.808 -0.1304 -1.9631  0.6435
 7081TIP3   OH242657   0.614   2.122  14.108  0.9168 -0.0380 -0.4038
 7081TIP3    H142658   0.584   2.208  14.080 -0.0621  0.2167  1.2529
 7081TIP3    H242659   0.534   2.069  14.111  1.2142 -0.4501  0.4111
 7082TIP3   OH242660   2.201   5.532   6.009 -0.2131  0.4869 -0.0213
 7082TIP3    H142661   2.186   5.438   5.999 -0.6176  0.7816 -3.0353
 7082TIP3    H242662   2.276   5.537   6.069 -1.9651 -1.5736  2.5929
 7083TIP3   OH242663   4.000   2.519   4.807  0.0303  0.0714  0.0312
 7083TIP3    H142664   4.048   2.569   4.741 -0.0667 -0.8467 -0.7655
 7083TIP3    H242665   3.946   2.584   4.853 -1.0585  0.5458 -1.8178
 7084TIP3   OH242666   6.670   3.034  16.374  0.0330  0.3317 -0.0791
 7084TIP3    H142667   6.620   3.074  16.303 -0.1840  0.4097  0.1169
 7084TIP3    H242668   6.760   3.060  16.357  0.5092 -2.2699 -2.1688
 7085TIP3   OH242669   6.793   6.221  10.512  0.6291 -0.2777  0.1876
 7085TIP3    H142670   6.773   6.277  10.436  1.6739  1.8245  1.3558
 7085TIP3    H242671   6.710   6.216  10.560 -0.0661 -1.7119 -1.1011
 7086TIP3   OH242672   6.809   5.742  16.530 -0.1155 -0.2522 -0.3584
 7086TIP3    H142673   6.839   5.748  16.620  0.1408  1.0881 -0.5118
 7086TIP3    H242674   6.878   5.692  16.485  0.1210 -0.2765  0.0261
 7087TIP3   OH242675   1.864   4.229   1.245 -0.1388 -0.1943  1.0108
 7087TIP3    H142676   1.943   4.184   1.216 -0.2824 -0.8673  1.6450
 7087TIP3    H242677   1.861   4.214   1.339 -0.9547 -0.0559  1.0144
 7088TIP3   OH242678   3.014   1.321   6.559  0.3409 -0.2054  0.0472
 7088TIP3    H142679   2.941   1.263   6.583  1.0798 -0.8513  0.8059
 7088TIP3    H242680   3.058   1.340   6.642  0.8349  0.4558 -0.3548
 7089TIP3   OH242681   5.138   3.520   6.256 -0.2482  0.4630 -0.5285
 7089TIP3    H142682   5.151   3.427   6.235  0.6409  0.6146 -0.7112
 7089TIP3    H242683   5.092   3.520   6.340 -0.1430 -0.1499 -0.4670
 7090TIP3   OH242684   0.556   5.772  10.563 -0.4132 -0.1631  0.5780
 7090TIP3    H142685   0.500   5.705  10.602  0.8133 -1.6181 -0.0967
 7090TIP3    H242686   0.500   5.850  10.559 -3.8515 -2.4348 -3.5836
 7091TIP3   OH242687   2.125   1.080  12.878 -0.4750 -0.0937  0.4734
 7091TIP3    H142688   2.096   1.064  12.967 -1.9985  1.0170  0.2135
 7091TIP3    H242689   2.138   1.175  12.874 -1.2649 -0.0205 -0.7235
 7092TIP3   OH242690   6.402   4.327  14.949  0.2747  0.5231 -0.2817
 7092TIP3    H142691   6.448   4.359  14.871 -0.3846 -0.2525 -1.0221
 7092TIP3    H242692   6.403   4.231  14.939  0.6267  0.3936  0.9362
 7093TIP3   OH242693   5.849   2.829  12.763 -0.5149 -0.1918  0.0771
 7093TIP3    H142694   5.822   2.777  12.687 -1.1614  1.5073 -0.9145
 7093TIP3    H242695   5.941   2.805  12.777 -0.3425 -0.4506 -1.3258
 7094TIP3   OH242696   0.077   0.053   5.582  0.1065 -0.2272  0.0852
 7094TIP3    H142697   0.137  -0.013   5.615  0.3673 -1.4616 -2.5617
 7094TIP3    H242698   0.093   0.054   5.487 -2.3392  1.1415 -0.3941
 7095TIP3   OH242699   0.797   0.522   4.214 -0.4556  0.2323  0.0385
 7095TIP3    H142700   0.787   0.435   4.252 -0.8303  0.5691  0.7231
 7095TIP3    H242701   0.710   0.561   4.218 -0.5489  0.2202 -1.3359
 7096TIP3   OH242702   6.422   4.612   4.592 -0.2907 -0.4635 -0.2858
 7096TIP3    H142703   6.359   4.629   4.521  0.5626  0.2817 -0.8953
 7096TIP3    H242704   6.456   4.698   4.615  0.6582 -0.8641 -0.1189
 7097TIP3   OH242705   5.265   2.903  11.423 -0.4988 -0.2610 -0.2100
 7097TIP3    H142706   5.184   2.905  11.474  0.4217  0.1121  1.3187
 7097TIP3    H242707   5.308   2.822  11.451  1.0433  1.0246  1.3325
 7098TIP3   OH242708   4.634   0.891  14.612 -0.0608 -0.0943  0.4532
 7098TIP3    H142709   4.603   0.982  14.612  0.1042 -0.0304  1.3764
 7098TIP3    H242710   4.573   0.845  14.555 -1.0074  0.3193  1.1052
 7099TIP3   OH242711   1.897   0.377  12.112  0.0606  0.1618  0.4438
 7099TIP3    H142712   1.865   0.293  12.080 -3.5034  1.4307  0.2157
 7099TIP3    H242713   1.951   0.412  12.041  0.2327 -1.1976 -0.1173
 7100TIP3   OH242714   6.641   3.820   5.606 -0.5913 -0.1477  0.0694
 7100TIP3    H142715   6.572   3.885   5.601 -0.6748 -0.2484 -0.1222
 7100TIP3    H242716   6.629   3.778   5.691 -1.0883 -0.5163 -0.1759
 7101TIP3   OH242717   1.698   3.201  16.278  0.0249  0.0014  0.4046
 7101TIP3    H142718   1.695   3.119  16.228  1.6105  0.6271 -0.8264
 7101TIP3    H242719   1.706   3.269  16.211 -1.4951  1.2292  1.3844
 7102TIP3   OH242720   0.154   0.799  13.986  0.3933 -0.3540  0.2704
 7102TIP3    H142721   0.196   0.721  14.022  1.8544  0.0539 -0.4698
 7102TIP3    H242722   0.223   0.866  13.986 -0.7396  0.8475  0.5768
 7103TIP3   OH242723   1.958   6.343  14.104 -0.5123  0.6194  0.0317
 7103TIP3    H142724   2.017   6.384  14.168 -0.9010 -1.2374  1.6741
 7103TIP3    H242725   2.008   6.344  14.022  1.2010  0.4572  1.0189
 7104TIP3   OH242726   3.701   6.544   5.060  0.4638  0.2440 -0.4040
 7104TIP3    H142727   3.627   6.516   5.005  0.9395  0.8131 -1.3566
 7104TIP3    H242728   3.724   6.465   5.110 -1.3988  0.3059  0.6486
 7105TIP3   OH242729   3.595   5.232  15.890 -0.1907 -0.0937  0.2992
 7105TIP3    H142730   3.543   5.307  15.915 -0.6405  0.0955 -1.1257
 7105TIP3    H242731   3.547   5.156  15.924 -0.4874  0.1805  0.4917
 7106TIP3   OH242732   4.673   2.921  14.563 -0.2889 -0.1408 -0.4903
 7106TIP3    H142733   4.601   2.956  14.510  0.6485  0.3217 -1.5016
 7106TIP3    H242734   4.700   2.842  14.516 -0.3672 -0.5194  0.0932
 7107TIP3   OH242735   5.323   3.440   3.207  0.8228 -0.1358 -0.0208
 7107TIP3    H142736   5.391   3.414   3.145 -0.9307  2.0697 -3.1392
 7107TIP3    H242737   5.280   3.358   3.230  3.0829 -1.3153  0.3246
 7108TIP3   OH242738   6.441   2.885   1.608 -0.0687 -0.4329 -0.1711
 7108TIP3    H142739   6.388   2.831   1.665  0.8331 -1.8282 -0.5921
 7108TIP3    H242740   6.433   2.844   1.521 -0.0855  0.6499 -0.6998
 7109TIP3   OH242741   0.456   4.271   0.903  0.1007  0.0111  0.5210
 7109TIP3    H142742   0.469   4.177   0.898 -2.2996 -0.2995 -2.4714
 7109TIP3    H242743   0.362   4.283   0.915  0.5441  2.1225  3.0515
 7110TIP3   OH242744   6.327   5.859   1.340 -0.4899  0.0785  0.2651
 7110TIP3    H142745   6.308   5.790   1.404  0.0360 -1.0477 -0.7542
 7110TIP3    H242746   6.273   5.933   1.368 -1.2318 -0.8119  1.2756
 7111TIP3   OH242747   3.120   0.833  11.912  0.0196 -0.4567 -0.1145
 7111TIP3    H142748   3.031   0.856  11.885 -0.2125 -0.0613  0.9560
 7111TIP3    H242749   3.170   0.913  11.901  0.3080 -0.7315 -0.9112
 7112TIP3   OH242750   0.362   3.331  11.295  0.4224  0.5135  0.0886
 7112TIP3    H142751   0.387   3.302  11.383 -2.7645 -0.2650  0.8859
 7112TIP3    H242752   0.398   3.265  11.237 -0.7194 -1.2261  1.2537
 7113TIP3   OH242753   3.341   1.611   4.060 -0.5893  0.0954  0.1874
 7113TIP3    H142754   3.432   1.603   4.086 -0.6870  1.3274  0.9886
 7113TIP3    H242755   3.295   1.637   4.140 -1.8519 -1.6155  0.0756
 7114TIP3   OH242756   5.999   4.125   1.536  0.0402 -0.2623  0.0485
 7114TIP3    H142757   6.036   4.191   1.478  1.0304 -0.0197  0.9217
 7114TIP3    H242758   6.018   4.157   1.624 -1.1711 -0.7616  0.5120
 7115TIP3   OH242759   1.063   6.640   4.971  0.0549  0.5195  0.3217
 7115TIP3    H142760   1.043   6.732   4.953  0.6221  0.8309  1.2097
 7115TIP3    H242761   1.024   6.592   4.898 -0.4360  1.4454 -0.0395
 7116TIP3   OH242762   1.464   2.336  10.827 -0.0683 -0.5067  0.3773
 7116TIP3    H142763   1.482   2.243  10.815 -0.1859 -0.3284 -1.3512
 7116TIP3    H242764   1.547   2.379  10.806 -0.0109 -0.1982  1.1767
 7117TIP3   OH242765   2.580   2.992   2.609 -0.0213 -0.1277 -0.1394
 7117TIP3    H142766   2.530   3.073   2.613 -0.0718 -0.1569 -0.1771
 7117TIP3    H242767   2.633   2.992   2.688  0.5883  0.3447 -0.5353
 7118TIP3   OH242768   4.898   0.411   4.601 -0.0951 -0.1843  0.1159
 7118TIP3    H142769   4.807   0.442   4.606 -0.1370 -0.4526  1.2019
 7118TIP3    H242770   4.919   0.383   4.690 -0.2706 -3.8047 -0.7929
 7119TIP3   OH242771   4.566   0.392  11.201  0.3933 -0.0162  0.3898
 7119TIP3    H142772   4.645   0.386  11.255  1.0699  2.3612 -0.2147
 7119TIP3    H242773   4.534   0.481  11.216 -1.2560 -0.3966 -0.6424
 7120TIP3   OH242774   1.842   3.522   2.279  0.2092  0.0540 -0.0366
 7120TIP3    H142775   1.761   3.479   2.309  0.7254 -2.9911 -2.4790
 7120TIP3    H242776   1.812   3.601   2.235 -1.4095 -0.5776 -0.1449
 7121TIP3   OH242777   5.590   4.696   2.447 -0.7607 -0.5272 -0.3561
 7121TIP3    H142778   5.523   4.694   2.515 -1.0360 -2.7911 -0.5930
 7121TIP3    H242779   5.673   4.704   2.495 -1.1091  2.7297 -0.0855
 7122TIP3   OH242780   2.644   5.331  15.221 -0.3374  0.6579  0.0853
 7122TIP3    H142781   2.714   5.329  15.287  1.0650  1.4404 -1.3259
 7122TIP3    H242782   2.676   5.391  15.154 -1.5953 -0.3393 -1.4641
 7123TIP3   OH242783   0.097   2.526   4.328  0.8125 -0.0211 -0.5340
 7123TIP3    H142784   0.119   2.441   4.289  0.4351 -0.1474 -0.4694
 7123TIP3    H242785   0.159   2.535   4.400  1.8535  0.4334 -1.4458
 7124TIP3   OH242786   5.476   3.087   0.783 -0.1199 -0.7612  0.1797
 7124TIP3    H142787   5.544   3.152   0.762  0.6733 -1.9007 -0.9065
 7124TIP3    H242788   5.437   3.065   0.699 -1.5900 -0.4164  0.7533
 7125TIP3   OH242789   4.825   0.853   1.671 -0.0855  0.1465  0.6931
 7125TIP3    H142790   4.906   0.802   1.671  0.7938  1.4453 -0.9686
 7125TIP3    H242791   4.852   0.941   1.699 -1.1121  0.3641  1.0475
 7126TIP3   OH242792   0.761   3.189   3.475  0.0068  0.3637  0.0428
 7126TIP3    H142793   0.821   3.258   3.502  1.4178 -0.8011  0.0083
 7126TIP3    H242794   0.811   3.139   3.410 -1.2148 -0.3095 -0.3975
 7127TIP3   OH242795   3.883   2.380   4.235 -0.4735 -0.1092 -0.1690
 7127TIP3    H142796   3.939   2.457   4.223 -0.6180  0.3619  1.7906
 7127TIP3    H242797   3.926   2.312   4.184  0.8570  0.7292 -0.2344
 7128TIP3   OH242798   5.081   2.551  11.215  0.2118 -0.4503 -0.4852
 7128TIP3    H142799   5.158   2.530  11.268  0.1535 -1.5253 -0.7917
 7128TIP3    H242800   5.044   2.629  11.256  0.0963 -1.3088  1.1541
 7129TIP3   OH242801   0.264   5.846   5.705  0.6790  0.3472 -0.6932
 7129TIP3    H142802   0.196   5.797   5.658  1.8821 -1.1335 -0.9875
 7129TIP3    H242803   0.285   5.920   5.648  0.2538  0.0689 -1.2202
 7130TIP3   OH242804   2.437   0.705   5.687 -0.1546  0.2225 -0.2887
 7130TIP3    H142805   2.372   0.646   5.725 -0.1640  0.2545 -0.2539
 7130TIP3    H242806   2.454   0.769   5.757 -1.5494  1.3985 -0.9749
 7131TIP3   OH242807   3.789   0.897   5.782 -0.3309  0.1897  0.1829
 7131TIP3    H142808   3.840   0.841   5.723  0.6969  0.6152  0.6465
 7131TIP3    H242809   3.730   0.836   5.827 -0.3865 -0.2850 -0.5072
 7132TIP3   OH242810   6.541   3.935   4.797  0.4419 -0.0449 -0.1656
 7132TIP3    H142811   6.477   3.913   4.865 -0.4280 -1.8632 -1.5016
 7132TIP3    H242812   6.496   3.999   4.742 -0.7505 -2.0808 -1.7055
 7133TIP3   OH242813   0.735   2.848  14.747  0.0308  0.4101 -0.0082
 7133TIP3    H142814   0.654   2.799  14.763 -1.2467  1.7370 -1.9518
 7133TIP3    H242815   0.754   2.890  14.830 -2.5175  1.7533 -0.0155
 7134TIP3   OH242816   6.592   2.083  10.750 -0.0648  0.4103  0.3497
 7134TIP3    H142817   6.515   2.068  10.805  0.2995  2.5636  1.5498
 7134TIP3    H242818   6.559   2.131  10.674 -0.5211 -2.3311 -1.3542
 7135TIP3   OH242819   2.376   3.851   4.477  0.3150 -0.2225 -0.1624
 7135TIP3    H142820   2.349   3.813   4.394  0.9716 -1.6918  0.2683
 7135TIP3    H242821   2.321   3.807   4.542 -0.1512  0.8679  0.2040
 7136TIP3   OH242822   0.286   6.371  16.615 -0.9587 -0.1864 -0.5155
 7136TIP3    H142823   0.317   6.304  16.555  1.2711 -0.5933  0.9810
 7136TIP3    H242824   0.215   6.330  16.663 -1.9315 -0.2655 -1.9591
 7137TIP3   OH242825   4.684   1.710  14.585  0.4096 -0.1249  0.1400
 7137TIP3    H142826   4.663   1.637  14.644 -0.9820 -1.1744 -1.5764
 7137TIP3    H242827   4.732   1.670  14.513  0.2205  0.7683 -0.5039
 7138TIP3   OH242828   4.369   5.132   1.874  0.0298 -0.1220 -0.1559
 7138TIP3    H142829   4.363   5.141   1.779 -0.1848  0.1437 -0.1181
 7138TIP3    H242830   4.456   5.164   1.897 -0.0895  0.2485 -0.2130
 7139TIP3   OH242831   2.477   4.912  11.762  0.1318 -0.2781 -0.5809
 7139TIP3    H142832   2.564   4.953  11.769 -0.6786  1.5679 -0.6779
 7139TIP3    H242833   2.427   4.950  11.834 -0.2775 -2.2740  0.2501
 7140TIP3   OH242834   5.399   0.996   5.726 -0.4263  0.3741  0.4526
 7140TIP3    H142835   5.477   0.960   5.768 -0.8110 -0.9585  0.0704
 7140TIP3    H242836   5.348   1.034   5.797 -1.0776 -1.8692  1.2561
 7141TIP3   OH242837   0.517   1.627   3.069 -0.7030 -0.3925  0.2850
 7141TIP3    H142838   0.526   1.537   3.039  0.3511 -0.8355  1.7953
 7141TIP3    H242839   0.444   1.624   3.131 -0.0118 -0.4547  1.1191
 7142TIP3   OH242840   5.868   3.965  11.420  0.2176 -0.6453 -0.4426
 7142TIP3    H142841   5.794   3.971  11.480  0.2927 -2.5122 -0.0756
 7142TIP3    H242842   5.829   3.958  11.333 -0.1095 -2.1372 -0.2080
 7143TIP3   OH242843   0.455   2.080  11.454 -0.2773  0.0818 -0.0640
 7143TIP3    H142844   0.459   1.995  11.498 -0.5222 -0.3671 -0.8880
 7143TIP3    H242845   0.527   2.130  11.493 -0.7573 -0.1509  1.1408
 7144TIP3   OH242846   2.526   1.896  14.772  0.2072  0.0812  0.4234
 7144TIP3    H142847   2.487   1.847  14.844 -0.6426  0.7690  0.4562
 7144TIP3    H242848   2.472   1.875  14.696 -0.5127  1.3577  0.5503
 7145TIP3   OH242849   4.775   6.667   4.649  0.3750 -0.0628  0.2672
 7145TIP3    H142850   4.798   6.760   4.644  2.7401 -0.3844  2.8331
 7145TIP3    H242851   4.709   6.662   4.718  0.6708 -0.3601  0.5280
 7146TIP3   OH242852   2.988   3.419   1.961 -0.1080 -0.1420  0.1196
 7146TIP3    H142853   3.081   3.419   1.940 -0.0373 -0.9525  0.4194
 7146TIP3    H242854   2.979   3.356   2.032 -0.6517  1.0740  1.1835
 7147TIP3   OH242855   1.172   2.414  15.474  0.0061  0.5714 -0.7646
 7147TIP3    H142856   1.079   2.397  15.486 -0.5486  2.1316 -2.4605
 7147TIP3    H242857   1.198   2.358  15.401  0.0993  1.0402 -1.0936
 7148TIP3   OH242858   5.024   4.157   1.972  0.7348  0.0040 -0.2371
 7148TIP3    H142859   5.021   4.252   1.968 -1.4786  0.0129  0.4027
 7148TIP3    H242860   5.079   4.138   2.049 -0.6296  0.8483  0.9938
 7149TIP3   OH242861   6.164   6.318  12.112  0.4183 -0.5162 -0.6265
 7149TIP3    H142862   6.168   6.356  12.024 -1.1034  1.4390  0.0920
 7149TIP3    H242863   6.171   6.392  12.172 -0.1187 -1.6378  0.9014
 7150TIP3   OH242864   0.456   0.400  10.728 -0.3483 -0.3797  0.3744
 7150TIP3    H142865   0.535   0.347  10.716  0.0035  0.5936 -2.3098
 7150TIP3    H242866   0.487   0.491  10.727 -1.3930 -0.0047  0.0291
 7151TIP3   OH242867   1.802   0.484  14.999  0.5294  0.3228  0.0408
 7151TIP3    H142868   1.781   0.576  14.985 -0.4421  0.1562  0.2941
 7151TIP3    H242869   1.890   0.473  14.963  1.4368  1.7653  1.6758
 7152TIP3   OH242870   3.112   5.939   2.640  0.4026  0.2197  0.2101
 7152TIP3    H142871   3.036   5.885   2.620  0.1708  0.4699  0.4125
 7152TIP3    H242872   3.170   5.882   2.691 -0.5045  0.6100  1.7281
 7153TIP3   OH242873   6.489   2.833   2.870  0.3494  0.4247  0.9965
 7153TIP3    H142874   6.443   2.914   2.847  0.4488  0.6755  1.6517
 7153TIP3    H242875   6.434   2.794   2.939  1.5475  1.1722  2.4337
 7154TIP3   OH242876   3.918   5.739  16.367  0.1900  0.1129  0.8596
 7154TIP3    H142877   3.969   5.733  16.448  0.9857 -0.5819  0.3150
 7154TIP3    H242878   3.975   5.784  16.306  0.3303 -1.0252  0.1218
 7155TIP3   OH242879   3.425   0.988  12.857  0.3363 -0.5381 -0.3969
 7155TIP3    H142880   3.488   0.969  12.788 -0.9492 -3.1404 -0.9782
 7155TIP3    H242881   3.452   0.932  12.930 -0.6065 -0.8048 -0.2428
 7156TIP3   OH242882   4.482   6.607  10.589  0.5268 -0.4735  0.0740
 7156TIP3    H142883   4.542   6.628  10.660  1.5920 -0.7321 -0.7196
 7156TIP3    H242884   4.489   6.512  10.578 -0.6313 -0.6250  0.4732
 7157TIP3   OH242885   1.698   1.675  14.810 -0.3445 -0.1928 -0.0716
 7157TIP3    H142886   1.751   1.646  14.736  2.2402  1.5584  0.9224
 7157TIP3    H242887   1.740   1.634  14.886  0.8047  2.5478  0.9167
 7158TIP3   OH242888   5.601   0.365   4.234  0.3455  0.4185 -0.2126
 7158TIP3    H142889   5.587   0.280   4.191  0.8665 -0.2409  0.8844
 7158TIP3    H242890   5.521   0.414   4.216 -0.3169 -0.6098 -0.1577
 7159TIP3   OH242891   2.781   6.745   5.422  0.1678  0.1995 -0.4590
 7159TIP3    H142892   2.799   6.835   5.448 -0.4034  0.1251  0.2045
 7159TIP3    H242893   2.686   6.738   5.424  0.1105  0.0711 -2.1865
 7160TIP3   OH242894   2.095   3.667   4.968 -0.5677 -0.1799 -0.3614
 7160TIP3    H142895   2.136   3.749   4.940 -0.1922  0.4556  1.8049
 7160TIP3    H242896   2.145   3.599   4.925 -1.2121  0.6764 -2.6428
 7161TIP3   OH242897   3.028   0.774  16.706  0.0026 -0.4805  0.6175
 7161TIP3    H142898   2.969   0.708  16.744 -0.4294 -0.4566 -0.0122
 7161TIP3    H242899   3.110   0.727  16.692  0.3268 -0.3759  2.0094
 7162TIP3   OH242900   4.236   3.769  15.093 -0.2925  0.2896  0.4082
 7162TIP3    H142901   4.177   3.839  15.065  1.1036  0.8517 -1.2707
 7162TIP3    H242902   4.323   3.809  15.094  0.1231 -0.4008  3.1831
 7163TIP3   OH242903   5.755   2.511   5.249  0.8522  0.4819  0.3034
 7163TIP3    H142904   5.686   2.540   5.309 -0.6347 -0.9526 -0.6524
 7163TIP3    H242905   5.709   2.463   5.180  2.8737 -1.4573  0.1820
 7164TIP3   OH242906   4.137   2.387  16.771  0.3597 -0.8195 -0.3338
 7164TIP3    H142907   4.178   2.376  16.685  0.1063 -0.9981 -0.4342
 7164TIP3    H242908   4.203   2.432  16.824  0.9603 -1.7317 -0.2862
 7165TIP3   OH242909   6.145   1.621  16.109  0.2871  0.7745  0.6804
 7165TIP3    H142910   6.160   1.528  16.124 -2.1382  0.4379  1.4960
 7165TIP3    H242911   6.209   1.646  16.043  1.4024 -1.3091  0.9013
 7166TIP3   OH242912   2.075   1.930  12.732 -0.6172 -0.8248  0.6164
 7166TIP3    H142913   2.021   1.961  12.805  1.4890  0.5333  1.7164
 7166TIP3    H242914   2.049   1.985  12.658 -2.8918 -2.3246  0.1737
 7167TIP3   OH242915   0.322   3.988   4.212 -0.3654  0.1656  0.4448
 7167TIP3    H142916   0.298   3.899   4.188 -0.7299  0.0366  1.2574
 7167TIP3    H242917   0.389   3.978   4.280  0.2194  0.5185 -0.0629
 7168TIP3   OH242918   1.079   2.941  16.443 -0.4564  0.1703 -0.1000
 7168TIP3    H142919   1.101   2.848  16.434 -0.3101  0.3883 -2.9424
 7168TIP3    H242920   1.147   2.986  16.394 -0.4378  1.8533  1.3617
 7169TIP3   OH242921   4.213   1.414  11.263 -0.6556 -0.2028 -0.5167
 7169TIP3    H142922   4.282   1.414  11.197 -1.3282 -0.1092 -1.2274
 7169TIP3    H242923   4.162   1.493  11.245  0.4505  1.0813  1.5253
 7170TIP3   OH242924   2.644   1.387  13.192  0.3962  0.2420 -0.2940
 7170TIP3    H142925   2.713   1.376  13.126 -0.2324 -1.6632 -0.6996
 7170TIP3    H242926   2.572   1.428  13.143  0.9784  1.6391 -0.0225
 7171TIP3   OH242927   2.416   4.959   1.842  0.1209  0.4851 -0.2440
 7171TIP3    H142928   2.459   4.971   1.757  1.7189 -2.2087  0.0828
 7171TIP3    H242929   2.482   4.985   1.906 -0.3311  0.5220  0.2079
 7172TIP3   OH242930   1.098   1.980   5.501 -1.0657  0.0433 -0.5173
 7172TIP3    H142931   1.017   1.928   5.501 -1.7661  1.0914  0.1002
 7172TIP3    H242932   1.129   1.976   5.591  0.1237 -1.1345 -0.9483
 7173TIP3   OH242933   1.435   3.168  14.819 -0.4505  0.3667  0.1202
 7173TIP3    H142934   1.423   3.073  14.817 -0.4561  0.3342  1.1753
 7173TIP3    H242935   1.439   3.193  14.727  1.8341 -0.9301 -0.1935
 7174TIP3   OH242936   0.708   0.782  15.871 -0.1984 -0.4170  0.2013
 7174TIP3    H142937   0.630   0.837  15.867  0.1043 -0.0142 -0.1558
 7174TIP3    H242938   0.726   0.757  15.781 -0.6607 -1.5793  0.4119
 7175TIP3   OH242939   1.974   6.413  12.659  0.1055 -0.0621  0.2058
 7175TIP3    H142940   2.026   6.380  12.586 -0.4161 -0.4946  0.0253
 7175TIP3    H242941   1.942   6.335  12.704 -3.6161 -0.0249 -1.9472
 7176TIP3   OH242942   4.636   2.588   2.930 -0.5403  0.2608 -0.5573
 7176TIP3    H142943   4.596   2.670   2.958 -0.3960 -0.8276  3.4372
 7176TIP3    H242944   4.563   2.531   2.907 -0.6878  1.1105 -2.3132
 7177TIP3   OH242945   5.369   6.101   1.572  0.0982 -0.5775 -0.3306
 7177TIP3    H142946   5.354   6.006   1.570 -0.4221 -0.5505  1.2452
 7177TIP3    H242947   5.464   6.110   1.572  0.1510 -1.1002 -0.3072
 7178TIP3   OH242948   5.346   0.330  17.066 -0.5750 -0.1416  0.4687
 7178TIP3    H142949   5.397   0.363  16.992  2.3124 -0.2383  2.2371
 7178TIP3    H242950   5.309   0.247  17.035  0.0354  0.1241 -1.0665
 7179TIP3   OH242951   3.237   2.206  14.362  0.8069  0.0141  0.0448
 7179TIP3    H142952   3.157   2.254  14.383  1.0016  0.3863 -0.0480
 7179TIP3    H242953   3.277   2.257  14.291  0.7755 -0.5516 -0.3829
 7180TIP3   OH242954   4.909   6.622  14.957  0.0007 -0.9958  0.4236
 7180TIP3    H142955   4.855   6.639  14.880  0.0716 -0.5419  0.4746
 7180TIP3    H242956   4.973   6.557  14.927  0.4639 -0.3147 -0.0919
 7181TIP3   OH242957   6.231   1.775   5.592 -0.6663  0.1981 -0.4132
 7181TIP3    H142958   6.209   1.700   5.648  0.3044 -0.1800 -0.5213
 7181TIP3    H242959   6.241   1.848   5.653 -4.0787  0.8968 -0.4953
 7182TIP3   OH242960   5.018   4.003   2.781  0.4530 -0.1200 -0.4094
 7182TIP3    H142961   5.009   3.986   2.875 -0.1754 -0.3782 -0.5069
 7182TIP3    H242962   4.941   3.961   2.742  0.1951  0.8151 -0.9319
 7183TIP3   OH242963   2.264   3.471   4.868 -0.1761 -0.3715  0.0749
 7183TIP3    H142964   2.350   3.441   4.840  0.3108 -0.7083  1.8187
 7183TIP3    H242965   2.262   3.455   4.962 -1.1210  2.1165  0.5644
 7184TIP3   OH242966   1.870   4.627  15.944 -0.4834 -0.5527  0.0011
 7184TIP3    H142967   1.899   4.559  15.883 -1.7491 -0.1228 -1.1516
 7184TIP3    H242968   1.814   4.581  16.006  0.2422 -0.8782  0.4243
 7185TIP3   OH242969   6.176   4.474   3.171  0.0274 -0.2814  0.4539
 7185TIP3    H142970   6.106   4.438   3.226 -0.3304 -1.3588 -0.6584
 7185TIP3    H242971   6.136   4.549   3.127 -0.5748 -1.0912 -0.4322
 7186TIP3   OH242972   3.735   3.266  15.162 -0.0504  0.0921  0.5197
 7186TIP3    H142973   3.807   3.219  15.204 -0.8051 -0.0558  1.6931
 7186TIP3    H242974   3.770   3.292  15.077  1.7054  0.8022  1.3910
 7187TIP3   OH242975   1.035   3.108  14.621 -0.4742  0.3390 -0.1761
 7187TIP3    H142976   1.075   3.024  14.643  0.7444  0.5869 -1.2804
 7187TIP3    H242977   1.076   3.171  14.679 -0.3966  0.3702 -0.2651
 7188TIP3   OH242978   3.606   2.065  15.969 -0.2223  0.1583  1.3263
 7188TIP3    H142979   3.668   2.031  15.904 -1.1365  0.3043  0.3464
 7188TIP3    H242980   3.526   2.080  15.919 -0.3998  2.0250  2.1228
 7189TIP3   OH242981   2.225   5.520   2.363  0.4114  0.7203 -0.0312
 7189TIP3    H142982   2.142   5.548   2.400  0.6024 -1.3270  2.1983
 7189TIP3    H242983   2.213   5.427   2.345  2.2069  0.3793  0.3420
 7190TIP3   OH242984   4.532   3.846   4.936  0.0385 -0.1338  0.1433
 7190TIP3    H142985   4.527   3.936   4.968  0.4462 -0.1375  0.2289
 7190TIP3    H242986   4.447   3.829   4.897 -0.2471  0.0888  0.6618
 7191TIP3   OH242987   2.804   1.552  15.280  0.1961 -0.1062 -0.2317
 7191TIP3    H142988   2.742   1.626  15.281  1.3360  0.8941 -0.8906
 7191TIP3    H242989   2.842   1.554  15.192  1.6244 -0.2929  0.3550
 7192TIP3   OH242990   2.849   3.430  10.721  0.3899 -0.3304  0.0429
 7192TIP3    H142991   2.821   3.407  10.809 -0.8962  0.4526 -0.1382
 7192TIP3    H242992   2.791   3.381  10.663  1.0508 -0.6364 -0.3756
 7193TIP3   OH242993   1.176   6.639  11.983 -0.0091  0.2324 -0.1235
 7193TIP3    H142994   1.164   6.544  11.991  0.6903  0.1373 -0.1723
 7193TIP3    H242995   1.144   6.660  11.895 -1.4248  0.2592  0.3645
 7194TIP3   OH242996   5.790   4.889   0.877 -0.5129  0.8265 -0.0931
 7194TIP3    H142997   5.744   4.973   0.878 -0.1140  1.0561 -0.8196
 7194TIP3    H242998   5.849   4.894   0.953 -1.0676  0.8660  0.3465
 7195TIP3   OH242999   1.395   2.861   5.465 -0.1014 -0.3724 -0.4546
 7195TIP3    H143000   1.332   2.881   5.535  0.3062 -0.2916 -0.1099
 7195TIP3    H243001   1.474   2.835   5.511  1.3259  2.9002 -0.7591
 7196TIP3   OH243002   0.440   1.735  10.792 -0.1991 -0.6260  0.7398
 7196TIP3    H143003   0.442   1.651  10.745 -0.8128 -0.8315  1.0574
 7196TIP3    H243004   0.387   1.792  10.737 -2.2992 -1.3459  1.8815
 7197TIP3   OH243005   5.986   4.834   2.145 -0.0315  0.2769  0.1793
 7197TIP3    H143006   6.042   4.911   2.132  2.0722 -1.0768  0.8804
 7197TIP3    H243007   5.947   4.847   2.231 -2.8528  2.3825 -1.2335
 7198TIP3   OH243008   4.914   2.637  10.235 -0.2284  0.4919  0.5498
 7198TIP3    H143009   4.856   2.699  10.279 -1.1028 -0.7479  1.1970
 7198TIP3    H243010   4.935   2.571  10.302  0.1344 -0.2803 -0.2938
 7199TIP3   OH243011   0.959   6.178   4.516  0.1571  0.0809 -0.3278
 7199TIP3    H143012   0.977   6.089   4.547 -0.3735  0.5072  1.2651
 7199TIP3    H243013   1.045   6.219   4.513  0.2985 -0.1913 -0.1328
 7200TIP3   OH243014   1.900   5.635   4.788  0.3874 -0.7068 -0.2142
 7200TIP3    H143015   1.994   5.655   4.786  0.2474 -0.0736 -2.0665
 7200TIP3    H243016   1.874   5.655   4.878  1.6719  0.8530 -0.1333
 7201TIP3   OH243017   6.244   6.305  16.996 -0.3027 -0.2336 -0.0071
 7201TIP3    H143018   6.158   6.301  16.955 -0.2523  1.6096 -0.4034
 7201TIP3    H243019   6.269   6.214  17.008 -2.5994 -0.8354  0.7689
 7202TIP3   OH243020   5.596   3.096   3.461 -0.0591 -0.1952  0.3594
 7202TIP3    H143021   5.683   3.096   3.502  1.1447 -0.3310 -2.0308
 7202TIP3    H243022   5.574   3.189   3.452 -0.1764 -0.1605  0.9864
 7203TIP3   OH243023   5.837   5.870   4.475  0.3055  0.2097 -0.0032
 7203TIP3    H143024   5.744   5.864   4.453  0.5184 -2.4627 -0.5184
 7203TIP3    H243025   5.844   5.832   4.562  1.1566 -1.8550 -0.9138
 7204TIP3   OH243026   2.262   2.300  11.878  0.0881 -0.4006  0.2815
 7204TIP3    H143027   2.168   2.301  11.857  0.3978 -1.3280 -1.3818
 7204TIP3    H243028   2.304   2.336  11.799  1.0978  0.8766  1.3616
 7205TIP3   OH243029   5.968   2.689   3.454  0.8768  0.3012 -0.2660
 7205TIP3    H143030   6.026   2.741   3.399  2.6190 -0.2277  0.9607
 7205TIP3    H243031   5.962   2.604   3.410  0.9883  0.3762 -0.4245
 7206TIP3   OH243032   4.646   1.964  11.024  0.6177 -0.4331 -0.2448
 7206TIP3    H143033   4.562   1.957  10.979  0.3393  1.6497 -0.1660
 7206TIP3    H243034   4.668   2.057  11.019  3.0308 -0.9380 -0.4368
 7207TIP3   OH243035   3.707   2.042   5.492  0.1018  0.2141  0.5106
 7207TIP3    H143036   3.739   2.084   5.413  0.5124 -0.2027  0.4492
 7207TIP3    H243037   3.686   2.114   5.552  0.1403  0.5163  0.1605
 7208TIP3   OH243038   0.345   0.654   6.030  0.0053 -0.2963 -0.2240
 7208TIP3    H143039   0.359   0.563   6.054 -0.1524 -0.0740  0.7812
 7208TIP3    H243040   0.313   0.695   6.111 -0.5612  0.5034 -0.8412
 7209TIP3   OH243041   2.639   5.166  12.083 -0.4436  0.3597  0.0546
 7209TIP3    H143042   2.615   5.213  12.163  0.6293 -1.2284  1.3875
 7209TIP3    H243043   2.714   5.214  12.049 -2.3278  2.4697 -1.4359
 7210TIP3   OH243044   2.882   2.620   2.335 -0.2258 -0.1933 -0.0503
 7210TIP3    H143045   2.912   2.667   2.257  0.1377  0.3290  0.3999
 7210TIP3    H243046   2.961   2.577   2.369 -0.2499  0.1013  0.3874
 7211TIP3   OH243047   5.319   6.220   3.382 -0.2084  0.1114  0.4406
 7211TIP3    H143048   5.363   6.300   3.411  0.4902  0.7915 -2.2200
 7211TIP3    H243049   5.226   6.236   3.401  0.1688  0.4947  2.1302
 7212TIP3   OH243050   3.808   0.860  15.412 -0.3798 -0.4564 -0.3425
 7212TIP3    H143051   3.903   0.851  15.404 -0.2860  0.1661 -0.0100
 7212TIP3    H243052   3.776   0.857  15.322  0.0993  0.8177 -0.5775
 7213TIP3   OH243053   3.559   5.576  12.244 -0.4885 -0.1052  0.2118
 7213TIP3    H143054   3.463   5.578  12.250 -0.6332 -1.2603 -1.1354
 7213TIP3    H243055   3.586   5.664  12.270 -2.0342  0.8003 -1.0507
 7214TIP3   OH243056   0.387   3.483   2.355 -0.1091 -0.0904 -0.0776
 7214TIP3    H143057   0.342   3.567   2.355 -0.1926 -0.1018 -1.4400
 7214TIP3    H243058   0.317   3.417   2.358 -0.0262 -0.1477  1.6594
 7215TIP3   OH243059   0.434   3.769   2.433  0.3555  0.6964  0.1026
 7215TIP3    H143060   0.411   3.848   2.482  3.1890  2.4564 -1.2024
 7215TIP3    H243061   0.365   3.761   2.367 -0.4886  1.4851  0.8596
 7216TIP3   OH243062   5.029   0.855  16.520  0.4994 -0.6488 -0.2201
 7216TIP3    H143063   5.041   0.820  16.609  0.9104 -1.4167 -0.5624
 7216TIP3    H243064   4.982   0.937  16.532 -0.1784 -1.1524  0.6491
 7217TIP3   OH243065   2.285   3.858  11.180 -0.1007  0.2498  0.8438
 7217TIP3    H143066   2.339   3.796  11.230  2.4190 -0.0151 -1.8893
 7217TIP3    H243067   2.308   3.944  11.216  0.1941 -0.0575  1.4067
 7218TIP3   OH243068   0.292   0.653   1.989  0.0420 -0.7659  0.2588
 7218TIP3    H143069   0.234   0.724   1.960  0.9679 -0.1082 -0.0309
 7218TIP3    H243070   0.340   0.690   2.063  1.5589 -0.5548 -0.7707
 7219TIP3   OH243071   4.514   5.945   1.645  0.8994  0.5519 -0.0626
 7219TIP3    H143072   4.451   6.015   1.625  2.4655  1.5778 -1.8537
 7219TIP3    H243073   4.599   5.986   1.628  1.9838 -1.1571  1.0604
 7220TIP3   OH243074   6.348   2.451  16.356 -0.1642  0.6129  0.5308
 7220TIP3    H143075   6.413   2.439  16.425  0.2205 -2.0739 -0.2118
 7220TIP3    H243076   6.299   2.528  16.383  2.0539  1.5837  2.1095
 7221TIP3   OH243077   3.878   4.277   3.591  0.0363 -0.3116  0.0558
 7221TIP3    H143078   3.882   4.349   3.528 -0.9705 -0.6643 -0.4255
 7221TIP3    H243079   3.801   4.297   3.645  0.5932 -0.2816  0.8565
 7222TIP3   OH243080   1.630   4.333  16.731 -0.0324  0.0711  0.6593
 7222TIP3    H143081   1.692   4.271  16.770 -0.3621  0.4211  1.7646
 7222TIP3    H243082   1.596   4.384  16.804 -0.6998  0.7338 -0.0790
 7223TIP3   OH243083   4.824   2.115   5.221  0.3200 -0.1680  0.3655
 7223TIP3    H143084   4.870   2.178   5.167  0.6171 -1.0694 -0.4597
 7223TIP3    H243085   4.872   2.115   5.304  0.1840  0.8266  0.4627
 7224TIP3   OH243086   3.926   5.615  15.034  0.7390 -0.4753  0.5999
 7224TIP3    H143087   3.925   5.606  14.939  2.4174 -0.6567  0.5765
 7224TIP3    H243088   3.993   5.553  15.064 -0.0014 -0.6623  1.9325
 7225TIP3   OH243089   2.963   5.560  11.760 -0.8631  0.1362  0.2384
 7225TIP3    H143090   3.032   5.612  11.801 -1.0196 -0.1606  0.8956
 7225TIP3    H243091   2.896   5.624  11.736  1.0941  0.9869 -3.7378
 7226TIP3   OH243092   0.424   6.012  12.826 -0.2955 -0.0355 -0.2951
 7226TIP3    H143093   0.516   5.987  12.819  0.0751  1.2439 -0.3581
 7226TIP3    H243094   0.413   6.038  12.918 -0.1700  1.2645 -0.6234
 7227TIP3   OH243095   3.198   1.189   0.069  0.1804  0.6174 -1.0067
 7227TIP3    H143096   3.201   1.107   0.019 -0.5790 -0.7500  1.0712
 7227TIP3    H243097   3.290   1.212   0.081  0.5511 -1.4927  0.7310
 7228TIP3   OH243098   5.346   3.458   3.777  0.0221 -0.6433 -0.2964
 7228TIP3    H143099   5.265   3.428   3.736 -0.3736  0.5875 -0.4439
 7228TIP3    H243100   5.415   3.411   3.730 -0.4813 -0.0055 -1.7360
 7229TIP3   OH243101   3.203   6.710   3.660 -0.1889  0.2908 -0.4910
 7229TIP3    H143102   3.130   6.758   3.622 -1.5729 -2.1794 -1.1261
 7229TIP3    H243103   3.163   6.635   3.705  1.7207  0.6854  2.1449
 7230TIP3   OH243104   5.159   4.264   2.539  0.3824  0.4115 -0.0882
 7230TIP3    H143105   5.135   4.343   2.588  0.8113  1.9302 -2.1779
 7230TIP3    H243106   5.240   4.234   2.580 -0.3124  0.4401  1.3727
 7231TIP3   OH243107   2.464   0.264  13.510  0.3885  0.1872 -0.4130
 7231TIP3    H143108   2.546   0.251  13.557  0.9187  1.2193 -1.0002
 7231TIP3    H243109   2.466   0.357  13.485 -0.3318 -0.0967 -1.5922
 7232TIP3   OH243110   1.989   3.553   5.200 -0.1135  0.2604 -0.1480
 7232TIP3    H143111   2.033   3.593   5.126  0.1861  0.1603 -0.0255
 7232TIP3    H243112   2.040   3.581   5.276 -1.4964  1.9480  0.2366
 7233TIP3   OH243113   5.799   1.540   4.361  0.2666  0.1838 -0.0223
 7233TIP3    H143114   5.790   1.482   4.437 -1.0550  0.8152  0.3319
 7233TIP3    H243115   5.739   1.504   4.296 -0.0743  0.7721 -0.0371
 7234TIP3   OH243116   1.482   1.987   3.996 -0.2195  0.0683  0.1223
 7234TIP3    H143117   1.493   1.920   4.063 -0.1871 -0.1141 -0.0668
 7234TIP3    H243118   1.466   2.068   4.046  0.4048  0.0467  0.3626
 7235TIP3   OH243119   2.889   4.628   0.864 -0.6581  0.4305 -0.3320
 7235TIP3    H143120   2.885   4.592   0.775 -0.0299 -1.5384  0.3653
 7235TIP3    H243121   2.980   4.658   0.873 -0.5471  0.0715 -0.1923
 7236TIP3   OH243122   2.121   2.536   4.473 -0.0139 -0.2791  0.6086
 7236TIP3    H143123   2.054   2.514   4.538 -0.1571 -0.9415  0.2479
 7236TIP3    H243124   2.074   2.534   4.389  0.0549  1.0465  0.5178
 7237TIP3   OH243125   2.204   6.804   0.961  0.3129 -0.0343 -0.2913
 7237TIP3    H143126   2.128   6.791   0.904  0.0469  1.2271 -0.2642
 7237TIP3    H243127   2.249   6.880   0.923  1.5886 -0.7922 -0.3266
 7238TIP3   OH243128   6.418   1.287  12.332 -0.1864  0.1623 -0.0623
 7238TIP3    H143129   6.478   1.327  12.395 -1.3268  2.6880 -0.4443
 7238TIP3    H243130   6.465   1.290  12.249 -0.2066  0.6571 -0.0630
 7239TIP3   OH243131   0.319   0.246  15.488  0.2416  0.1272  0.3057
 7239TIP3    H143132   0.260   0.244  15.563  1.2345 -1.7762  1.1089
 7239TIP3    H243133   0.384   0.179  15.507  0.1066 -0.9949 -2.5831
 7240TIP3   OH243134   1.693   1.390   1.057 -0.0100 -0.1145  0.5060
 7240TIP3    H143135   1.672   1.427   0.972  1.6238  0.1955  0.1934
 7240TIP3    H243136   1.612   1.394   1.107 -0.9831 -0.2675 -1.0139
 7241TIP3   OH243137   0.467   3.169   5.714  0.4711 -0.0192  0.3593
 7241TIP3    H143138   0.496   3.153   5.625  0.8266 -0.0461  0.4812
 7241TIP3    H243139   0.391   3.111   5.725  0.1032  0.3662 -0.0945
 7242TIP3   OH243140   1.380   2.423   3.481  0.5244  0.0548 -0.0701
 7242TIP3    H143141   1.332   2.505   3.492  0.2773  0.1684 -1.8568
 7242TIP3    H243142   1.340   2.381   3.405  2.4330 -0.4342 -0.8612
 7243TIP3   OH243143   2.005   1.238  15.276 -0.4902  0.3608  0.0138
 7243TIP3    H143144   1.978   1.300  15.343  1.2496  0.7970  0.3549
 7243TIP3    H243145   2.095   1.262  15.255 -1.1205  0.5522 -2.8700
 7244TIP3   OH243146   3.726   2.660  13.043 -0.2292 -0.3274  0.2007
 7244TIP3    H143147   3.712   2.568  13.022  1.0489 -0.0371 -2.2157
 7244TIP3    H243148   3.786   2.659  13.118 -0.9947 -1.4227  0.8281
 7245TIP3   OH243149   1.942   2.157   1.908 -1.1063  0.2985 -0.2356
 7245TIP3    H143150   1.945   2.081   1.967 -0.7191  1.6540  1.5573
 7245TIP3    H243151   2.032   2.167   1.878 -1.2003 -0.0678 -0.6534
 7246TIP3   OH243152   5.565   1.326   5.124 -0.7951  0.7018  0.0475
 7246TIP3    H143153   5.602   1.242   5.098 -0.0455  1.1101 -0.2570
 7246TIP3    H243154   5.620   1.356   5.196 -1.5272  0.5886  0.6707
 7247TIP3   OH243155   6.336   6.730  11.670 -0.1555  0.4519 -0.2755
 7247TIP3    H143156   6.300   6.805  11.622 -0.5923 -0.3644 -1.2424
 7247TIP3    H243157   6.357   6.766  11.757 -2.6399  1.1645  0.1244
 7248TIP3   OH243158   0.520   5.644  11.859  0.0944 -0.5567  0.1929
 7248TIP3    H143159   0.438   5.687  11.833  0.9347  0.8747 -0.2416
 7248TIP3    H243160   0.493   5.574  11.918 -1.3716  0.4873  0.8209
 7249TIP3   OH243161   4.207   2.504  17.053 -0.0964 -0.3589 -0.5521
 7249TIP3    H143162   4.297   2.536  17.061 -0.3129 -0.0808  1.0422
 7249TIP3    H243163   4.154   2.582  17.040 -0.6627  0.2083  3.6388
 7250TIP3   OH243164   1.734   6.065  15.204 -0.2550 -0.2478  0.5230
 7250TIP3    H143165   1.792   6.002  15.246 -1.6835 -1.7306  0.3622
 7250TIP3    H243166   1.794   6.124  15.158  1.1475 -1.6884  0.3784
 7251TIP3   OH243167   3.723   4.565  12.523 -0.2545  0.5777 -0.6011
 7251TIP3    H143168   3.646   4.519  12.556  0.1244  1.5823  1.9717
 7251TIP3    H243169   3.695   4.656  12.515  0.4157  0.8035 -0.4450
 7252TIP3   OH243170   3.775   3.022  14.426 -0.3954 -0.0075  0.4128
 7252TIP3    H143171   3.774   3.114  14.399  0.4729  0.2894  1.3229
 7252TIP3    H243172   3.713   3.017  14.499 -0.4663 -0.1461  0.3428
 7253TIP3   OH243173   4.424   1.935  11.693 -0.5244  0.0171  0.1054
 7253TIP3    H143174   4.362   2.004  11.716  0.6925  1.3096 -0.3974
 7253TIP3    H243175   4.419   1.929  11.597  0.3267  0.3454  0.0312
 7254TIP3   OH243176   3.136   2.984   3.911  0.2846 -0.6680 -0.2702
 7254TIP3    H143177   3.187   2.950   3.838  0.7186  0.0292 -0.2958
 7254TIP3    H243178   3.178   3.067   3.934 -0.1238 -0.6555  0.4725
 7255TIP3   OH243179   3.439   5.121   0.600 -0.1950  0.0271 -0.4631
 7255TIP3    H143180   3.375   5.051   0.584 -0.0344  0.2206 -2.1944
 7255TIP3    H243181   3.520   5.075   0.623 -0.5317 -0.2784  0.1325
 7256TIP3   OH243182   5.039   4.760   5.319  0.8027  0.0744  0.1963
 7256TIP3    H143183   5.070   4.849   5.335  0.0482  0.3044  0.4284
 7256TIP3    H243184   4.968   4.748   5.382  0.3114 -0.3738 -0.4305
 7257TIP3   OH243185   0.085   1.649  10.668  0.5984  0.4357  0.4167
 7257TIP3    H143186   0.001   1.694  10.677 -0.2064  0.0999 -3.5451
 7257TIP3    H243187   0.148   1.719  10.652  0.1262  0.4829 -1.4215
 7258TIP3   OH243188   3.671   3.707   3.765 -0.3182  0.7702 -0.1764
 7258TIP3    H143189   3.628   3.626   3.736  0.5339  0.3941 -0.4271
 7258TIP3    H243190   3.683   3.695   3.859 -0.0087  0.5041 -0.2456
 7259TIP3   OH243191   6.146   0.724   4.377  0.0122  0.3008 -0.1893
 7259TIP3    H143192   6.089   0.714   4.301  0.1423 -0.2592 -0.2199
 7259TIP3    H243193   6.193   0.806   4.362 -0.6415  0.6609 -0.2568
 7260TIP3   OH243194   0.363   1.074  11.829  0.8116  0.3651 -0.2307
 7260TIP3    H143195   0.435   1.137  11.823  1.3373 -0.1997  0.0210
 7260TIP3    H243196   0.403   0.990  11.805  0.2381  0.0420 -0.0714
 7261TIP3   OH243197   3.672   0.562   4.976  0.0822 -0.6879 -0.2229
 7261TIP3    H143198   3.591   0.517   4.997  0.2624 -0.6072  0.6676
 7261TIP3    H243199   3.644   0.648   4.944 -0.2541 -1.3717 -1.8376
 7262TIP3   OH243200   0.178   1.101  13.497 -0.5576  0.1818 -0.0706
 7262TIP3    H143201   0.236   1.145  13.435 -0.3990  1.1014  0.6982
 7262TIP3    H243202   0.090   1.127  13.471 -0.7379 -1.7261 -1.6375
 7263TIP3   OH243203   1.719   1.723  14.467  0.3390 -0.0169  0.6342
 7263TIP3    H143204   1.648   1.694  14.524  0.1433 -0.5299  0.1416
 7263TIP3    H243205   1.696   1.689  14.381  1.1721 -0.1779  0.4629
 7264TIP3   OH243206   2.116   2.543  11.555 -0.1976 -0.2430  0.0116
 7264TIP3    H143207   2.075   2.539  11.468  3.5134  1.1763 -2.0495
 7264TIP3    H243208   2.153   2.456  11.568  3.3388  0.6729 -2.3270
 7265TIP3   OH243209   2.565   3.648   0.129  0.6303 -0.1848  0.4778
 7265TIP3    H143210   2.608   3.727   0.163  1.1748  0.1949 -0.9781
 7265TIP3    H243211   2.563   3.587   0.202  2.1087  0.4337  1.0649
 7266TIP3   OH243212   1.085   4.206  12.807  0.1646 -0.6012 -0.0252
 7266TIP3    H143213   1.062   4.259  12.884  0.5671 -1.5384  0.7666
 7266TIP3    H243214   1.078   4.116  12.838  1.2975 -0.9773 -0.7983
 7267TIP3   OH243215   5.453   3.335  13.421 -0.0434 -0.0442 -0.3912
 7267TIP3    H143216   5.510   3.258  13.417 -0.6168 -0.4929 -0.1256
 7267TIP3    H243217   5.455   3.373  13.333  1.2293  0.3663 -0.2011
 7268TIP3   OH243218   6.166   4.651   2.250  0.0024  0.0408 -0.2604
 7268TIP3    H143219   6.175   4.580   2.187 -2.0300  0.2031 -0.8204
 7268TIP3    H243220   6.119   4.719   2.202  0.4002  1.0863  0.7826
 7269TIP3   OH243221   6.157   0.629   4.993  0.5377 -0.4190  0.3107
 7269TIP3    H143222   6.159   0.719   5.027  0.9138 -0.1482 -0.4116
 7269TIP3    H243223   6.231   0.586   5.037  0.3694 -0.3764  0.6433
 7270TIP3   OH243224   0.660   2.939   0.013 -0.2251  0.2193  0.4435
 7270TIP3    H143225   0.628   2.957   0.102 -1.0583  0.0945  0.1748
 7270TIP3    H243226   0.580   2.927  -0.039  0.2384  0.8076 -0.4305
 7271TIP3   OH243227   0.054   2.186   0.491  0.0253 -0.1031 -0.4209
 7271TIP3    H143228   0.122   2.135   0.448 -0.0608 -0.3039 -0.3233
 7271TIP3    H243229   0.101   2.241   0.553  0.1567  0.2556 -0.8373
 7272TIP3   OH243230   1.909   2.538   2.675 -0.2571  0.1563  0.1051
 7272TIP3    H143231   1.819   2.552   2.706 -1.3962  0.6658 -3.0302
 7272TIP3    H243232   1.959   2.611   2.712 -1.0218 -0.3010  2.1446
 7273TIP3   OH243233   6.802   4.714  11.972 -0.0911  0.0794  0.3494
 7273TIP3    H143234   6.809   4.710  12.067 -0.5291  0.4697  0.4021
 7273TIP3    H243235   6.724   4.663  11.951 -0.2253  0.3245  0.2379
 7274TIP3   OH243236   2.826   6.498   3.341  0.1092 -0.6228 -0.3851
 7274TIP3    H143237   2.873   6.568   3.295 -0.1595  0.0641  0.3531
 7274TIP3    H243238   2.885   6.423   3.338  0.1008 -0.6124 -1.8353
 7275TIP3   OH243239   6.630   1.947  12.721  0.4022 -0.6174 -0.0073
 7275TIP3    H143240   6.704   1.992  12.763 -1.6219  1.2934  1.7559
 7275TIP3    H243241   6.600   1.884  12.786 -1.4267  0.8660  0.6774
 7276TIP3   OH243242   3.685   1.738   1.265  0.3905  0.4784 -0.0485
 7276TIP3    H143243   3.725   1.670   1.320  1.8277  0.9505 -0.4593
 7276TIP3    H243244   3.599   1.752   1.303  0.7754 -0.2696  1.1672
 7277TIP3   OH243245   6.414   3.966  11.128  0.2702 -0.0476  0.7725
 7277TIP3    H143246   6.459   4.013  11.198  0.0535  0.5114  0.5408
 7277TIP3    H243247   6.462   3.884  11.120  0.3664 -0.0717  1.4990
 7278TIP3   OH243248   1.798   2.919  14.099  0.2046 -0.1697 -0.3736
 7278TIP3    H143249   1.837   2.939  14.185 -0.8033  0.8698 -0.1294
 7278TIP3    H243250   1.706   2.900  14.118  0.0435 -0.2443 -1.1877
 7279TIP3   OH243251   0.021   1.351   0.064  0.1059 -0.5727  0.0519
 7279TIP3    H143252   0.003   1.376   0.154 -1.3653  0.1977 -0.4241
 7279TIP3    H243253  -0.053   1.296   0.039 -0.4384  0.6672 -1.2128
 7280TIP3   OH243254   2.140   2.626   5.987  0.1321 -0.0756 -0.3402
 7280TIP3    H143255   2.165   2.649   5.898  2.5025 -0.1202  0.2475
 7280TIP3    H243256   2.220   2.594   6.028 -0.6906  0.6305  2.0331
 7281TIP3   OH243257   0.951   3.986   0.131 -0.1832 -0.0885 -0.2585
 7281TIP3    H143258   0.881   3.968   0.194  0.3473 -0.1452  0.3253
 7281TIP3    H243259   0.951   3.910   0.073  0.1031 -0.6012  0.3993
 7282TIP3   OH243260   5.550   5.781   0.074 -0.3593  0.0358  0.1273
 7282TIP3    H143261   5.489   5.847   0.042  0.4530  0.4936 -0.4970
 7282TIP3    H243262   5.521   5.700   0.033 -0.9894  0.1062  0.4177
 7283TIP3   OH243263   4.544   4.011  15.514  0.5309  0.1442 -0.5460
 7283TIP3    H143264   4.611   3.946  15.492  0.6191  0.1057 -0.1624
 7283TIP3    H243265   4.473   3.993  15.452  1.5836  1.3383 -2.1616
 7284TIP3   OH243266   2.465   4.139  16.915  0.0478 -0.1456 -0.5909
 7284TIP3    H143267   2.485   4.096  16.998 -2.2407 -2.3286 -1.0674
 7284TIP3    H243268   2.461   4.068  16.851 -2.5768  0.8844 -1.6957
 7285TIP3   OH243269   6.167   5.288  11.514 -0.0696  0.2730  0.2072
 7285TIP3    H143270   6.219   5.209  11.527 -0.2569  0.1736  0.3800
 7285TIP3    H243271   6.202   5.351  11.578  0.3878  0.4882 -0.2551
 7286TIP3   OH243272   5.618   0.926   2.625  0.7986  0.0550  0.2891
 7286TIP3    H143273   5.609   0.858   2.691  1.7619 -1.6450 -1.2583
 7286TIP3    H243274   5.532   0.932   2.584  0.8239 -0.5371  0.1495
 7287TIP3   OH243275   4.910   0.719   5.782 -0.3412 -0.2681  0.4714
 7287TIP3    H143276   4.996   0.730   5.821  0.0279  0.8181 -0.5770
 7287TIP3    H243277   4.870   0.647   5.831  1.0999 -0.7050  1.0550
 7288TIP3   OH243278   0.377   0.301   4.790  0.5700 -0.5228 -0.6816
 7288TIP3    H143279   0.443   0.259   4.735  1.6685  0.1355  0.1186
 7288TIP3    H243280   0.350   0.378   4.740  1.7196  0.1897 -0.2132
 7289TIP3   OH243281   1.837   5.927  11.924 -0.0851 -0.7300 -0.6012
 7289TIP3    H143282   1.904   5.860  11.941  0.3673 -0.2105 -0.3221
 7289TIP3    H243283   1.886   6.009  11.917 -0.7049 -0.3232 -0.2327
 7290TIP3   OH243284   5.665   5.339   3.939  0.0678  0.1029  0.3057
 7290TIP3    H143285   5.699   5.258   3.900 -0.2777  0.3056 -0.4459
 7290TIP3    H243286   5.619   5.311   4.017 -0.3981 -0.4748 -0.1701
 7291TIP3   OH243287   1.943   0.790   1.444 -0.0982  0.0323  0.0380
 7291TIP3    H143288   1.892   0.847   1.387 -0.6323 -0.6898 -0.2252
 7291TIP3    H243289   1.959   0.712   1.391 -2.9566 -1.8658  1.6694
 7292TIP3   OH243290   5.868   4.827   4.515  0.6539  0.2348 -0.2199
 7292TIP3    H143291   5.851   4.914   4.551  2.4596 -0.3085  2.1977
 7292TIP3    H243292   5.810   4.769   4.563  0.9297 -0.1520 -0.3434
 7293TIP3   OH243293   1.262   5.865  11.189 -0.7255  0.4179 -0.0472
 7293TIP3    H143294   1.200   5.810  11.142  0.4148 -2.3375  1.4843
 7293TIP3    H243295   1.338   5.870  11.131 -1.3047  1.5593 -0.7511
 7294TIP3   OH243296   6.336   5.909  11.530 -0.4959  0.5855  0.3451
 7294TIP3    H143297   6.330   5.944  11.441  2.2176  0.2061 -0.0717
 7294TIP3    H243298   6.245   5.895  11.557 -1.6310  4.4160 -0.8317
 7295TIP3   OH243299   6.536   2.131  12.203  0.3777  0.1050  0.5463
 7295TIP3    H143300   6.459   2.086  12.239  0.5748 -0.9828 -0.3312
 7295TIP3    H243301   6.610   2.094  12.250  0.3957  1.0831  1.3219
 7296TIP3   OH243302   5.330   1.368   1.621  0.2757  0.0166  0.6459
 7296TIP3    H143303   5.325   1.456   1.584 -1.4487  1.2651  3.5000
 7296TIP3    H243304   5.241   1.333   1.612  0.2469 -0.3063  1.9164
 7297TIP3   OH243305   3.653   5.010  15.489 -0.8773 -0.0939 -0.2050
 7297TIP3    H143306   3.596   4.983  15.417  0.5886 -2.4819 -0.5550
 7297TIP3    H243307   3.647   4.939  15.553  2.1049 -0.7490 -0.5138
 7298TIP3   OH243308   2.696   0.864   0.390  0.4907 -0.6399 -0.0750
 7298TIP3    H143309   2.667   0.894   0.304  1.0649  1.4892  0.4164
 7298TIP3    H243310   2.688   0.941   0.446  1.2550 -1.6589  1.4991
 7299TIP3   OH243311   4.682   2.204   5.980 -0.8323 -0.2691  0.3452
 7299TIP3    H143312   4.652   2.260   6.052 -3.4924  1.1281 -1.6588
 7299TIP3    H243313   4.601   2.167   5.944  0.5570 -2.2277 -0.9231
 7300TIP3   OH243314   1.111   1.476  16.441 -0.7526  0.1416  0.6068
 7300TIP3    H143315   1.138   1.434  16.522  0.0480 -0.6223 -0.0369
 7300TIP3    H243316   1.160   1.558  16.439 -1.1356  0.3853  1.1179
 7301TIP3   OH243317   5.529   0.431   0.139 -0.1442 -0.6589  0.3177
 7301TIP3    H143318   5.455   0.395   0.091  0.4813 -1.5464 -0.0059
 7301TIP3    H243319   5.563   0.357   0.190  1.5929 -0.7510 -0.8950
 7302TIP3   OH243320   3.539   5.724  16.997  0.2067 -0.2228 -0.3960
 7302TIP3    H143321   3.557   5.632  17.019 -1.7719 -0.8542 -1.1804
 7302TIP3    H243322   3.444   5.733  17.008  0.3074  1.6429 -0.7229
 7303TIP3   OH243323   2.771   2.820  16.758  0.4801  0.3615  0.0335
 7303TIP3    H143324   2.831   2.894  16.771  1.0992 -0.1596  0.1696
 7303TIP3    H243325   2.807   2.750  16.811  0.3527 -0.2979 -0.7347
 7304TIP3   OH243326   3.035   0.549  13.684 -0.2043 -0.3202  0.0759
 7304TIP3    H143327   3.063   0.471  13.732 -2.0692 -0.0024  1.8363
 7304TIP3    H243328   3.109   0.610  13.693  1.0366 -1.6238 -0.8345
 7305TIP3   OH243329   0.900   3.606  13.452  0.0671 -0.1496  0.2867
 7305TIP3    H143330   0.845   3.683  13.438  1.6839  0.7902 -1.1902
 7305TIP3    H243331   0.951   3.626  13.531  2.6830  1.7483 -1.7118
 7306TIP3   OH243332   2.900   6.394   5.142  0.4027 -0.0508 -0.6787
 7306TIP3    H143333   2.931   6.303   5.144  0.1636 -0.1495 -1.1510
 7306TIP3    H243334   2.972   6.443   5.104  0.8674  0.1025  0.3842
 7307TIP3   OH243335   6.237   1.290  16.835 -0.0015 -0.8114 -0.2731
 7307TIP3    H143336   6.231   1.234  16.758 -0.4011 -0.9808 -0.1189
 7307TIP3    H243337   6.187   1.368  16.812  2.5561  0.5918 -1.4326
 7308TIP3   OH243338   3.273   5.995   5.015 -0.0973 -0.0501 -0.1140
 7308TIP3    H143339   3.325   5.937   4.959 -1.5158 -2.2733  0.7392
 7308TIP3    H243340   3.246   5.940   5.089 -1.5850  1.6981  0.7321
 7309TIP3   OH243341   3.753   0.275   2.987  0.0830  0.1141 -0.0962
 7309TIP3    H143342   3.844   0.246   2.983  0.0852  0.2181 -2.1333
 7309TIP3    H243343   3.702   0.197   2.963 -0.3827  0.0942  0.8879
 7310TIP3   OH243344   1.546   4.138  11.467 -0.0780  0.2364  0.0860
 7310TIP3    H143345   1.500   4.168  11.389  0.6409  1.2543  0.0415
 7310TIP3    H243346   1.495   4.173  11.540  1.1832  2.2878  0.0308
 7311TIP3   OH243347   2.772   3.071  15.266 -0.1936  0.5419  0.4678
 7311TIP3    H143348   2.748   3.026  15.347 -0.9553 -1.3705 -0.7464
 7311TIP3    H243349   2.865   3.089  15.274  0.0667 -0.9783  1.1818
 7312TIP3   OH243350   3.482   3.315   1.522  0.0504  0.1579 -0.0524
 7312TIP3    H143351   3.441   3.372   1.457 -0.1417 -0.6873 -0.6886
 7312TIP3    H243352   3.572   3.348   1.529  0.4677 -0.5195 -1.7193
 7313TIP3   OH243353   0.456   6.424   0.364 -0.4363  0.4750 -0.1630
 7313TIP3    H143354   0.484   6.348   0.416 -0.7623  1.9108  2.2395
 7313TIP3    H243355   0.370   6.446   0.400  0.2834  2.8657  0.2682
 7314TIP3   OH243356   4.728   6.590  16.171 -0.1821 -0.5983  1.0085
 7314TIP3    H143357   4.689   6.525  16.113  1.0598 -0.9213  0.5109
 7314TIP3    H243358   4.747   6.665  16.115  1.6013 -1.1490  0.8186
 7315TIP3   OH243359   3.175   1.368   5.857 -0.1805 -0.3488  0.4134
 7315TIP3    H143360   3.112   1.333   5.795  0.0698 -0.1862  0.0639
 7315TIP3    H243361   3.126   1.432   5.908  0.0260  0.7725 -0.7625
 7316TIP3   OH243362   0.071   1.831  14.334  0.3676 -0.0340  0.5606
 7316TIP3    H143363   0.026   1.887  14.397  0.2123  2.7702 -1.8628
 7316TIP3    H243364   0.012   1.824  14.259  0.4704 -3.4021  0.6046
 7317TIP3   OH243365   5.455   4.084   2.894  0.5978 -0.3979 -0.8004
 7317TIP3    H143366   5.473   3.992   2.911 -0.0283 -0.6422 -1.3942
 7317TIP3    H243367   5.384   4.106   2.954  0.4923 -0.4144 -0.9166
 7318TIP3   OH243368   5.673   2.843   4.308  0.0077 -0.0349 -0.8988
 7318TIP3    H143369   5.644   2.781   4.375  1.1759  2.0225  1.6995
 7318TIP3    H243370   5.600   2.849   4.247 -1.8995 -0.6752  1.2041
 7319TIP3   OH243371   2.574   0.618   4.858  0.0096  0.0502 -0.0188
 7319TIP3    H143372   2.614   0.705   4.865  0.7418 -0.3010  0.2877
 7319TIP3    H243373   2.512   0.614   4.930  0.7203 -0.0575  0.5982
 7320TIP3   OH243374   4.537   2.230   5.634 -0.4464 -0.3900 -0.0415
 7320TIP3    H143375   4.630   2.218   5.649 -0.0441  0.9455 -1.3109
 7320TIP3    H243376   4.502   2.252   5.721  0.4352 -0.7362  0.4154
 7321TIP3   OH243377   2.468   4.325   3.962  0.0918  0.4142 -0.6369
 7321TIP3    H143378   2.545   4.283   4.001 -0.3897 -1.1627 -1.2952
 7321TIP3    H243379   2.476   4.306   3.869 -1.9735 -1.3493 -0.5252
 7322TIP3   OH243380   3.332   4.739  13.501  0.5980 -0.3752  0.5276
 7322TIP3    H143381   3.358   4.731  13.409 -0.2059 -3.0218  0.4316
 7322TIP3    H243382   3.241   4.710  13.502 -0.2619  2.0873  1.8411
 7323TIP3   OH243383   4.972   2.030  12.816 -0.2896 -0.3416 -0.3987
 7323TIP3    H143384   5.007   2.000  12.733 -0.6158  0.5720 -0.8796
 7323TIP3    H243385   5.002   2.121  12.824 -0.5845 -0.2962  0.2924
 7324TIP3   OH243386   3.694   4.807  16.358  0.0705 -0.2795 -0.0774
 7324TIP3    H143387   3.615   4.757  16.333  0.5266 -1.4598  0.7310
 7324TIP3    H243388   3.764   4.741  16.359  1.1135  0.7773 -0.9172
 7325TIP3   OH243389   6.052   6.609  13.058  0.2123 -0.0165 -0.1403
 7325TIP3    H143390   6.015   6.550  13.124  1.0739  1.3462  1.6247
 7325TIP3    H243391   5.979   6.665  13.032 -0.2424 -0.8558 -0.7368
 7326TIP3   OH243392   0.975   5.338   3.374 -0.5162 -0.6205  0.8863
 7326TIP3    H143393   1.014   5.280   3.309  1.5719  1.2640  0.3467
 7326TIP3    H243394   0.888   5.359   3.339  0.1011 -0.5894 -0.7042
 7327TIP3   OH243395   3.453   2.952  13.027 -0.2546 -0.1239  0.8038
 7327TIP3    H143396   3.538   2.995  13.023 -0.6483  0.6450  0.4496
 7327TIP3    H243397   3.392   3.022  13.050 -1.4129  0.2858 -2.8650
 7328TIP3   OH243398   0.784   2.367   0.750 -0.4388  0.2707 -0.7140
 7328TIP3    H143399   0.827   2.406   0.675  0.5299  0.5449 -0.0337
 7328TIP3    H243400   0.842   2.386   0.824 -2.4436  2.0149  0.5300
 7329TIP3   OH243401   1.591   2.733   5.793  0.5581 -0.3283  0.6507
 7329TIP3    H143402   1.506   2.738   5.751  1.1400  1.5951 -0.4352
 7329TIP3    H243403   1.626   2.648   5.768 -0.0714 -0.1609 -0.8819
 7330TIP3   OH243404   1.773   0.299   5.225  0.1357 -0.0340  0.7956
 7330TIP3    H143405   1.714   0.318   5.298  1.3785 -0.0379  1.8320
 7330TIP3    H243406   1.829   0.375   5.218 -0.2431  0.1515 -0.4667
 7331TIP3   OH243407   5.127   5.582   4.361  0.3634 -0.6488 -0.0599
 7331TIP3    H143408   5.199   5.520   4.351  2.0444  1.5140 -2.7305
 7331TIP3    H243409   5.120   5.625   4.276 -3.2106  0.2568  0.5189
 7332TIP3   OH243410   5.504   4.787  10.812  0.6172  0.3443 -0.9927
 7332TIP3    H143411   5.499   4.724  10.740  1.3403 -1.6741  0.6351
 7332TIP3    H243412   5.440   4.855  10.789 -0.1252 -0.9161 -2.8680
 7333TIP3   OH243413   4.941   2.642  13.027 -0.5065  0.7058  0.1441
 7333TIP3    H143414   4.929   2.586  12.951  0.2272  0.1618  0.4168
 7333TIP3    H243415   5.015   2.698  13.005 -2.3028  2.8498 -0.8423
 7334TIP3   OH243416   3.436   0.725   3.157  0.1813  0.0810 -0.1728
 7334TIP3    H143417   3.375   0.655   3.135  1.4456 -1.7720  1.7569
 7334TIP3    H243418   3.507   0.717   3.093  1.1842 -1.6662  1.0710
 7335TIP3   OH243419   2.421   2.695  14.810  0.4431 -0.2707 -0.4653
 7335TIP3    H143420   2.461   2.712  14.725 -0.4794 -0.3405 -0.9275
 7335TIP3    H243421   2.415   2.600  14.816  1.4949 -0.3175  0.1671
 7336TIP3   OH243422   0.811   5.545  16.838 -0.2517 -0.0950  0.5627
 7336TIP3    H143423   0.810   5.633  16.874 -0.8565 -0.4385  1.4174
 7336TIP3    H243424   0.787   5.489  16.912 -0.2713 -0.9368 -0.0699
 7337TIP3   OH243425   6.542   2.227  10.538 -0.3869  0.0884 -0.4084
 7337TIP3    H143426   6.452   2.257  10.523 -1.0809 -2.0080 -0.6781
 7337TIP3    H243427   6.592   2.263  10.465 -0.8640  1.7385  0.0370
 7338TIP3   OH243428   2.656   0.047   6.013  0.2741  0.1108 -0.4654
 7338TIP3    H143429   2.630   0.013   6.099 -0.2144 -0.9761 -1.0265
 7338TIP3    H243430   2.651  -0.028   5.955 -1.2973  1.2221 -1.8610
 7339TIP3   OH243431   2.546   3.275  11.946 -0.6135  0.7246 -0.0296
 7339TIP3    H143432   2.494   3.337  11.998 -1.3847 -0.9895  1.3200
 7339TIP3    H243433   2.482   3.223  11.898  0.0568  1.3400 -1.6626
 7340TIP3   OH243434   6.527   4.944   2.105  0.0494 -0.5413 -0.4329
 7340TIP3    H143435   6.480   4.945   2.188  0.5476  0.2915 -0.1458
 7340TIP3    H243436   6.550   4.852   2.092  0.5392 -0.6011  0.6872
 7341TIP3   OH243437   5.898   1.106   2.624  0.4753  0.4285 -0.2736
 7341TIP3    H143438   5.844   1.032   2.596 -2.0794  1.5511  1.2655
 7341TIP3    H243439   5.974   1.066   2.666  0.2860 -1.2713 -1.4404
 7342TIP3   OH243440   2.725   6.383  12.272 -0.4629 -0.2986 -0.4750
 7342TIP3    H143441   2.818   6.368  12.288 -0.1361  1.0542 -0.9156
 7342TIP3    H243442   2.695   6.431  12.349 -0.4907  0.3216 -0.8637
 7343TIP3   OH243443   4.268   1.114   1.659 -0.0008  0.2313  0.3842
 7343TIP3    H143444   4.333   1.146   1.597 -0.6397  0.0885 -0.3600
 7343TIP3    H243445   4.209   1.060   1.607 -1.4642  1.3707  0.7983
 7344TIP3   OH243446   4.975   5.595   2.854 -0.1511 -0.7344 -0.1587
 7344TIP3    H143447   5.025   5.657   2.906 -1.7313 -0.6454  1.3529
 7344TIP3    H243448   5.040   5.549   2.801  1.2385  0.8999  0.0580
 7345TIP3   OH243449   2.558   5.732  11.654 -0.5950 -0.1968  0.8813
 7345TIP3    H143450   2.524   5.794  11.719  1.6511  2.5295 -0.3494
 7345TIP3    H243451   2.652   5.744  11.656 -0.3064 -1.4737 -1.4990
 7346TIP3   OH243452   0.430   4.104  11.949 -0.3210 -0.0450  0.0567
 7346TIP3    H143453   0.387   4.182  11.985  0.9842  1.4767 -1.4886
 7346TIP3    H243454   0.421   4.038  12.017 -2.3856  1.1215  1.0155
 7347TIP3   OH243455   3.028   1.664  16.240 -0.6390  0.4255 -0.2127
 7347TIP3    H143456   3.025   1.568  16.235 -1.9588  0.2652  2.2077
 7347TIP3    H243457   3.112   1.684  16.281 -1.5066  0.0884  1.8128
 7348TIP3   OH243458   1.015   2.803   2.793  0.3119 -0.3724 -0.2409
 7348TIP3    H143459   1.014   2.876   2.855  0.0409 -1.1831  0.7285
 7348TIP3    H243460   0.945   2.824   2.731  0.6238  0.4741 -0.3282
 7349TIP3   OH243461   5.047   2.076   5.759 -0.6584  0.5342  0.3038
 7349TIP3    H143462   4.962   2.060   5.799 -0.7692  1.0360  0.2811
 7349TIP3    H243463   5.107   2.016   5.804 -1.2143 -0.5948 -0.4241
 7350TIP3   OH243464   4.232   5.864   0.557 -0.5616 -0.1192  0.3223
 7350TIP3    H143465   4.204   5.796   0.618  1.0911 -1.0250  0.1438
 7350TIP3    H243466   4.255   5.817   0.477 -2.3994  1.0172 -0.9615
 7351TIP3   OH243467   4.078   2.165   5.136  0.2312  0.0758 -0.2666
 7351TIP3    H143468   4.122   2.222   5.073  2.0159  0.5019  1.2848
 7351TIP3    H243469   3.989   2.154   5.101  0.8051  1.2339 -2.2126
 7352TIP3   OH243470   5.873   3.619  15.060  0.0899 -0.6515 -0.3100
 7352TIP3    H143471   5.961   3.589  15.039  0.9727  0.6908  1.2618
 7352TIP3    H243472   5.844   3.559  15.130  0.6004  0.1347  0.6040
 7353TIP3   OH243473   6.473   5.953   1.775 -0.6118 -0.0071 -0.2845
 7353TIP3    H143474   6.552   5.926   1.729  2.3799 -0.1062  4.3032
 7353TIP3    H243475   6.439   5.872   1.814 -0.9506  0.5558  0.6064
 7354TIP3   OH243476   6.338   3.213  14.728 -0.0610  0.8593  0.3916
 7354TIP3    H143477   6.251   3.180  14.751  0.6950 -0.8410  0.9706
 7354TIP3    H243478   6.397   3.171  14.791  1.7183 -1.6075 -2.6396
 7355TIP3   OH243479   5.754   2.696   1.979 -0.0167  0.1346 -0.2862
 7355TIP3    H143480   5.709   2.659   2.054  0.6156 -0.1305 -0.0245
 7355TIP3    H243481   5.830   2.639   1.967  0.0239  0.3225 -0.9703
 7356TIP3   OH243482   4.108   0.516  16.186 -0.6159  0.3281 -0.3278
 7356TIP3    H143483   4.098   0.421  16.194  0.8151  0.1005 -0.8347
 7356TIP3    H243484   4.022   0.548  16.160 -0.6399 -1.0861 -2.1728
 7357TIP3   OH243485   2.481   4.764  10.527  0.8073 -0.8590 -0.5021
 7357TIP3    H143486   2.408   4.824  10.512 -0.8613 -3.0430 -1.6087
 7357TIP3    H243487   2.450   4.703  10.593  1.7480 -1.6669 -0.7820
 7358TIP3   OH243488   1.424   5.004   1.731 -0.0664 -0.2859  0.0819
 7358TIP3    H143489   1.359   5.074   1.720  0.7427  0.2442 -1.5265
 7358TIP3    H243490   1.395   4.935   1.671 -0.7482 -1.3048  1.5124
 7359TIP3   OH243491   2.935   1.241   5.750  0.0865 -0.3182 -0.3271
 7359TIP3    H143492   2.851   1.279   5.773 -0.4756 -1.2911 -0.6873
 7359TIP3    H243493   2.915   1.149   5.729  1.1432 -0.4260 -0.9654
 7360TIP3   OH243494   4.515   0.779   2.698  0.0124  0.0823  0.1013
 7360TIP3    H143495   4.427   0.796   2.664 -0.1702 -2.2566 -0.7884
 7360TIP3    H243496   4.571   0.776   2.621  0.3874 -0.9778  0.3981
 7361TIP3   OH243497   5.008   2.662   4.476  0.6170 -0.9955  0.3337
 7361TIP3    H143498   4.938   2.676   4.412 -0.4254  0.4253  1.7177
 7361TIP3    H243499   5.076   2.725   4.452  0.3035 -0.5879  0.5099
 7362TIP3   OH243500   6.669   0.150  13.419 -0.0505  0.5332  0.0159
 7362TIP3    H143501   6.739   0.176  13.358  0.8494  2.6300  1.8201
 7362TIP3    H243502   6.589   0.160  13.368  0.8025  0.0665 -1.4811
 7363TIP3   OH243503   2.100   1.456  15.664  0.1970 -0.1075 -0.0524
 7363TIP3    H143504   2.130   1.542  15.696 -1.7545  0.6382 -0.1151
 7363TIP3    H243505   2.037   1.477  15.595 -1.3284 -1.5505  0.8481
 7364TIP3   OH243506   4.369   3.053   4.169  0.4114  0.3832  0.5305
 7364TIP3    H143507   4.290   3.081   4.215  0.3640  2.4957 -0.6914
 7364TIP3    H243508   4.435   3.118   4.192  0.8405  0.5453 -1.0138
 7365TIP3   OH243509   6.599   1.945  13.532  0.1353  0.1934 -0.0746
 7365TIP3    H143510   6.591   1.923  13.439 -0.7842 -0.4635  0.1422
 7365TIP3    H243511   6.670   1.889  13.563 -1.2227 -1.5004  0.1455
 7366TIP3   OH243512   1.691   0.962  16.120 -0.3349  0.4469  0.1861
 7366TIP3    H143513   1.625   0.950  16.189 -0.0306  1.7555  0.7368
 7366TIP3    H243514   1.754   1.023  16.158 -0.5272  1.7534 -1.5048
 7367TIP3   OH243515   5.763   2.473   0.124  0.2897 -0.2481 -0.0176
 7367TIP3    H143516   5.759   2.466   0.219 -0.1799 -1.6950 -0.1245
 7367TIP3    H243517   5.857   2.472   0.104  0.3650 -2.2320  0.3026
 7368TIP3   OH243518   5.387   1.110  13.581 -0.0867  0.9605  0.3648
 7368TIP3    H143519   5.457   1.118  13.646 -0.3383  1.0031  0.6298
 7368TIP3    H243520   5.430   1.130  13.498 -0.3088  3.6094  0.7874
 7369TIP3   OH243521   6.534   2.419  16.567 -0.1228  0.3746 -0.7455
 7369TIP3    H143522   6.610   2.362  16.580 -1.6944 -1.6100  0.3950
 7369TIP3    H243523   6.524   2.464  16.651 -0.5876  0.1429 -0.6787
 7370TIP3   OH243524   2.909   0.798  13.961  0.0085 -0.0283 -0.2207
 7370TIP3    H143525   2.906   0.812  14.056 -1.0700 -0.6114 -0.1582
 7370TIP3    H243526   2.973   0.728  13.949 -1.2668 -1.3201  0.2692
 7371TIP3   OH243527   5.666   1.440   3.012 -0.3893 -0.4055  0.0783
 7371TIP3    H143528   5.606   1.509   2.987  2.4069  1.8885 -0.8927
 7371TIP3    H243529   5.611   1.362   3.024 -3.7463  1.9501  1.4461
 7372TIP3   OH243530   5.412   2.748   0.230 -0.3444  0.0068  0.3240
 7372TIP3    H143531   5.364   2.830   0.244 -1.5859 -0.2348 -2.0230
 7372TIP3    H243532   5.504   2.775   0.222 -0.8419  1.3581 -1.4534
 7373TIP3   OH243533   2.123   0.332   2.908  0.2076  0.2714 -0.5165
 7373TIP3    H143534   2.190   0.385   2.952  0.4526 -1.2136  0.9946
 7373TIP3    H243535   2.059   0.313   2.976  0.2736 -1.5848 -0.9175
 7374TIP3   OH243536   1.450   0.140  15.399 -0.4781  0.2304 -0.7728
 7374TIP3    H143537   1.514   0.188  15.451 -1.5853  1.5605 -0.5832
 7374TIP3    H243538   1.466   0.167  15.309  0.2524 -0.6736 -0.9256
 7375TIP3   OH243539   2.542   0.443  16.494  0.8268  0.5363  0.3093
 7375TIP3    H143540   2.625   0.406  16.525  0.4216 -0.9208 -0.2350
 7375TIP3    H243541   2.557   0.537  16.491  2.5741  0.2836 -0.1010
 7376TIP3   OH243542   3.711   3.882  10.597 -0.1912 -0.1719 -0.9117
 7376TIP3    H143543   3.690   3.899  10.506 -0.7510  0.5896 -0.6537
 7376TIP3    H243544   3.700   3.787  10.608 -1.1685 -0.1132 -1.3713
 7377TIP3   OH243545   5.991   3.112  11.387 -0.4798 -0.0308  0.4270
 7377TIP3    H143546   6.064   3.072  11.340  0.1007  0.2342  1.0802
 7377TIP3    H243547   5.979   3.197  11.346 -1.4251 -0.6665 -0.6748
 7378TIP3   OH243548   1.996   6.456  16.457  0.6334 -0.4485 -0.1777
 7378TIP3    H143549   2.034   6.533  16.415 -1.0763  0.2885 -0.4610
 7378TIP3    H243550   1.909   6.484  16.485 -0.0819 -2.2996 -0.3905
 7379TIP3   OH243551   1.895   5.647  12.557  0.5009 -0.0341  0.3761
 7379TIP3    H143552   1.969   5.603  12.599 -0.6026 -0.6836  1.6925
 7379TIP3    H243553   1.843   5.681  12.629 -0.9240 -0.3040 -0.4925
 7380TIP3   OH243554   3.977   0.703  13.540 -0.6282  0.4070  0.2495
 7380TIP3    H143555   3.885   0.714  13.515 -1.0050  1.1188  1.8239
 7380TIP3    H243556   4.005   0.623  13.494 -2.2305 -0.1994  0.2652
 7381TIP3   OH243557   6.637   5.662  11.736  0.1137  0.1916  0.5054
 7381TIP3    H143558   6.612   5.585  11.786  0.2533 -0.8774 -1.0085
 7381TIP3    H243559   6.559   5.687  11.687  0.3093  0.4928  0.3364
 7382TIP3   OH243560   4.115   0.268  15.582  0.1935  0.3361  0.0006
 7382TIP3    H143561   4.039   0.232  15.537 -0.1494 -0.5185  1.2228
 7382TIP3    H243562   4.190   0.239  15.530 -0.1748 -0.8593  0.1101
 7383TIP3   OH243563   5.776   4.618  11.049 -0.8102 -0.3605  0.2484
 7383TIP3    H143564   5.831   4.551  11.008  0.6364  0.7818  0.2397
 7383TIP3    H243565   5.785   4.694  10.991 -2.8057 -0.2702 -0.0051
 7384TIP3   OH243566   1.591   3.870  16.148 -0.0714  0.5893 -0.1788
 7384TIP3    H143567   1.670   3.829  16.184 -0.0099 -1.4518 -2.3557
 7384TIP3    H243568   1.622   3.919  16.072 -0.5452  2.4714  0.7887
 7385TIP3   OH243569   3.404   0.660   5.039  0.1572  0.8933 -0.3461
 7385TIP3    H143570   3.313   0.659   5.009 -0.4928  1.2214  1.5312
 7385TIP3    H243571   3.445   0.732   4.990 -0.1332 -0.2054 -2.3354
 7386TIP3   OH243572   4.541   6.005  13.713 -0.2516  0.4390  0.0101
 7386TIP3    H143573   4.544   5.920  13.757 -1.4298  0.6615  0.5493
 7386TIP3    H243574   4.557   5.984  13.621  1.1371 -0.1578  0.3535
 7387TIP3   OH243575   6.639   4.846   3.413  0.3753 -0.5287 -0.0753
 7387TIP3    H143576   6.716   4.848   3.470  0.2930  0.4703  0.0119
 7387TIP3    H243577   6.574   4.797   3.463  0.7397 -0.8064  0.1332
 7388TIP3   OH243578   2.628   2.363  15.564  0.9090  0.1750 -0.5128
 7388TIP3    H143579   2.572   2.426  15.609  0.0183 -0.2781 -0.9724
 7388TIP3    H243580   2.629   2.286  15.620  2.2155  0.6754  0.1803
 7389TIP3   OH243581   1.908   2.353   1.678 -0.1997 -0.3943  0.2734
 7389TIP3    H143582   1.879   2.403   1.602 -2.8969  0.8609  1.9778
 7389TIP3    H243583   1.829   2.308   1.710  0.5437 -0.0093  2.9228
 7390TIP3   OH243584   0.269   2.806  14.039 -0.3366 -0.0978 -0.5160
 7390TIP3    H143585   0.238   2.846  14.120  0.2784  2.1565 -1.3265
 7390TIP3    H243586   0.191   2.798  13.984 -0.7603 -1.6598  0.2590
 7391TIP3   OH243587   4.036   5.457   3.875  0.1596 -0.2921  0.5833
 7391TIP3    H143588   4.027   5.504   3.958  0.1202  0.2157  0.2956
 7391TIP3    H243589   4.131   5.448   3.863  0.1961  0.4341  0.2494
 7392TIP3   OH243590   0.412   0.307  12.328  0.0137 -0.3419  0.7909
 7392TIP3    H143591   0.447   0.396  12.336  0.7941 -0.5781  0.1777
 7392TIP3    H243592   0.390   0.282  12.417 -2.4991  1.3373  0.7406
 7393TIP3   OH243593   6.435   2.454   3.613  0.8168  0.2836 -0.0971
 7393TIP3    H143594   6.509   2.483   3.560 -1.1254  1.9309 -2.1176
 7393TIP3    H243595   6.395   2.534   3.646 -0.7516 -0.4609 -0.0553
 7394TIP3   OH243596   2.848   1.227   2.246 -0.2309 -0.2620  0.2133
 7394TIP3    H143597   2.936   1.263   2.251 -0.6283  1.0025 -1.2038
 7394TIP3    H243598   2.791   1.295   2.283 -0.9672  0.6092 -2.3176
 7395TIP3   OH243599   1.751   0.376  11.710  0.1422  0.2088  0.2911
 7395TIP3    H143600   1.789   0.388  11.623  1.8798 -1.3614  0.7710
 7395TIP3    H243601   1.796   0.441  11.764  1.8684 -1.2643  0.7352
 7396TIP3   OH243602   2.308   0.844   1.667  0.0017 -0.8196  0.5028
 7396TIP3    H143603   2.274   0.862   1.580 -2.1511 -2.8066  0.8428
 7396TIP3    H243604   2.232   0.852   1.725  1.1524 -0.6006  2.0810
 7397TIP3   OH243605   2.311   2.445  11.279 -0.2025 -0.5369 -0.2967
 7397TIP3    H143606   2.338   2.507  11.211  0.4897 -0.0259  0.4250
 7397TIP3    H243607   2.239   2.490  11.325  1.7109  0.7491  1.6312
 7398TIP3   OH243608   6.034   1.114   2.083 -0.1542 -0.4721 -0.3295
 7398TIP3    H143609   6.084   1.118   2.164 -0.3477  0.3568 -0.2406
 7398TIP3    H243610   6.058   1.031   2.043  0.5967 -0.4899  0.1577
 7399TIP3   OH243611   5.546   2.792  15.283  0.2080  0.0823  0.1500
 7399TIP3    H143612   5.636   2.824  15.290  0.6104 -1.0401  0.2675
 7399TIP3    H243613   5.534   2.772  15.191 -0.0675  0.6235  0.0644
 7400TIP3   OH243614   6.423   2.476   1.269 -0.3390 -0.0099  0.1733
 7400TIP3    H143615   6.370   2.427   1.207  1.3313 -0.9030 -0.6352
 7400TIP3    H243616   6.422   2.424   1.349  2.4535 -2.2554 -1.0500
 7401TIP3   OH243617   6.662   5.583   3.318  0.0041  0.1468  0.0780
 7401TIP3    H143618   6.638   5.645   3.250  0.2454  1.7695  1.3999
 7401TIP3    H243619   6.584   5.577   3.374  0.4629  0.4067  0.7613
 7402TIP3   OH243620   0.803   0.295   4.864  0.1684 -0.0997  0.2641
 7402TIP3    H143621   0.767   0.373   4.906 -1.7264  0.4081 -2.0863
 7402TIP3    H243622   0.740   0.274   4.795  1.1842 -3.0812  0.1035
 7403TIP3   OH243623   3.691   2.686  12.212  0.0199  0.4376 -0.0217
 7403TIP3    H143624   3.762   2.656  12.155  0.8844  1.9780  0.2047
 7403TIP3    H243625   3.718   2.658  12.299  0.4035  1.0941  0.0751
 7404TIP3   OH243626   5.338   5.311   6.031  0.1403 -0.2275  0.3021
 7404TIP3    H143627   5.271   5.365   5.988  1.7244  1.4368 -0.1891
 7404TIP3    H243628   5.331   5.334   6.124  0.0795  0.0059  0.2408
 7405TIP3   OH243629   1.463   6.173   2.596  0.7280 -0.2681 -0.1862
 7405TIP3    H143630   1.546   6.213   2.623  0.3864  0.6449 -0.4420
 7405TIP3    H243631   1.476   6.151   2.504  1.2222 -1.5982  0.1774
 7406TIP3   OH243632   6.759   4.947   2.458  0.2001  0.3473 -0.0074
 7406TIP3    H143633   6.829   5.006   2.485  0.9865 -0.4763 -0.1913
 7406TIP3    H243634   6.780   4.863   2.499 -1.6712  0.5152  1.4497
 7407TIP3   OH243635   0.916   3.543  12.504  0.2468  0.1264 -0.1367
 7407TIP3    H143636   0.916   3.447  12.505  0.3974  0.0906  2.2414
 7407TIP3    H243637   1.003   3.567  12.537 -0.8943  0.9633  2.5776
 7408TIP3   OH243638   6.115   3.949  16.936  0.9724 -0.4425 -0.1433
 7408TIP3    H143639   6.082   3.890  16.868 -0.6759  0.0564  0.1624
 7408TIP3    H243640   6.052   4.022  16.936  0.5329 -0.7450  2.3537
 7409TIP3   OH243641   0.482   2.854  15.767 -0.2545 -0.3643  0.7456
 7409TIP3    H143642   0.400   2.887  15.730 -0.7665 -0.1417  2.0351
 7409TIP3    H243643   0.482   2.884  15.858  1.7052  0.4425  0.5306
 7410TIP3   OH243644   6.586   3.635   0.209  0.2351 -0.1395  0.5495
 7410TIP3    H143645   6.577   3.712   0.154 -1.8550 -0.9364 -0.3295
 7410TIP3    H243646   6.660   3.587   0.171  2.0220  1.6479  1.5257
 7411TIP3   OH243647   3.492   1.172   3.616  0.1835  0.0824  0.2754
 7411TIP3    H143648   3.451   1.245   3.661 -0.4195 -0.3440  0.4344
 7411TIP3    H243649   3.481   1.192   3.523 -0.7721 -0.2262  0.3114
 7412TIP3   OH243650   5.499   1.144  10.576  0.0423  0.2045 -0.0425
 7412TIP3    H143651   5.467   1.174  10.662 -1.9634  0.1377 -0.7244
 7412TIP3    H243652   5.509   1.050  10.586  1.3768  0.3727  0.5531
 7413TIP3   OH243653   2.482   0.431   0.662 -0.4460  0.0499 -0.6724
 7413TIP3    H143654   2.533   0.368   0.611 -0.5562  0.0100 -0.7328
 7413TIP3    H243655   2.396   0.432   0.620 -0.8508 -0.7096  0.0967
 7414TIP3   OH243656   5.800   0.223  14.490 -0.1600 -0.2266 -0.5595
 7414TIP3    H143657   5.768   0.136  14.466  0.9186 -0.8268  0.1272
 7414TIP3    H243658   5.875   0.207  14.546 -0.9449  1.1421  0.9794
 7415TIP3   OH243659   1.388   1.897   5.087 -0.0274  0.1815 -0.6004
 7415TIP3    H143660   1.326   1.849   5.033 -0.2451  0.6790 -0.8056
 7415TIP3    H243661   1.355   1.887   5.176  0.1679 -0.3930 -0.5870
 7416TIP3   OH243662   0.819   1.503   4.358  0.4399 -0.5933  0.4077
 7416TIP3    H143663   0.862   1.583   4.386  1.2178 -0.6773 -0.5170
 7416TIP3    H243664   0.734   1.532   4.323  1.9065  0.2553 -2.7932
 7417TIP3   OH243665   1.681   0.863  13.836  0.0255  0.1881  0.2124
 7417TIP3    H143666   1.725   0.891  13.917  0.0427 -0.5599  0.4679
 7417TIP3    H243667   1.620   0.934  13.816  0.3469  0.5863  0.6364
 7418TIP3   OH243668   4.477   5.497  16.150 -0.0601 -0.2364 -0.2197
 7418TIP3    H143669   4.451   5.485  16.242  1.5884  1.3062  0.4969
 7418TIP3    H243670   4.535   5.423  16.132  0.2048 -0.1355  0.2141
 7419TIP3   OH243671   6.389   1.694  13.428 -0.9610 -0.0630 -0.2741
 7419TIP3    H143672   6.340   1.618  13.398 -1.3749  0.3765 -0.7379
 7419TIP3    H243673   6.411   1.742  13.348  0.2979 -0.2858 -0.0787
 7420TIP3   OH243674   4.268   4.122   5.450  0.1405 -0.1821  0.1705
 7420TIP3    H143675   4.338   4.057   5.442 -0.6356 -0.9776 -0.4425
 7420TIP3    H243676   4.222   4.118   5.366 -1.3544 -0.5347  0.9618
 7421TIP3   OH243677   6.314   1.048   1.219 -0.4018 -0.2316  0.3639
 7421TIP3    H143678   6.263   0.972   1.246 -0.6348  0.5321  2.2565
 7421TIP3    H243679   6.250   1.120   1.219  0.4447  0.5574  1.8317
 7422TIP3   OH243680   0.384   2.900   2.938 -0.6129 -0.0551 -0.2873
 7422TIP3    H143681   0.345   2.834   2.995 -2.2490  1.0029 -0.1259
 7422TIP3    H243682   0.442   2.950   2.996 -0.1661 -0.6766 -0.1852
 7423TIP3   OH243683   6.493   0.593  17.051  0.1448 -0.3923 -0.0412
 7423TIP3    H143684   6.447   0.600  16.967 -0.9610 -3.5181  0.1725
 7423TIP3    H243685   6.541   0.511  17.045  1.1873  0.0308  1.8975
 7424TIP3   OH243686   0.791   4.955   2.541  0.3783  0.7918 -0.0715
 7424TIP3    H143687   0.749   5.037   2.566 -0.2902 -0.0595  1.8377
 7424TIP3    H243688   0.726   4.910   2.487  1.2823  2.0471 -2.3308
 7425TIP3   OH243689   2.842   1.414   2.836 -0.0667 -0.0905  0.1335
 7425TIP3    H143690   2.807   1.502   2.847 -1.7917 -0.9865  2.6324
 7425TIP3    H243691   2.766   1.358   2.823  0.9515 -1.3102 -0.9094
 7426TIP3   OH243692   1.518   5.337   4.353  0.5867 -0.5243  0.1494
 7426TIP3    H143693   1.554   5.351   4.440 -2.1296 -2.5596  1.7879
 7426TIP3    H243694   1.505   5.425   4.317 -0.0787  0.4886  2.6837
 7427TIP3   OH243695   3.430   0.736   3.422  0.0495  0.4979 -0.0182
 7427TIP3    H143696   3.428   0.708   3.330 -0.1802 -0.5514  0.2897
 7427TIP3    H243697   3.382   0.818   3.423  0.0466  0.5168 -0.8407
 7428TIP3   OH243698   0.227   4.971   4.260  0.6721  0.3363 -0.4613
 7428TIP3    H143699   0.278   4.916   4.200 -0.6673 -0.3273 -1.0277
 7428TIP3    H243700   0.276   4.969   4.342  0.7307 -1.6251 -0.5053
 7429TIP3   OH243701   5.591   5.835  16.452 -0.0162 -0.2413 -0.2941
 7429TIP3    H143702   5.619   5.861  16.365  1.0295  0.1276  0.1312
 7429TIP3    H243703   5.648   5.761  16.475 -0.5873 -0.6320 -0.0924
 7430TIP3   OH243704   2.872   1.896  13.673 -0.5138  1.0229  0.1838
 7430TIP3    H143705   2.804   1.876  13.608 -0.6698 -0.8176  0.8398
 7430TIP3    H243706   2.898   1.986  13.654 -1.4417  0.9610 -1.6121
 7431TIP3   OH243707   1.400   1.223   5.191  0.6271  0.5677 -0.0663
 7431TIP3    H143708   1.447   1.262   5.117 -0.2101  1.9401  0.0925
 7431TIP3    H243709   1.435   1.133   5.196  1.6773  0.8654 -1.2591
 7432TIP3   OH243710   4.379   0.950   3.897  0.4609  1.0289  0.0331
 7432TIP3    H143711   4.427   0.973   3.977  2.0108  1.1185 -0.8748
 7432TIP3    H243712   4.381   1.030   3.844  0.1431  0.7400 -0.4253
 7433TIP3   OH243713   1.538   1.323  10.543 -0.0360  0.6235 -0.0609
 7433TIP3    H143714   1.452   1.355  10.568 -0.8485 -0.4916 -1.3351
 7433TIP3    H243715   1.559   1.256  10.608 -0.8431 -0.2101 -0.6393
 7434TIP3   OH243716   4.646   2.364   6.529 -0.4325 -0.6096  0.9037
 7434TIP3    H143717   4.719   2.338   6.585  0.2669 -0.1336  0.2302
 7434TIP3    H243718   4.633   2.457   6.550 -0.7643 -0.6585  0.9241
 7435TIP3   OH243719   4.162   2.569  11.714  0.4097 -0.0373 -0.0283
 7435TIP3    H143720   4.148   2.630  11.787 -1.3415 -0.6695  0.2259
 7435TIP3    H243721   4.207   2.620  11.648  1.4957  0.7333  1.2541
 7436TIP3   OH243722   3.514   1.242  10.747 -0.1290 -0.2788  0.1333
 7436TIP3    H143723   3.566   1.164  10.769  0.4526  0.1411  0.2835
 7436TIP3    H243724   3.565   1.315  10.784 -0.3887  0.2178 -0.4840
 7437TIP3   OH243725   6.784   5.252  14.549 -0.5711  0.0887  0.4445
 7437TIP3    H143726   6.803   5.159  14.535 -1.1587  0.0330 -0.0238
 7437TIP3    H243727   6.799   5.267  14.642 -3.7570 -1.2865  1.3095
 7438TIP3   OH243728   1.658   2.018   3.308  0.0499 -0.8372 -0.2002
 7438TIP3    H143729   1.727   1.983   3.250 -0.1136 -1.2142 -0.1707
 7438TIP3    H243730   1.689   2.105   3.331  0.9414 -1.3162  0.4942
 7439TIP3   OH243731   0.656   1.841   2.967 -0.1866  0.2203  0.0736
 7439TIP3    H143732   0.613   1.761   2.997  0.7846 -0.7598 -1.0040
 7439TIP3    H243733   0.589   1.909   2.972 -1.3118 -0.8642  0.1278
 7440TIP3   OH243734   1.869   2.375   0.775 -0.3628 -0.1276 -0.0924
 7440TIP3    H143735   1.910   2.457   0.801 -1.5340  0.3851  0.1962
 7440TIP3    H243736   1.909   2.353   0.691 -2.7742  2.8481 -2.2485
 7441TIP3   OH243737   3.748   1.233   4.111  0.0222  0.6930  1.0883
 7441TIP3    H143738   3.808   1.162   4.088  0.1386  0.9877  0.4433
 7441TIP3    H243739   3.717   1.212   4.198 -1.2043 -1.0031  0.2895
 7442TIP3   OH243740   5.137   6.028   0.918 -0.1000 -0.1901 -0.2612
 7442TIP3    H143741   5.113   6.120   0.929  0.4518 -0.1264  0.4924
 7442TIP3    H243742   5.233   6.028   0.920 -0.0740 -0.7066 -0.9271
 7443TIP3   OH243743   5.886   4.354   4.327  0.1787 -0.4188 -0.3218
 7443TIP3    H143744   5.855   4.320   4.242  0.4085  0.4206 -0.7544
 7443TIP3    H243745   5.817   4.415   4.354  0.3909 -0.2308 -0.2038
 7444TIP3   OH243746   0.834   1.983  13.209  0.3191 -0.4804 -0.1806
 7444TIP3    H143747   0.899   1.964  13.141 -0.7198  0.0434 -1.3665
 7444TIP3    H243748   0.772   1.910  13.203  1.0715 -1.3107  1.3723
 7445TIP3   OH243749   1.151   1.402  15.330 -0.1197  0.1273 -0.2630
 7445TIP3    H143750   1.193   1.414  15.415 -0.2124  1.2028 -0.3495
 7445TIP3    H243751   1.131   1.491  15.300 -2.0620 -0.3061 -0.4275
 7446TIP3   OH243752   2.101   6.751   6.883 -0.1388  0.0425  0.6541
 7446TIP3    H143753   2.114   6.705   6.966 -0.3316 -0.4400  0.4244
 7446TIP3    H243754   2.055   6.831   6.907  0.8498  0.4735  1.1452
 7447TIP3   OH243755   5.478   5.970   2.871  0.0214  0.7630 -0.1133
 7447TIP3    H143756   5.553   6.016   2.834 -0.8334  1.9996 -0.3796
 7447TIP3    H243757   5.464   6.012   2.956  0.5614 -0.5152  0.6444
 7448TIP3   OH243758   1.622   6.006   1.920  0.3391  0.1445  0.0220
 7448TIP3    H143759   1.711   6.007   1.957  0.5412 -1.4689 -0.3274
 7448TIP3    H243760   1.632   6.045   1.833  0.1636  2.4530  0.9655
 7449TIP3   OH243761   2.586   0.379   5.489 -0.2518 -0.4751  0.1046
 7449TIP3    H143762   2.640   0.455   5.467 -2.4911  0.8010 -1.5082
 7449TIP3    H243763   2.545   0.402   5.573 -0.2947 -0.2497  0.0234
 7450TIP3   OH243764   3.327   2.490  15.115 -0.2571  0.3659 -0.1671
 7450TIP3    H143765   3.298   2.418  15.171  0.0568 -1.4113 -2.1495
 7450TIP3    H243766   3.246   2.534  15.088 -0.3951  1.4902  1.8653
 7451TIP3   OH243767   3.276   4.439   0.886  0.1099  0.0744 -0.6943
 7451TIP3    H143768   3.231   4.361   0.853 -1.8067  0.9587 -0.3046
 7451TIP3    H243769   3.218   4.511   0.863  2.0766  1.4659 -1.4696
 7452TIP3   OH243770   4.173   3.921   1.462 -0.0354 -0.5662  0.4832
 7452TIP3    H143771   4.244   3.857   1.453 -0.1300 -0.5404 -0.5419
 7452TIP3    H243772   4.210   4.003   1.429 -0.9345 -0.8470 -1.3340
 7453TIP3   OH243773   6.023   6.260  16.838  0.9758 -0.1883 -0.3250
 7453TIP3    H143774   6.027   6.165  16.827  1.1644 -0.3983  1.2957
 7453TIP3    H243775   6.050   6.295  16.754 -0.0313 -1.5632 -1.2637
 7454TIP3   OH243776   1.520   3.880  11.624 -0.0484  0.0450 -0.4540
 7454TIP3    H143777   1.493   3.946  11.560  0.0509 -0.0306 -0.5738
 7454TIP3    H243778   1.569   3.930  11.690  0.3762  0.0326 -0.7545
 7455TIP3   OH243779   2.257   3.380   1.099  0.1816  0.3330 -0.1798
 7455TIP3    H143780   2.306   3.462   1.092  0.0425  0.3873 -0.5506
 7455TIP3    H243781   2.281   3.345   1.184  0.4974  0.5955 -0.1588
 7456TIP3   OH243782   2.837   5.340   0.903 -0.4199  0.3860 -0.3146
 7456TIP3    H143783   2.762   5.288   0.875 -2.2537  1.8020  1.5791
 7456TIP3    H243784   2.810   5.431   0.887 -0.2046  1.0704  2.6578
 7457TIP3   OH243785   1.736   6.380   2.788  0.0752  0.5143 -0.2545
 7457TIP3    H143786   1.718   6.308   2.728  3.4760 -0.5208 -0.2178
 7457TIP3    H243787   1.710   6.346   2.874 -1.4324  0.6471 -0.6321
 7458TIP3   OH243788   0.165   5.520   4.407  0.3982  0.2051 -0.5342
 7458TIP3    H143789   0.123   5.521   4.321  0.3088 -2.2416 -0.5859
 7458TIP3    H243790   0.122   5.448   4.454  2.3496 -0.3379  0.5402
 7459TIP3   OH243791   1.806   1.598  15.063  0.2682  0.2418  0.5287
 7459TIP3    H143792   1.741   1.529  15.057  1.2158 -0.6674  0.5043
 7459TIP3    H243793   1.792   1.637  15.149 -0.5870  0.3657  0.3465
 7460TIP3   OH243794   5.057   0.654  11.986 -0.2102  0.2215  0.3561
 7460TIP3    H143795   5.023   0.661  12.075 -1.0927  0.4538  0.0132
 7460TIP3    H243796   4.988   0.610  11.937  0.6246 -0.6803 -0.0361
 7461TIP3   OH243797   2.303   0.702  13.936 -0.3869 -0.0177  0.2215
 7461TIP3    H143798   2.397   0.714  13.949  0.0237 -1.7731 -0.7436
 7461TIP3    H243799   2.292   0.702  13.841 -1.6992  2.1765  0.3287
 7462TIP3   OH243800   3.919   3.465   1.681  0.7729  0.4837 -0.1351
 7462TIP3    H143801   4.007   3.444   1.711  0.5814 -0.1708 -0.0125
 7462TIP3    H243802   3.925   3.555   1.648  1.1905  0.9047  1.0360
 7463TIP3   OH243803   2.052   4.960  15.362  0.0382 -0.2210  0.5006
 7463TIP3    H143804   2.131   5.013  15.363  0.1689 -0.4175  2.0278
 7463TIP3    H243805   1.985   5.014  15.404 -0.2960 -0.5613  0.4213
 7464TIP3   OH243806   0.601   2.445   5.837  0.1472 -0.4956 -0.6884
 7464TIP3    H143807   0.625   2.422   5.927 -0.9657  0.6271 -0.0776
 7464TIP3    H243808   0.520   2.397   5.821  0.1701 -0.4355 -0.9779
 7465TIP3   OH243809   1.891   0.252   3.242  0.3614 -0.0721 -0.4897
 7465TIP3    H143810   1.873   0.340   3.208  0.1059 -0.1666 -0.5940
 7465TIP3    H243811   1.907   0.199   3.165 -0.7143 -0.4021 -0.4963
 7466TIP3   OH243812   3.201   4.385  14.074 -0.5260 -0.1516 -1.1467
 7466TIP3    H143813   3.106   4.378  14.072 -0.7366  1.8639 -0.5394
 7466TIP3    H243814   3.219   4.464  14.125  1.6129 -2.3780  1.8916
 7467TIP3   OH243815   3.087   2.048   3.128  0.1132  0.1575  0.4120
 7467TIP3    H143816   3.049   2.044   3.040 -0.9331 -0.2263  0.8589
 7467TIP3    H243817   3.134   2.131   3.131 -2.4169  1.7195  0.4665
 7468TIP3   OH243818   0.525   5.375  16.415 -0.3430  0.2165  0.6575
 7468TIP3    H143819   0.552   5.450  16.468  2.7652 -0.7319  0.6666
 7468TIP3    H243820   0.576   5.302  16.451 -0.2031 -1.0434 -1.8824
 7469TIP3   OH243821   4.431   2.008   0.801  0.1294 -0.8331  0.2862
 7469TIP3    H143822   4.427   2.054   0.885 -0.6839  1.0757 -0.7550
 7469TIP3    H243823   4.343   1.974   0.788 -0.4617  1.0137 -0.8971
 7470TIP3   OH243824   0.752   4.962   1.135 -0.1172 -0.2323  0.0064
 7470TIP3    H143825   0.683   4.919   1.085  0.8882 -0.7911 -0.9347
 7470TIP3    H243826   0.803   4.890   1.172  1.6438  0.1034 -1.6583
 7471TIP3   OH243827   6.409   3.924  16.763 -0.6969 -0.0732 -0.0084
 7471TIP3    H143828   6.378   3.998  16.815  0.1637 -0.2274  0.7407
 7471TIP3    H243829   6.442   3.963  16.682  0.4218  0.4522  0.6857
 7472TIP3   OH243830   3.553   3.298   3.358  0.2062 -0.2335  0.5205
 7472TIP3    H143831   3.464   3.318   3.328  0.6966  0.7839 -0.3244
 7472TIP3    H243832   3.560   3.343   3.442 -0.1413 -0.5037  0.6998
 7473TIP3   OH243833   3.614   3.835  12.280  0.6581 -0.4423  0.3677
 7473TIP3    H143834   3.639   3.753  12.321 -2.7179 -0.9459  1.7523
 7473TIP3    H243835   3.604   3.814  12.188  1.1801 -1.1938  0.4722
 7474TIP3   OH243836   3.170   4.211   6.273 -0.2961  0.2661 -0.0348
 7474TIP3    H143837   3.091   4.261   6.254 -1.2016 -0.6366  1.1552
 7474TIP3    H243838   3.235   4.243   6.211 -2.1179 -0.2811 -2.3577
 7475TIP3   OH243839   3.658   2.949   5.565 -0.0179 -0.6283 -0.1055
 7475TIP3    H143840   3.665   2.891   5.489  1.3299 -0.5156 -0.0991
 7475TIP3    H243841   3.634   3.034   5.527  2.4389 -0.1096 -0.6852
 7476TIP3   OH243842   0.540   0.604   5.510 -0.1968  0.5372 -0.0671
 7476TIP3    H143843   0.557   0.526   5.563 -0.7025  1.7376  1.9607
 7476TIP3    H243844   0.472   0.652   5.558  0.7359  2.6820 -0.7560
 7477TIP3   OH243845   1.868   6.103   5.552  0.1581 -0.1262  0.1767
 7477TIP3    H143846   1.810   6.029   5.569 -1.3995  0.4584 -2.1091
 7477TIP3    H243847   1.838   6.138   5.468  2.3746  1.6492  0.0251
 7478TIP3   OH243848   5.850   1.193  17.026  0.3259  0.4237 -0.2631
 7478TIP3    H143849   5.760   1.226  17.026  0.5733  1.1244 -1.5907
 7478TIP3    H243850   5.901   1.261  17.070  0.0011 -0.6724  1.9472
 7479TIP3   OH243851   1.493   0.172   5.350 -0.0734 -0.2923 -0.4824
 7479TIP3    H143852   1.543   0.157   5.430 -0.4328  0.1546 -0.1686
 7479TIP3    H243853   1.473   0.266   5.352 -1.7248 -0.6357 -0.1336
 7480TIP3   OH243854   5.274   3.886   3.237 -0.3147 -0.3371 -0.3164
 7480TIP3    H143855   5.339   3.867   3.305 -0.3198  2.4574  0.6338
 7480TIP3    H243856   5.226   3.804   3.225  1.2970 -1.5826  1.2846
 7481TIP3   OH243857   0.018   0.576   5.492 -0.2093  0.3328  0.0934
 7481TIP3    H143858   0.088   0.641   5.501 -1.6648  1.9869 -0.1810
 7481TIP3    H243859   0.034   0.515   5.565  0.4304  1.7183  1.1712
 7482TIP3   OH243860   4.822   4.253  13.832  0.6601 -0.3240  0.1861
 7482TIP3    H143861   4.748   4.220  13.781  0.1276  0.7987  0.1930
 7482TIP3    H243862   4.880   4.292  13.767  0.6768 -0.1653  0.2964
 7483TIP3   OH243863   2.756   4.280  12.109  0.0235  0.2720 -0.3118
 7483TIP3    H143864   2.699   4.336  12.056 -0.2599  0.4168  0.1355
 7483TIP3    H243865   2.828   4.256  12.051 -0.5561 -0.0127 -0.9355
 7484TIP3   OH243866   0.260   2.620   4.562 -0.3578  0.4897  0.3023
 7484TIP3    H143867   0.254   2.591   4.653 -0.1737 -0.6075 -0.0120
 7484TIP3    H243868   0.353   2.642   4.550  0.0478 -1.2809 -0.1346
 7485TIP3   OH243869   6.134   6.675  11.906  0.0471 -0.2901  0.0509
 7485TIP3    H143870   6.157   6.588  11.872  1.1660  0.8548 -2.3624
 7485TIP3    H243871   6.213   6.727  11.895 -0.4373  0.9455  1.9495
 7486TIP3   OH243872   3.666   0.651  16.664 -0.5666 -0.0417 -0.5076
 7486TIP3    H143873   3.582   0.614  16.636 -0.6783  0.2523 -0.5766
 7486TIP3    H243874   3.642   0.724  16.722 -0.3502 -0.1746 -0.2483
 7487TIP3   OH243875   0.309   5.830  16.041  0.0820 -0.5733 -0.2611
 7487TIP3    H143876   0.294   5.738  16.063 -1.7535  0.0843  1.5706
 7487TIP3    H243877   0.238   5.852  15.981 -1.9073  0.5460  2.3078
 7488TIP3   OH243878   5.097   3.816   5.699  0.3505  0.0955  0.0109
 7488TIP3    H143879   5.113   3.883   5.766 -0.2940 -0.7700  1.0661
 7488TIP3    H243880   5.008   3.786   5.717  0.9529 -1.7016  0.1800
 7489TIP3   OH243881   4.018   4.141   3.866 -0.3567  0.2637 -0.0699
 7489TIP3    H143882   4.082   4.157   3.797 -1.2852  0.4722 -0.9135
 7489TIP3    H243883   3.978   4.057   3.842 -3.2877  2.0284 -1.9564
 7490TIP3   OH243884   2.378   3.974  14.341  0.3395 -0.1340 -0.4087
 7490TIP3    H143885   2.317   3.999  14.272  0.9584  0.3755 -0.7820
 7490TIP3    H243886   2.444   3.921  14.296  0.7363  0.1862 -0.2067
 7491TIP3   OH243887   2.587   3.763  12.114  0.3934  0.0469  0.0936
 7491TIP3    H143888   2.669   3.756  12.066  0.6214  3.5382 -0.3359
 7491TIP3    H243889   2.520   3.739  12.050  0.9622 -0.3796 -0.3458
 7492TIP3   OH243890   0.426   6.690  12.535 -0.2077  0.4923  0.1912
 7492TIP3    H143891   0.495   6.735  12.486  0.0764 -1.2035 -1.0578
 7492TIP3    H243892   0.346   6.738  12.515  0.0201  0.2309 -1.4054
 7493TIP3   OH243893   2.318   4.469   3.165  0.1673  0.0065  0.4668
 7493TIP3    H143894   2.260   4.508   3.230  1.1454  0.2771  1.2012
 7493TIP3    H243895   2.319   4.532   3.093 -0.5194 -0.0499  0.4049
 7494TIP3   OH243896   1.266   2.236  11.703  0.4154 -0.4464  0.2604
 7494TIP3    H143897   1.232   2.222  11.791 -0.4948  0.5854  0.1014
 7494TIP3    H243898   1.238   2.158  11.654  1.5688 -1.3833  1.0324
 7495TIP3   OH243899   2.594   2.790  11.097 -0.0224  0.0502  0.5569
 7495TIP3    H143900   2.537   2.784  11.021 -3.1157 -0.7219  2.7336
 7495TIP3    H243901   2.595   2.702  11.133  1.2999  0.4094  1.4820
 7496TIP3   OH243902   0.598   3.900   1.301  0.0171  0.3487 -0.3521
 7496TIP3    H143903   0.548   3.932   1.376 -0.2704  1.5376 -1.0224
 7496TIP3    H243904   0.532   3.862   1.243  0.0605  0.6369 -0.5939
 7497TIP3   OH243905   4.953   6.597   2.006 -0.4342  0.2110 -0.4200
 7497TIP3    H143906   4.896   6.547   1.947 -0.9581  1.4367 -0.9756
 7497TIP3    H243907   5.035   6.548   2.007 -1.0539 -0.8586 -0.6530
 7498TIP3   OH243908   3.008   3.377   5.423 -0.2207  0.9869 -0.0663
 7498TIP3    H143909   3.041   3.354   5.336 -1.3511 -1.5435  0.0904
 7498TIP3    H243910   2.915   3.397   5.410 -0.8770 -1.2794  0.7579
 7499TIP3   OH243911   4.295   6.630   0.047  0.5108  1.1611  0.4796
 7499TIP3    H143912   4.266   6.708   0.095 -2.0610 -0.5629  1.9537
 7499TIP3    H243913   4.214   6.585   0.023  1.8853 -0.4946 -1.3466
 7500TIP3   OH243914   0.391   3.658  13.526  0.7267 -0.2558 -0.3210
 7500TIP3    H143915   0.442   3.716  13.582 -0.3254  1.2025 -0.8276
 7500TIP3    H243916   0.303   3.695  13.526  0.2094 -1.4104 -1.2921
 7501TIP3   OH243917   1.935   5.378   1.276  0.6032 -0.7296 -0.3954
 7501TIP3    H143918   1.926   5.334   1.360 -0.9040 -0.0526 -0.1704
 7501TIP3    H243919   1.848   5.370   1.236  0.0680  2.4629 -0.1155
 7502TIP3   OH243920   1.650   3.336  13.175 -0.6417  0.3728 -0.0303
 7502TIP3    H143921   1.603   3.376  13.249 -0.2316  3.9817 -1.5135
 7502TIP3    H243922   1.581   3.313  13.113 -0.7866  1.6264 -0.3750
 7503TIP3   OH243923   5.464   5.834   0.652  0.0793 -0.1704 -0.4368
 7503TIP3    H143924   5.406   5.797   0.718  1.6252 -0.8154  0.6260
 7503TIP3    H243925   5.466   5.769   0.582  0.1987 -0.5599 -0.0759
 7504TIP3   OH243926   1.614   1.550   5.361  1.0599 -0.2643  0.0310
 7504TIP3    H143927   1.524   1.521   5.377  1.5812 -1.5229  0.7991
 7504TIP3    H243928   1.614   1.642   5.389  0.3754 -0.6673  1.4645
 7505TIP3   OH243929   0.225   6.048  14.036 -0.4172  0.0613 -0.0670
 7505TIP3    H143930   0.247   6.081  13.949 -1.5426  2.0129  0.3398
 7505TIP3    H243931   0.250   6.118  14.095 -0.1780 -1.0240  1.1622
 7506TIP3   OH243932   2.799   2.460   6.068  0.3113 -0.1678 -0.4214
 7506TIP3    H143933   2.889   2.430   6.062  0.6647  0.8931 -0.7278
 7506TIP3    H243934   2.803   2.552   6.042 -0.9905 -0.3308 -1.3023
 7507TIP3   OH243935   0.225   2.611   5.029  0.3276 -0.1336 -0.6570
 7507TIP3    H143936   0.158   2.646   5.088  0.3014 -0.0844 -0.7161
 7507TIP3    H243937   0.277   2.687   5.004  1.3772 -0.3966  0.6332
 7508TIP3   OH243938   0.148   2.167   3.725 -0.9730  0.1180 -0.2410
 7508TIP3    H143939   0.158   2.166   3.630 -1.9387 -0.3837 -0.3567
 7508TIP3    H243940   0.175   2.255   3.751  1.5973 -0.4600 -0.6719
 7509TIP3   OH243941   3.071   6.705  16.673  0.2009 -0.0145 -0.4826
 7509TIP3    H143942   3.073   6.800  16.682 -0.2589  0.1136 -1.6063
 7509TIP3    H243943   2.996   6.687  16.616  1.0845 -0.9607 -1.3785
 7510TIP3   OH243944   5.754   1.221   0.533 -0.3527 -0.7190 -0.3715
 7510TIP3    H143945   5.774   1.240   0.441  0.9046 -1.1803 -0.2042
 7510TIP3    H243946   5.761   1.306   0.577 -1.9012 -0.3165 -0.8343
 7511TIP3   OH243947   1.657   1.056  14.956 -0.6962  0.5236 -0.1390
 7511TIP3    H143948   1.577   1.053  15.009 -1.8587  0.1021 -1.8353
 7511TIP3    H243949   1.728   1.063  15.020 -1.8818 -1.8135  1.5734
 7512TIP3   OH243950   2.102   0.490   4.350 -0.3441  0.3133 -0.2018
 7512TIP3    H143951   2.053   0.542   4.287 -1.4862 -0.4950 -0.0146
 7512TIP3    H243952   2.039   0.425   4.382  0.6454 -0.2844  0.6083
 7513TIP3   OH243953   5.083   4.923   1.592  0.0958  0.0287 -0.2661
 7513TIP3    H143954   5.114   4.966   1.672  0.4955 -0.2908 -0.2441
 7513TIP3    H243955   5.009   4.870   1.621 -0.3611  0.6531 -0.2835
 7514TIP3   OH243956   6.355   3.598   4.798 -0.7902  0.0657  0.0262
 7514TIP3    H143957   6.379   3.680   4.755 -0.1602 -0.9806 -1.7473
 7514TIP3    H243958   6.323   3.543   4.727  0.1502 -1.7139  0.9202
 7515TIP3   OH243959   6.459   5.863   0.471  0.0108 -0.2967 -0.0794
 7515TIP3    H143960   6.372   5.902   0.481 -0.0482 -0.8501  1.8178
 7515TIP3    H243961   6.498   5.911   0.397 -0.7075  2.1964  1.0579
 7516TIP3   OH243962   1.461   6.711  12.820  0.3353  0.2962  0.1933
 7516TIP3    H143963   1.541   6.740  12.864 -0.0943  2.7034 -0.4849
 7516TIP3    H243964   1.390   6.753  12.869 -0.3227  0.5066 -0.9026
 7517TIP3   OH243965   0.033   6.301  15.100 -0.2613  0.2436  0.3148
 7517TIP3    H143966  -0.045   6.330  15.148 -1.0405  0.0086 -0.7736
 7517TIP3    H243967   0.002   6.227  15.047  1.0207 -0.7226  0.8643
 7518TIP3   OH243968   5.348   6.802   1.980  0.6311  0.7556  0.2100
 7518TIP3    H143969   5.352   6.777   1.888 -0.8310  0.6654  0.1564
 7518TIP3    H243970   5.407   6.740   2.024  1.4921  0.9274 -0.6780
 7519TIP3   OH243971   0.565   0.850   0.020  0.0894  0.1546  0.0992
 7519TIP3    H143972   0.555   0.891  -0.066  1.9177 -1.6096 -1.0561
 7519TIP3    H243973   0.547   0.757   0.004  1.3134 -0.3391  1.4201
 7520TIP3   OH243974   6.006   6.215   5.847  0.0869 -0.5376 -0.1113
 7520TIP3    H143975   6.018   6.281   5.779 -0.1316  1.4023  1.6190
 7520TIP3    H243976   6.093   6.180   5.862  0.5279  0.5770  0.0566
 7521TIP3   OH243977   2.741   4.718   6.666 -0.0211 -0.1300 -0.1899
 7521TIP3    H143978   2.691   4.652   6.617  0.3937 -1.7344  1.4525
 7521TIP3    H243979   2.832   4.702   6.639 -0.1080  1.2696 -1.4346
 7522TIP3   OH243980   2.694   4.644  14.086  0.8230 -0.0187  0.5628
 7522TIP3    H143981   2.615   4.653  14.139 -1.0499  1.0834 -2.1740
 7522TIP3    H243982   2.706   4.730  14.046  3.1083 -0.3419  0.4541
 7523TIP3   OH243983   3.764   0.698   4.457 -0.0166  0.0187 -0.3649
 7523TIP3    H143984   3.833   0.664   4.515  0.4774  0.1017 -0.9003
 7523TIP3    H243985   3.774   0.647   4.377  0.4928  1.1635 -1.0468
 7524TIP3   OH243986   4.292   3.685  16.187  0.3294 -0.0091  0.2667
 7524TIP3    H143987   4.309   3.605  16.138  0.0768  0.1132 -0.0263
 7524TIP3    H243988   4.364   3.743  16.164  1.8243 -0.9460  2.2803
 7525TIP3   OH243989   6.259   1.329  14.848 -0.0777  0.2716 -0.1144
 7525TIP3    H143990   6.218   1.404  14.890 -0.0608 -0.4929  1.3537
 7525TIP3    H243991   6.352   1.350  14.847  0.1107 -0.3101  1.6593
 7526TIP3   OH243992   4.420   1.203   3.758  0.1393  0.0442 -0.5141
 7526TIP3    H143993   4.502   1.200   3.808  0.6473  0.0494 -1.3246
 7526TIP3    H243994   4.416   1.293   3.725 -1.4938  0.8433  1.5888
 7527TIP3   OH243995   6.321   3.295   6.525  0.0963 -0.2507  0.3727
 7527TIP3    H143996   6.318   3.360   6.455  0.7575  0.1851  0.7329
 7527TIP3    H243997   6.353   3.216   6.482  1.6216  0.3218  0.3725
 7528TIP3   OH243998   3.714   1.782   4.877 -0.4830 -0.4672  0.6041
 7528TIP3    H143999   3.635   1.727   4.873 -0.2097 -0.7908 -1.0662
 7528TIP3    H244000   3.701   1.846   4.808 -0.2204  0.8311  1.7228
 7529TIP3   OH244001   6.183   3.558   2.790 -0.6671  0.0097  0.1408
 7529TIP3    H144002   6.262   3.605   2.817  0.3611 -2.7303  2.2949
 7529TIP3    H244003   6.119   3.578   2.859 -0.7559 -0.4091  0.1810
 7530TIP3   OH244004   1.019   6.419  15.756 -0.5777  0.1047  0.0377
 7530TIP3    H144005   1.030   6.362  15.680 -1.5797  0.8516 -0.7019
 7530TIP3    H244006   0.939   6.388  15.798 -0.6794  0.4371  0.0997
 7531TIP3   OH244007   3.592   0.485  11.304  0.6822 -0.2312 -0.4994
 7531TIP3    H144008   3.576   0.513  11.394  1.4414  0.7261 -0.6400
 7531TIP3    H244009   3.526   0.418  11.287  2.0125 -2.2204  1.5588
 7532TIP3   OH244010   4.932   4.514  16.716 -0.0770 -0.0786 -0.2562
 7532TIP3    H144011   4.854   4.475  16.675  1.0636 -0.9999 -1.6377
 7532TIP3    H244012   4.919   4.498  16.810 -1.5783 -0.1380 -0.4418
 7533TIP3   OH244013   3.930   4.208  14.528  0.4439  0.3560  0.2619
 7533TIP3    H144014   4.021   4.229  14.510  0.7338 -0.7246  0.3883
 7533TIP3    H244015   3.934   4.145  14.600 -0.4541  1.0106  0.9131
 7534TIP3   OH244016   6.484   4.762  14.136 -0.2738 -0.4658 -0.0999
 7534TIP3    H144017   6.544   4.710  14.083  0.2183 -0.9114  0.8725
 7534TIP3    H244018   6.529   4.845  14.149 -0.5246 -0.2463 -0.6263
 7535TIP3   OH244019   0.739   0.042   4.476 -0.3209 -0.1955  0.0666
 7535TIP3    H144020   0.797  -0.033   4.488 -3.2206 -2.8955 -1.0239
 7535TIP3    H244021   0.685   0.017   4.401 -0.8884  3.4676 -0.9100
 7536TIP3   OH244022   1.930   2.046   3.992  0.0840  0.0400 -0.0075
 7536TIP3    H144023   1.974   2.016   4.072  0.7806 -1.2311 -0.8177
 7536TIP3    H244024   1.936   2.141   3.995  1.1721 -0.0363  0.8589
 7537TIP3   OH244025   6.256   4.949  11.036  0.1523 -0.1761  0.1945
 7537TIP3    H144026   6.198   4.892  11.086 -0.7665 -1.4609 -2.1554
 7537TIP3    H244027   6.199   5.017  11.001  0.7184  0.5306  0.6176
 7538TIP3   OH244028   5.824   1.406  10.865  0.2044 -0.2749 -0.0300
 7538TIP3    H144029   5.729   1.412  10.876  0.1023  2.0512 -1.4743
 7538TIP3    H244030   5.842   1.312  10.868 -2.4773 -0.9933 -2.0669
 7539TIP3   OH244031   1.898   5.508   6.236 -0.0126  0.0867  0.1772
 7539TIP3    H144032   1.988   5.543   6.243  0.2487 -0.3983 -0.6523
 7539TIP3    H244033   1.846   5.565   6.293  0.5037  1.5197 -0.7332
 7540TIP3   OH244034   1.897   4.777   3.678  0.5072  0.2901 -0.1736
 7540TIP3    H144035   1.817   4.830   3.687  1.7228  2.2090 -0.0140
 7540TIP3    H244036   1.919   4.781   3.585  0.3551 -0.3534 -0.2421
 7541TIP3   OH244037   3.779   6.292   4.631 -0.0459  0.6571 -0.7705
 7541TIP3    H144038   3.825   6.209   4.644  0.8629  1.1501 -0.6959
 7541TIP3    H244039   3.785   6.309   4.537 -0.5862  0.4420 -0.8444
 7542TIP3   OH244040   1.045   6.003  12.096 -0.2225  0.1720 -0.8866
 7542TIP3    H144041   1.004   6.046  12.021 -1.2197  0.0044 -0.4544
 7542TIP3    H244042   0.975   5.994  12.160  0.9249  1.6074  0.6595
 7543TIP3   OH244043   5.538   1.250  12.159 -0.7878 -0.5746 -0.2134
 7543TIP3    H144044   5.483   1.195  12.216 -3.5639  1.2104 -0.9816
 7543TIP3    H244045   5.518   1.219  12.071 -1.7797  1.0723 -0.6014
 7544TIP3   OH244046   3.262   1.294  14.533  0.2673 -0.2863 -1.1571
 7544TIP3    H144047   3.329   1.287  14.600  0.8396  1.3304 -1.5070
 7544TIP3    H244048   3.308   1.279  14.450  0.1560  0.5331 -1.3786
 7545TIP3   OH244049   5.606   4.353  14.782 -0.0346  0.4988 -0.1886
 7545TIP3    H144050   5.532   4.412  14.774  1.1208  2.0622  0.1840
 7545TIP3    H244051   5.636   4.341  14.691 -0.9388 -0.4575 -0.3834
 7546TIP3   OH244052   4.686   3.891  16.717 -0.1004 -0.0333 -0.2503
 7546TIP3    H144053   4.722   3.851  16.796 -0.4241 -0.5196 -0.3511
 7546TIP3    H244054   4.725   3.842  16.645 -0.4721 -0.1445 -0.3749
 7547TIP3   OH244055   0.304   1.966  15.426  0.2450 -0.4997 -0.1492
 7547TIP3    H144056   0.274   1.974  15.516 -0.7251 -2.0298 -0.2920
 7547TIP3    H244057   0.231   1.924  15.380  1.1378 -0.7377 -1.3976
 7548TIP3   OH244058   6.693   6.228  13.501 -0.8489 -0.0423 -0.3030
 7548TIP3    H144059   6.600   6.245  13.491 -1.0612 -1.2929 -0.6864
 7548TIP3    H244060   6.722   6.198  13.414 -0.4091 -0.9804  0.1411
 7549TIP3   OH244061   2.768   0.203  10.550  0.1961  0.2730 -0.3386
 7549TIP3    H144062   2.823   0.158  10.614  1.4861  1.2188 -0.7337
 7549TIP3    H244063   2.708   0.135  10.518 -0.7655 -0.1408  2.1041
 7550TIP3   OH244064   1.864   0.089   0.207  0.5858  0.1641  0.8568
 7550TIP3    H144065   1.883   0.048   0.291  0.8026 -0.7962  0.3471
 7550TIP3    H244066   1.809   0.164   0.229 -0.1201 -0.6034  1.7801
 7551TIP3   OH244067   4.505   6.456   0.007 -0.2504  0.1519 -0.5451
 7551TIP3    H144068   4.473   6.422  -0.077 -2.0354  0.0744  0.1238
 7551TIP3    H244069   4.436   6.514   0.037  0.5842  0.5484  0.6677
 7552TIP3   OH244070   2.530   3.896   2.277  0.0541 -0.0263  0.1935
 7552TIP3    H144071   2.456   3.846   2.311 -0.1054 -0.1737 -0.3469
 7552TIP3    H244072   2.608   3.855   2.315 -0.1448  0.2289  0.8907
 7553TIP3   OH244073   6.766   5.875  14.937  0.2773 -0.5791  0.7241
 7553TIP3    H144074   6.763   5.889  15.032 -0.1516  2.0715  0.3995
 7553TIP3    H244075   6.688   5.919  14.904  1.6194  0.6274 -1.0322
 7554TIP3   OH244076   5.032   1.346  14.821 -0.5861  0.2336  0.3736
 7554TIP3    H144077   5.015   1.417  14.759  0.4604  0.8684  0.7999
 7554TIP3    H244078   5.126   1.331  14.815 -0.4614  0.3233  1.8310
 7555TIP3   OH244079   4.475   0.987   1.825  0.1610 -0.2535 -0.0873
 7555TIP3    H144080   4.497   1.054   1.761  0.4092 -0.1536  0.1001
 7555TIP3    H244081   4.403   0.937   1.785  0.6245 -0.4829 -0.6377
 7556TIP3   OH244082   0.198   3.167   2.966 -0.0212 -0.2080 -0.1400
 7556TIP3    H144083   0.293   3.174   2.960 -0.1653  0.1607 -3.7017
 7556TIP3    H244084   0.181   3.075   2.987  1.0991 -0.5342 -0.6187
 7557TIP3   OH244085   3.740   2.473  14.786  0.3322 -0.6119  0.0037
 7557TIP3    H144086   3.792   2.525  14.724  0.8911  0.6430  1.4814
 7557TIP3    H244087   3.804   2.416  14.829 -0.0027 -1.2341 -0.3068
 7558TIP3   OH244088   0.015   5.686  12.859 -0.5270  0.6770 -0.7465
 7558TIP3    H144089   0.100   5.703  12.817  0.2610 -2.2907 -0.5714
 7558TIP3    H244090  -0.048   5.688  12.787 -0.1962  1.9597 -1.0263
 7559TIP3   OH244091   2.732   4.733   1.976 -0.0196 -0.2740  0.3158
 7559TIP3    H144092   2.676   4.741   1.899  1.4649 -0.1136 -0.7875
 7559TIP3    H244093   2.820   4.725   1.941  0.5282 -2.3494  1.9266
 7560TIP3   OH244094   2.093   3.917   0.017  0.9166 -0.0787  0.1866
 7560TIP3    H144095   2.071   3.913   0.110 -0.2871 -1.6071 -0.1229
 7560TIP3    H244096   2.129   3.830  -0.003  2.0385  0.5324 -0.6007
 7561TIP3   OH244097   2.836   2.201   3.285 -0.1886  0.5855  0.0976
 7561TIP3    H144098   2.746   2.214   3.257  0.0721  1.7073 -0.2480
 7561TIP3    H244099   2.885   2.189   3.204 -0.1143 -0.7227  0.3125
 7562TIP3   OH244100   2.273   4.977   0.934  0.1026  0.0998 -0.1545
 7562TIP3    H144101   2.295   4.884   0.941  3.9707  0.9075  1.2938
 7562TIP3    H244102   2.289   4.999   0.843  0.3342 -0.4309 -0.2438
 7563TIP3   OH244103   5.077   2.305  12.874 -0.0634  0.2057  0.1607
 7563TIP3    H144104   5.020   2.381  12.862 -0.4856  0.1547  1.6202
 7563TIP3    H244105   5.159   2.330  12.833 -0.2640  1.3760  0.4407
 7564TIP3   OH244106   4.599   0.349   4.982 -0.1957 -0.5555  0.2781
 7564TIP3    H144107   4.592   0.444   4.969  1.0551 -0.3389  1.0478
 7564TIP3    H244108   4.554   0.332   5.064 -0.5617 -0.6668  0.0593
 7565TIP3   OH244109   5.289   5.226  13.719 -0.4489  0.5059 -0.1436
 7565TIP3    H144110   5.384   5.225  13.733 -0.4348  0.2410 -0.2469
 7565TIP3    H244111   5.261   5.136  13.740 -0.5385  0.3148 -1.0535
 7566TIP3   OH244112   4.085   3.066  16.739 -0.6322  0.3907  0.1943
 7566TIP3    H144113   4.053   2.977  16.752 -1.8568  0.9525  1.1407
 7566TIP3    H244114   4.180   3.056  16.734 -0.7036 -0.9005  0.9115
 7567TIP3   OH244115   3.257   4.868   0.085 -0.9631  0.3757 -0.3952
 7567TIP3    H144116   3.206   4.809   0.140  0.2403  0.8430  1.3096
 7567TIP3    H244117   3.235   4.843  -0.005 -0.8948 -2.2947  0.2523
 7568TIP3   OH244118   0.859   1.679   6.305  0.4317 -0.0410  0.1583
 7568TIP3    H144119   0.808   1.632   6.238  0.0681  0.8095 -0.1835
 7568TIP3    H244120   0.949   1.676   6.273  0.2397  0.4792 -0.4588
 7569TIP3   OH244121   6.796   0.436  13.870 -0.3734  0.2414 -0.0092
 7569TIP3    H144122   6.740   0.358  13.875  1.0811 -0.8150  0.4690
 7569TIP3    H244123   6.841   0.438  13.954  0.4717  0.9318 -0.4711
 7570TIP3   OH244124   3.269   6.478  15.797  0.0963 -0.5116 -0.5662
 7570TIP3    H144125   3.357   6.462  15.832  0.6161  0.3267 -1.4535
 7570TIP3    H244126   3.234   6.549  15.851  1.4541  1.7948 -2.5384
 7571TIP3   OH244127   0.218   4.653   1.115 -0.1027  0.1928  0.0107
 7571TIP3    H144128   0.274   4.730   1.112  1.0275 -0.6038 -0.3190
 7571TIP3    H244129   0.242   4.603   1.037  1.2558 -1.8646  1.6276
 7572TIP3   OH244130   0.560   5.312   3.469 -0.0707  0.1155 -0.2109
 7572TIP3    H144131   0.540   5.219   3.454  0.2665 -0.0732  0.4626
 7572TIP3    H244132   0.477   5.357   3.456 -0.1599 -0.2311 -0.9144
 7573TIP3   OH244133   2.505   2.235  11.318  0.3341  0.1608  0.0592
 7573TIP3    H144134   2.543   2.297  11.380 -1.7661  0.7933  0.8124
 7573TIP3    H244135   2.424   2.277  11.289 -0.2453 -1.4606 -0.8130
 7574TIP3   OH244136   5.520   5.239  16.118  0.2742  0.1346 -0.3871
 7574TIP3    H144137   5.558   5.301  16.181 -1.2474  1.4150 -0.6557
 7574TIP3    H244138   5.429   5.229  16.148  0.2443 -1.2471 -0.9087
 7575TIP3   OH244139   6.081   1.529   3.667  0.1857  0.0338 -0.1971
 7575TIP3    H144140   5.990   1.556   3.669 -0.5850 -2.3101  0.2076
 7575TIP3    H244141   6.107   1.536   3.575  0.1319  2.1500 -0.1013
 7576TIP3   OH244142   6.348   1.395   4.619 -0.2896  0.1802  0.8011
 7576TIP3    H144143   6.433   1.350   4.619  0.4944  1.5748  0.1149
 7576TIP3    H244144   6.360   1.468   4.559 -2.4923 -0.4721 -0.5480
 7577TIP3   OH244145   5.064   1.969  15.619  0.1189  0.3370 -0.1792
 7577TIP3    H144146   5.026   2.016  15.545  2.1300 -0.4819 -1.8339
 7577TIP3    H244147   5.120   2.033  15.662 -0.3901  0.5796  0.1291
 7578TIP3   OH244148   2.796   3.982  12.794  0.4096 -0.1889  0.2159
 7578TIP3    H144149   2.809   3.895  12.831 -2.2495 -1.5512 -1.6741
 7578TIP3    H244150   2.736   3.968  12.721 -0.6744  3.3331  0.2351
 7579TIP3   OH244151   1.374   0.357  12.750 -0.6111 -0.2693  0.4767
 7579TIP3    H144152   1.387   0.265  12.728  0.1405 -0.3668  1.3085
 7579TIP3    H244153   1.313   0.389  12.683  0.4997 -0.9055 -0.8880
 7580TIP3   OH244154   5.780   6.709   1.668  0.6207  0.1496  0.2263
 7580TIP3    H144155   5.685   6.705   1.680  0.5365  0.5476 -0.2740
 7580TIP3    H244156   5.816   6.678   1.751  0.0646 -2.3067 -0.3645
 7581TIP3   OH244157   3.556   4.669  16.837  0.2228 -0.5922 -0.4206
 7581TIP3    H144158   3.557   4.733  16.766  1.0825 -1.2392 -1.0108
 7581TIP3    H244159   3.593   4.715  16.912 -0.1419 -0.0865 -0.5418
 7582TIP3   OH244160   0.545   3.448  12.791  0.1419  0.0855 -0.5399
 7582TIP3    H144161   0.496   3.404  12.861  1.0940 -0.2709 -0.0828
 7582TIP3    H244162   0.634   3.416  12.800  0.8513  1.9993 -0.2816
 7583TIP3   OH244163   6.787   5.291  11.149  0.0562  0.4307  0.4208
 7583TIP3    H144164   6.882   5.273  11.147  0.4220  2.2003  0.4779
 7583TIP3    H244165   6.768   5.322  11.060 -0.0281  2.0483  0.9755
 7584TIP3   OH244166   6.032   0.805   1.757 -0.0788  0.1760  0.0482
 7584TIP3    H144167   5.985   0.795   1.674 -0.0098 -2.7722  0.2722
 7584TIP3    H244168   6.078   0.888   1.748 -0.5065  0.2149 -2.6486
 7585TIP3   OH244169   4.436   3.636  10.722 -0.9574  0.5785 -0.5523
 7585TIP3    H144170   4.387   3.586  10.657 -2.0683  1.2931 -0.2797
 7585TIP3    H244171   4.474   3.709  10.673 -1.3192  0.7982 -0.5051
 7586TIP3   OH244172   3.465   3.514  13.910  0.2621  0.5413  0.4660
 7586TIP3    H144173   3.433   3.460  13.838 -0.1532 -0.1447  1.1476
 7586TIP3    H244174   3.387   3.531  13.963  0.9009 -0.8427  1.9568
 7587TIP3   OH244175   4.193   3.244   2.880  0.1107  0.0747 -0.1930
 7587TIP3    H144176   4.281   3.272   2.854 -0.3364  0.2031 -1.6406
 7587TIP3    H244177   4.152   3.324   2.913  0.2811  0.1874 -0.2517
 7588TIP3   OH244178   5.139   1.113   4.704  0.3513  0.6510  0.0392
 7588TIP3    H144179   5.225   1.136   4.740  0.0719  1.1985  0.3512
 7588TIP3    H244180   5.077   1.168   4.751 -0.2447 -0.1972  0.2709
 7589TIP3   OH244181   2.697   0.037  11.047  0.3380 -0.6545 -0.3063
 7589TIP3    H144182   2.669  -0.007  11.128 -0.2501 -0.5996 -0.4720
 7589TIP3    H244183   2.625   0.020  10.986  0.5928 -0.3466 -0.6889
 7590TIP3   OH244184   6.056   3.330  11.191  0.3727 -0.0692  0.1226
 7590TIP3    H144185   6.132   3.383  11.170  1.3376 -0.7961  1.6414
 7590TIP3    H244186   5.993   3.349  11.120  1.3502  1.6980 -0.3283
 7591TIP3   OH244187   2.965   6.758  11.746 -0.0769  0.2951 -0.2872
 7591TIP3    H144188   2.954   6.665  11.767  0.4845  0.4484  0.7718
 7591TIP3    H244189   3.029   6.760  11.675  1.5067 -0.0673  1.0557
 7592TIP3   OH244190   6.768   5.055   3.876  0.0861 -0.5309 -0.0466
 7592TIP3    H144191   6.815   4.972   3.878 -1.4727 -1.4602 -0.3419
 7592TIP3    H244192   6.718   5.056   3.957  1.9133  1.2968  1.1800
 7593TIP3   OH244193   6.424   2.306   1.473  0.4691 -0.7341 -0.2722
 7593TIP3    H144194   6.415   2.219   1.514 -0.1095 -0.9021 -0.7536
 7593TIP3    H244195   6.460   2.361   1.543 -1.2561 -0.8132  0.7307
 7594TIP3   OH244196   2.284   2.379  15.144  0.5684  0.5517  0.1528
 7594TIP3    H144197   2.361   2.435  15.133  0.9919 -0.1781 -0.7754
 7594TIP3    H244198   2.228   2.401  15.069  0.1842  0.6046  0.4566
 7595TIP3   OH244199   6.657   6.669   5.971  0.7302  0.3185  0.8146
 7595TIP3    H144200   6.609   6.749   5.950  0.4163 -0.4192 -1.5986
 7595TIP3    H244201   6.591   6.610   6.008  0.7552  0.8069  1.6615
 7596TIP3   OH244202   4.538   2.825  11.451  0.1610 -0.0072  0.3635
 7596TIP3    H144203   4.621   2.779  11.460  0.4125  0.2504 -0.5075
 7596TIP3    H244204   4.558   2.916  11.472  0.2121  0.1415 -0.3033
 7597TIP3   OH244205   4.147   5.843  16.259  0.3499 -0.3281 -0.1306
 7597TIP3    H144206   4.182   5.760  16.293  1.4855  0.4619  0.6853
 7597TIP3    H244207   4.218   5.906  16.272 -0.3800  0.7120 -1.0401
 7598TIP3   OH244208   5.843   1.829   6.322 -0.5887  0.6554 -0.1996
 7598TIP3    H144209   5.849   1.922   6.300  0.2186 -0.1269 -4.0528
 7598TIP3    H244210   5.835   1.785   6.238  0.9541 -2.9265  1.3230
 7599TIP3   OH244211   2.148   6.164  16.932 -0.2379 -0.3209  0.1906
 7599TIP3    H144212   2.192   6.187  17.014 -0.6231  2.2300 -0.2477
 7599TIP3    H244213   2.213   6.185  16.864 -0.4987 -0.9071 -0.2445
 7600TIP3   OH244214   5.113   1.079   3.622 -0.1648 -0.0763 -0.3752
 7600TIP3    H144215   5.100   1.129   3.541  0.4243  0.6794 -0.0098
 7600TIP3    H244216   5.034   1.096   3.674  0.0596  0.5361 -0.2245
 7601TIP3   OH244217   6.566   3.157  11.452 -0.7018 -0.2583 -0.6961
 7601TIP3    H144218   6.486   3.162  11.504 -1.3248  0.7851 -1.7226
 7601TIP3    H244219   6.598   3.247  11.448 -0.5885 -0.3341 -1.9684
 7602TIP3   OH244220   3.850   3.506   0.076 -0.2198 -0.6293 -0.5208
 7602TIP3    H144221   3.927   3.462   0.112 -0.6161  0.0627  1.2483
 7602TIP3    H244222   3.776   3.467   0.123 -0.6712  1.0481  0.2406
 7603TIP3   OH244223   6.575   3.328   2.670 -0.5927 -0.2643 -0.2915
 7603TIP3    H144224   6.624   3.248   2.690  1.9175  1.5294  1.4767
 7603TIP3    H244225   6.524   3.346   2.749  1.8755  1.7793  1.0023
 7604TIP3   OH244226   0.747   3.200  13.865 -0.6615 -0.1183 -0.3148
 7604TIP3    H144227   0.741   3.152  13.782 -0.8155 -0.3622 -0.1583
 7604TIP3    H244228   0.841   3.220  13.873 -0.8101  1.1476 -1.2620
 7605TIP3   OH244229   0.373   6.537   0.062 -0.0510  0.1286  0.6373
 7605TIP3    H144230   0.385   6.510   0.152 -0.9447 -1.0400  0.4345
 7605TIP3    H244231   0.365   6.455   0.013 -1.1972  0.7334 -0.2512
 7606TIP3   OH244232   3.936   6.366   4.953  0.1673 -0.1775  0.2063
 7606TIP3    H144233   3.980   6.309   5.015 -0.6726 -2.3832 -1.1292
 7606TIP3    H244234   3.844   6.341   4.958 -0.3571  1.6010  0.1133
 7607TIP3   OH244235   3.531   0.957   2.880 -0.6479  0.1182  0.2644
 7607TIP3    H144236   3.496   0.892   2.941  0.8725  0.3950  1.5010
 7607TIP3    H244237   3.591   1.009   2.933 -1.0532  1.8929 -0.9462
 7608TIP3   OH244238   2.914   4.414   4.098  0.0460 -0.3178  0.1552
 7608TIP3    H144239   2.942   4.335   4.051 -1.8421  0.1551 -1.9086
 7608TIP3    H244240   2.844   4.384   4.156 -1.0500 -0.1082 -1.0307
 7609TIP3   OH244241   5.684   0.733  15.294 -0.2789 -0.2145  0.2109
 7609TIP3    H144242   5.728   0.712  15.212  0.3727 -0.5218  0.6298
 7609TIP3    H244243   5.591   0.718  15.276 -0.1614 -0.0919 -0.5219
 7610TIP3   OH244244   2.366   5.134  14.587  0.3579 -0.0668  0.1092
 7610TIP3    H144245   2.382   5.152  14.680 -2.0690  1.1594  0.3800
 7610TIP3    H244246   2.425   5.193  14.540  0.7045  0.2153  0.8903
 7611TIP3   OH244247   6.483   5.328  15.675 -0.4779 -0.2963 -0.1111
 7611TIP3    H144248   6.479   5.296  15.765 -1.1429  0.2669  0.0672
 7611TIP3    H244249   6.410   5.389  15.667 -0.1843 -0.0229 -0.9131
 7612TIP3   OH244250   4.124   4.777  12.015  0.1482 -0.8735 -0.6729
 7612TIP3    H144251   4.207   4.741  12.046  0.6253  1.2997  0.7550
 7612TIP3    H244252   4.146   4.826  11.937  0.3815  0.2889  0.0960
 7613TIP3   OH244253   2.224   3.052   6.135 -0.0870  0.3366  0.7625
 7613TIP3    H144254   2.186   3.121   6.190 -1.1111  1.9746 -1.8587
 7613TIP3    H244255   2.177   2.973   6.160 -0.6790  1.0628  2.0586
 7614TIP3   OH244256   1.866   4.470   0.186  0.5818  0.0078  0.3120
 7614TIP3    H144257   1.838   4.469   0.277 -1.6900  1.3955 -0.2818
 7614TIP3    H244258   1.879   4.563   0.166 -1.5842  0.0230 -1.4383
 7615TIP3   OH244259   0.628   5.541   2.571 -0.0401  0.3373  0.1229
 7615TIP3    H144260   0.667   5.591   2.643 -0.0609  0.6110 -0.0565
 7615TIP3    H244261   0.662   5.583   2.492 -0.0035  0.0240 -0.0265
 7616TIP3   OH244262   2.290   2.094  16.452  0.2439  0.3594 -0.3401
 7616TIP3    H144263   2.264   2.186  16.465 -0.8105  0.0633 -0.2671
 7616TIP3    H244264   2.251   2.048  16.527  2.9776  0.2283  1.1187
 7617TIP3   OH244265   0.963   0.050  12.426 -0.0369  0.2637 -0.0646
 7617TIP3    H144266   0.963   0.021  12.335 -0.6813 -0.0882  0.0428
 7617TIP3    H244267   1.008  -0.020  12.473 -2.0351 -0.8834  0.2717
 7618TIP3   OH244268   0.549   6.195   1.616  0.6315 -0.4326 -0.4775
 7618TIP3    H144269   0.585   6.280   1.591  2.5986 -0.4586  1.7921
 7618TIP3    H244270   0.491   6.215   1.690  0.9657 -0.9988 -0.0520
 7619TIP3   OH244271   6.657   4.529   3.427  0.4051 -0.5089  0.1235
 7619TIP3    H144272   6.605   4.530   3.347  1.7143  0.0368 -0.7638
 7619TIP3    H244273   6.621   4.456   3.478  0.8933 -2.3134 -1.9329
 7620TIP3   OH244274   5.005   5.806  11.511 -0.1109  0.0311  0.1085
 7620TIP3    H144275   5.082   5.760  11.477 -0.6479 -0.0921 -0.9998
 7620TIP3    H244276   4.948   5.737  11.544 -0.5552 -0.0485 -0.7967
 7621TIP3   OH244277   5.412   6.572   3.860 -0.3265  0.1050  0.3059
 7621TIP3    H144278   5.382   6.597   3.947  0.6652 -2.5674  1.5321
 7621TIP3    H244279   5.344   6.513   3.827 -1.4891  2.2852 -1.5123
 7622TIP3   OH244280   3.626   6.018   2.101 -0.3048 -0.3164 -0.4664
 7622TIP3    H144281   3.636   5.927   2.130 -0.6048 -0.6596 -1.3758
 7622TIP3    H244282   3.546   6.048   2.144  0.5356 -0.0072  0.9392
 7623TIP3   OH244283   3.682   5.261   2.778  0.2085 -0.3972  0.5958
 7623TIP3    H144284   3.711   5.171   2.771  1.3242 -0.0461  0.5484
 7623TIP3    H244285   3.757   5.313   2.750 -0.3113  0.5572  0.9207
 7624TIP3   OH244286   0.114   4.312  15.370  0.1230  0.1180 -0.6716
 7624TIP3    H144287   0.202   4.347  15.354  0.8603 -1.8130 -1.1523
 7624TIP3    H244288   0.127   4.218  15.375 -1.5339 -0.0604  1.9474
 7625TIP3   OH244289   6.324   0.641  15.123  0.3134  0.4409 -0.0330
 7625TIP3    H144290   6.290   0.663  15.036  1.5834  1.0526 -0.3958
 7625TIP3    H244291   6.249   0.603  15.169  0.1402 -1.8889 -2.0820
 7626TIP3   OH244292   4.058   1.531   3.085 -0.3427 -0.2515 -0.2048
 7626TIP3    H144293   4.137   1.485   3.058  1.1748  0.2467  2.9640
 7626TIP3    H244294   3.993   1.462   3.099  0.5542 -1.0168  0.2814
 7627TIP3   OH244295   4.765   3.116  12.397 -0.2547  0.5474  0.4640
 7627TIP3    H144296   4.806   3.075  12.320  0.0033 -0.8744  1.3364
 7627TIP3    H244297   4.678   3.077  12.402 -0.9392  1.9340 -0.0925
 7628TIP3   OH244298   4.571   6.284   0.542  0.6275 -0.3554  0.3349
 7628TIP3    H144299   4.593   6.191   0.534 -0.7278 -0.6327 -0.3713
 7628TIP3    H244300   4.479   6.285   0.568 -0.2090  0.7704 -2.3206
 7629TIP3   OH244301   3.834   6.630   0.322  0.5123 -0.0817  0.3762
 7629TIP3    H144302   3.846   6.710   0.373 -0.6906  0.8633 -0.7504
 7629TIP3    H244303   3.922   6.595   0.310  1.2270  1.8043 -0.2234
 7630TIP3   OH244304   3.898   3.755  16.344  0.3571  0.0501  0.1542
 7630TIP3    H144305   3.872   3.776  16.254 -0.2861 -1.0792  0.0453
 7630TIP3    H244306   3.879   3.834  16.394 -2.7683 -0.4442 -0.0475
 7631TIP3   OH244307   1.181   6.139  13.642  0.3576  0.4444  0.1642
 7631TIP3    H144308   1.198   6.215  13.587  1.2889  2.5226  3.0275
 7631TIP3    H244309   1.101   6.100  13.607  1.0543  1.4225 -2.7143
 7632TIP3   OH244310   2.550   6.114   4.615  1.0574  0.3514 -0.1071
 7632TIP3    H144311   2.609   6.039   4.613 -1.1124 -1.5173  1.6131
 7632TIP3    H244312   2.548   6.145   4.525  3.3855 -0.4859 -0.5169
 7633TIP3   OH244313   0.333   1.779   1.469 -0.4488 -0.1803 -0.5423
 7633TIP3    H144314   0.280   1.720   1.416  0.6265 -0.0399 -1.8407
 7633TIP3    H244315   0.281   1.859   1.476 -1.5103 -0.9264  0.4348
 7634TIP3   OH244316   3.979   2.500   1.875 -0.0516 -0.2885  0.5308
 7634TIP3    H144317   3.989   2.550   1.956 -0.6111 -0.8067  0.9256
 7634TIP3    H244318   4.069   2.474   1.852  0.1277  0.0005  0.8968
 7635TIP3   OH244319   1.307   3.976   3.007 -0.1352 -0.2304 -0.1621
 7635TIP3    H144320   1.248   3.902   3.023  0.6007 -0.6337  0.7568
 7635TIP3    H244321   1.281   4.042   3.071  1.0418 -0.7934  0.9238
 7636TIP3   OH244322   6.436   3.921   2.674  0.2274 -0.0954 -0.3106
 7636TIP3    H144323   6.447   3.870   2.754 -1.2397 -0.2282 -0.1632
 7636TIP3    H244324   6.501   3.990   2.681  4.0496 -3.2135 -1.6741
 7637TIP3   OH244325   0.453   2.941  11.465 -0.0817  0.5398  0.1746
 7637TIP3    H144326   0.381   2.986  11.508 -1.0817 -1.3126  0.5474
 7637TIP3    H244327   0.426   2.932  11.374 -0.0818  0.2784  0.2016
 7638TIP3   OH244328   3.848   1.929  16.859  0.4529 -0.1364 -0.1030
 7638TIP3    H144329   3.907   1.858  16.835  0.1631 -0.2960 -0.3487
 7638TIP3    H244330   3.904   2.007  16.862  0.3792  0.0725 -2.1688
 7639TIP3   OH244331   6.285   0.146   1.726 -0.4818  0.0365 -0.2422
 7639TIP3    H144332   6.308   0.207   1.796 -0.6545  0.7249 -0.7774
 7639TIP3    H244333   6.363   0.143   1.671  0.0338 -1.2888  0.5114
 7640TIP3   OH244334   4.130   6.207   1.205  0.1301  0.0459 -0.6802
 7640TIP3    H144335   4.066   6.136   1.216  1.9210 -1.3834  1.2106
 7640TIP3    H244336   4.172   6.189   1.121  0.9049 -1.4899  0.0001
 7641TIP3   OH244337   4.807   4.399   0.312 -0.1958  0.3466 -0.3393
 7641TIP3    H144338   4.867   4.473   0.319  0.4909 -0.1155 -1.1556
 7641TIP3    H244339   4.862   4.322   0.328 -1.0450  0.0338  1.2407
 7642TIP3   OH244340   3.135   6.810   2.005  0.1181 -0.0858  0.0503
 7642TIP3    H144341   3.110   6.811   1.912  2.0148  0.1132 -0.4939
 7642TIP3    H244342   3.075   6.874   2.045  0.1341  0.8343 -1.2928
 7643TIP3   OH244343   2.475   0.061   1.598 -0.1447  0.3285 -0.1505
 7643TIP3    H144344   2.395   0.107   1.627 -0.0390  0.1973  0.3697
 7643TIP3    H244345   2.498   0.005   1.673  0.8984  0.9751  0.0242
 7644TIP3   OH244346   2.425   3.286  16.129  0.1738 -0.6321  0.0003
 7644TIP3    H144347   2.355   3.259  16.070 -0.4313 -1.8411  1.2097
 7644TIP3    H244348   2.476   3.207  16.143  0.9624 -0.0903  0.2356
 7645TIP3   OH244349   6.480   1.715  13.703  0.3115  0.5562 -0.1622
 7645TIP3    H144350   6.507   1.692  13.614  0.9157 -1.4688  0.4948
 7645TIP3    H244351   6.517   1.646  13.758  0.5354  2.1286  1.7651
 7646TIP3   OH244352   6.004   5.091  14.045  0.6141  0.3182 -0.0695
 7646TIP3    H144353   5.983   5.184  14.048  0.6345  0.3109  2.4799
 7646TIP3    H244354   5.921   5.047  14.060  0.6356 -0.0849 -1.0778
 7647TIP3   OH244355   2.662   4.114   3.118  0.1102 -0.3570  0.3426
 7647TIP3    H144356   2.661   4.021   3.097 -1.8865 -0.2832 -0.0657
 7647TIP3    H244357   2.664   4.117   3.214 -0.2012 -0.8348  0.3685
 7648TIP3   OH244358   6.515   2.161   4.944 -0.1063  0.1573  0.1587
 7648TIP3    H144359   6.478   2.215   4.874  1.4744  0.6847 -0.3204
 7648TIP3    H244360   6.459   2.084   4.947 -0.4717  0.3223 -1.4152
 7649TIP3   OH244361   1.710   0.013  13.203  0.0015  0.0768 -0.7738
 7649TIP3    H144362   1.795  -0.012  13.239 -0.3780  2.0345  1.7373
 7649TIP3    H244363   1.662  -0.070  13.195  1.5387 -0.8692 -0.6730
 7650TIP3   OH244364   0.626   6.159   0.414  0.4979 -0.1217 -0.1376
 7650TIP3    H144365   0.594   6.127   0.329  0.1187  0.1876 -0.1136
 7650TIP3    H244366   0.720   6.171   0.401  0.3581  0.4305 -0.6791
 7651TIP3   OH244367   5.907   4.260  16.252  0.1788 -0.3723 -0.5709
 7651TIP3    H144368   5.843   4.281  16.320 -0.2524 -0.1121 -1.0473
 7651TIP3    H244369   5.867   4.292  16.171  1.2094  0.4303 -0.7902
 7652TIP3   OH244370   5.548   6.757  15.588 -0.5135 -0.2693  0.2572
 7652TIP3    H144371   5.636   6.756  15.549 -0.0043 -0.1860  1.3364
 7652TIP3    H244372   5.526   6.664  15.598 -0.0914 -0.3133  0.9097
 7653TIP3   OH244373   5.113   1.286  11.045 -0.0123 -0.2976  0.6234
 7653TIP3    H144374   5.181   1.287  11.112  1.0916 -1.6608 -0.4172
 7653TIP3    H244375   5.129   1.205  10.995 -0.8769  0.5898 -1.1995
 7654TIP3   OH244376   5.421   3.755  12.298 -0.2712 -0.2037 -0.1795
 7654TIP3    H144377   5.417   3.850  12.310  1.3699 -0.1324 -0.0395
 7654TIP3    H244378   5.331   3.726  12.315 -0.1356  0.9047  3.4625
 7655TIP3   OH244379   1.815   4.138  16.840 -0.2508  0.0049  0.2491
 7655TIP3    H144380   1.847   4.201  16.905 -1.4885  0.2044  0.7022
 7655TIP3    H244381   1.805   4.056  16.889  0.2812 -0.2601 -0.0717
 7656TIP3   OH244382   5.178   2.003  17.047  0.1661  0.0985  0.6655
 7656TIP3    H144383   5.090   1.996  17.010 -0.2973 -0.0438  1.7395
 7656TIP3    H244384   5.195   1.917  17.085  1.8893 -0.7733 -1.8238
 7657TIP3   OH244385   1.219   4.901   3.213  0.1422 -0.4069 -0.1570
 7657TIP3    H144386   1.125   4.917   3.226  0.2772  1.0586 -0.7623
 7657TIP3    H244387   1.231   4.809   3.236 -0.9475  0.0246  2.6276
 7658TIP3   OH244388   6.420   0.656  12.927  0.2599 -0.0882  0.1445
 7658TIP3    H144389   6.371   0.700  12.996  0.0466  1.8856 -1.2118
 7658TIP3    H244390   6.494   0.616  12.972 -1.3440 -1.2501  1.8983
 7659TIP3   OH244391   4.103   5.134   2.225  0.1363 -0.3125  0.4243
 7659TIP3    H144392   4.054   5.117   2.306  1.8170 -1.2968  1.3050
 7659TIP3    H244393   4.159   5.208   2.246 -1.0876  0.9746 -0.6570
 7660TIP3   OH244394   2.618   1.487   0.342 -0.4082  0.1768  0.3002
 7660TIP3    H144395   2.673   1.425   0.390 -1.3128 -0.1920  0.8998
 7660TIP3    H244396   2.674   1.521   0.273  0.3197 -0.7974  0.3860
 7661TIP3   OH244397   1.478   4.314   1.735  0.1903  0.5395 -0.3333
 7661TIP3    H144398   1.570   4.339   1.742 -0.1124  1.8556 -0.6514
 7661TIP3    H244399   1.467   4.288   1.643 -0.0502  1.7819 -0.6788
 7662TIP3   OH244400   0.507   6.541  11.123  0.2184  0.2218  0.6080
 7662TIP3    H144401   0.460   6.604  11.067  2.5194  3.1721  1.7097
 7662TIP3    H244402   0.596   6.540  11.088  0.1911 -2.8868  0.3912
 7663TIP3   OH244403   6.785   1.647   0.881  0.3277 -0.3274 -0.3224
 7663TIP3    H144404   6.820   1.561   0.903 -1.7274 -0.7245  1.9180
 7663TIP3    H244405   6.780   1.648   0.786 -0.9710 -3.3340 -0.3955
 7664TIP3   OH244406   4.705   3.853   4.105 -0.1624 -0.4327 -0.5279
 7664TIP3    H144407   4.722   3.924   4.043  0.4595 -0.6440 -0.6061
 7664TIP3    H244408   4.612   3.834   4.096 -0.4093  0.6022 -0.2677
 7665TIP3   OH244409   2.147   2.834  14.159 -0.1146  0.5840  0.2292
 7665TIP3    H144410   2.189   2.768  14.215  0.4661 -0.6018 -1.5276
 7665TIP3    H244411   2.113   2.899  14.221 -0.9555 -1.4688  2.0731
 7666TIP3   OH244412   1.276   2.997  12.877  0.1258 -0.0554  0.5661
 7666TIP3    H144413   1.265   3.053  12.800 -1.2114  0.9355  1.4307
 7666TIP3    H244414   1.274   2.908  12.842 -2.1876  0.3038 -0.4280
 7667TIP3   OH244415   4.603   3.744  13.904 -0.5675 -0.2149 -0.0948
 7667TIP3    H144416   4.676   3.781  13.952 -0.7771  1.3565 -0.8972
 7667TIP3    H244417   4.564   3.680  13.963  1.9134 -1.7178  0.0492
 7668TIP3   OH244418   2.805   2.507  14.314  0.5901  0.5355 -0.2159
 7668TIP3    H144419   2.751   2.567  14.263 -0.4198 -0.6677 -0.6291
 7668TIP3    H244420   2.754   2.426  14.317  1.8992 -0.3075  0.3181
 7669TIP3   OH244421   2.462   4.259   0.136  0.5263 -0.0539 -0.3960
 7669TIP3    H144422   2.450   4.189   0.201 -0.5304  0.9270  0.5011
 7669TIP3    H244423   2.394   4.323   0.156  1.8653  1.5699 -0.7811
 7670TIP3   OH244424   0.403   6.373   1.290  0.1698 -0.4474 -0.2736
 7670TIP3    H144425   0.407   6.280   1.315  0.8708 -0.4179 -0.2571
 7670TIP3    H244426   0.403   6.420   1.374  1.5355 -0.3815 -0.2935
 7671TIP3   OH244427   3.081   6.744  13.534  0.0150  0.1959 -0.7869
 7671TIP3    H144428   3.167   6.710  13.560 -1.0240 -0.1097  2.7799
 7671TIP3    H244429   3.031   6.667  13.507 -0.3994 -0.2937  1.2604
 7672TIP3   OH244430   3.971   5.994   4.372 -0.1309 -0.3398  0.3741
 7672TIP3    H144431   4.037   5.925   4.363 -2.3856 -2.4721 -1.1781
 7672TIP3    H244432   3.933   6.002   4.284 -3.8948 -1.3889  1.7162
 7673TIP3   OH244433   6.775   3.892   1.665 -0.4277 -0.0601  0.3630
 7673TIP3    H144434   6.728   3.963   1.709 -0.5295 -0.8197  1.5338
 7673TIP3    H244435   6.799   3.832   1.736  0.9414 -0.4692 -0.4119
 7674TIP3   OH244436   5.133   0.319  15.206  0.1816 -0.6625  0.6844
 7674TIP3    H144437   5.206   0.317  15.144 -0.9413  0.7484 -0.7659
 7674TIP3    H244438   5.174   0.323  15.292  1.7902 -1.7215  0.0131
 7675TIP3   OH244439   5.125   4.722  17.034  0.0239  0.4701 -0.0322
 7675TIP3    H144440   5.183   4.725  17.110  1.8434 -0.8188 -1.2943
 7675TIP3    H244441   5.038   4.741  17.070  0.4666 -1.9099  2.7402
 7676TIP3   OH244442   4.545   1.715  16.151  0.2825 -0.0623 -0.1722
 7676TIP3    H144443   4.619   1.671  16.192 -1.0485 -0.5303  1.8545
 7676TIP3    H244444   4.501   1.647  16.101 -0.5857 -0.5852  1.2623
 7677TIP3   OH244445   3.483   5.676   4.122 -0.1266  0.0392  0.3143
 7677TIP3    H144446   3.489   5.586   4.155 -2.7057 -0.0838  0.6305
 7677TIP3    H244447   3.391   5.700   4.134 -0.0353  1.8827 -1.9297
 7678TIP3   OH244448   3.867   2.604  14.601  0.2156 -0.5021 -0.9667
 7678TIP3    H144449   3.842   2.621  14.511  0.9256  0.6957 -0.9553
 7678TIP3    H244450   3.958   2.634  14.607  0.4067 -1.2059 -0.0329
 7679TIP3   OH244451   1.473   5.139   3.249 -0.1073 -0.2207 -0.0786
 7679TIP3    H144452   1.462   5.152   3.155  0.2260  3.2711  0.2409
 7679TIP3    H244453   1.384   5.144   3.284 -0.0721  0.3427 -0.0594
 7680TIP3   OH244454   3.175   4.989  13.530 -0.0154  0.1748 -0.4748
 7680TIP3    H144455   3.254   4.997  13.584  0.0305  0.4550 -0.5794
 7680TIP3    H244456   3.207   5.003  13.440 -0.1394  0.0138 -0.5426
 7681TIP3   OH244457   0.293   5.435   3.419  0.6527  0.0817 -0.1695
 7681TIP3    H144458   0.330   5.521   3.439  0.0479  0.7928 -1.9355
 7681TIP3    H244459   0.242   5.448   3.339 -0.2437 -1.7213  0.0473
 7682TIP3   OH244460   5.442   5.540   1.370  0.4115 -0.2775 -0.3773
 7682TIP3    H144461   5.402   5.515   1.286  0.4247 -0.0426 -0.4549
 7682TIP3    H244462   5.512   5.601   1.346 -0.6640  1.1264 -0.0918
 7683TIP3   OH244463   3.927   2.808  16.295 -0.0211  0.2250  0.0634
 7683TIP3    H144464   3.892   2.724  16.265 -1.7240  0.5679  0.9573
 7683TIP3    H244465   3.946   2.856  16.214 -0.8607 -0.3047 -0.4693
 7684TIP3   OH244466   0.446   3.243  15.256  0.2824  0.3974  0.2380
 7684TIP3    H144467   0.479   3.294  15.182  2.1240  0.3745  0.9753
 7684TIP3    H244468   0.473   3.153  15.237  0.3625  0.3173  0.7120
 7685TIP3   OH244469   0.475   2.626  10.897  0.0698  0.1223 -0.2419
 7685TIP3    H144470   0.434   2.639  10.811 -0.6956  1.3412  0.2775
 7685TIP3    H244471   0.506   2.713  10.921 -0.9953  0.0958  1.3457
 7686TIP3   OH244472   1.956   6.747  15.857  0.0504  0.4557  0.1833
 7686TIP3    H144473   2.031   6.687  15.860 -0.7895 -0.8284 -2.2154
 7686TIP3    H244474   1.889   6.703  15.909 -0.2675 -0.2784 -0.8266
 7687TIP3   OH244475   1.260   1.076   3.336 -0.2023  0.8632 -0.5317
 7687TIP3    H144476   1.344   1.030   3.345 -1.3211 -1.0495  0.9212
 7687TIP3    H244477   1.281   1.168   3.350  1.1844  0.1033  3.7612
 7688TIP3   OH244478   5.470   1.932   6.755 -0.6904 -0.3836 -0.5662
 7688TIP3    H144479   5.506   1.875   6.687  1.0396 -0.1681  0.1195
 7688TIP3    H244480   5.468   2.019   6.715 -0.6311 -0.4274 -0.6638
 7689TIP3   OH244481   1.733   6.445  13.157  0.3774 -0.3455 -0.0403
 7689TIP3    H144482   1.734   6.428  13.063 -1.5096 -0.8312 -0.0125
 7689TIP3    H244483   1.700   6.534  13.165  0.0879 -0.4699  0.1677
 7690TIP3   OH244484   3.979   2.504   0.575 -0.1264  0.2700 -0.6208
 7690TIP3    H144485   4.041   2.487   0.504  1.4175 -1.8957  1.0965
 7690TIP3    H244486   3.895   2.474   0.542  0.0217  1.6396 -2.3729
 7691TIP3   OH244487   1.114   4.339  12.105  0.1327 -0.1113  0.5854
 7691TIP3    H144488   1.125   4.384  12.021  0.4016 -1.2794 -0.0322
 7691TIP3    H244489   1.159   4.394  12.169 -0.4198  1.0031  0.0441
 7692TIP3   OH244490   1.003   6.136  16.467  0.1132 -0.0635 -0.2830
 7692TIP3    H144491   1.002   6.155  16.560  2.2814 -1.3292  0.0601
 7692TIP3    H244492   0.925   6.180  16.433 -1.1900 -0.2393  2.2268
 7693TIP3   OH244493   1.888   1.933   5.719 -0.7747  0.2843 -0.1227
 7693TIP3    H144494   1.975   1.893   5.712 -0.0464  1.6078  0.9688
 7693TIP3    H244495   1.850   1.896   5.798 -0.7277  0.5575  0.0312
 7694TIP3   OH244496   2.572   2.754  11.931  0.2639  0.0732 -0.3412
 7694TIP3    H144497   2.575   2.831  11.987  0.3715  0.1902 -0.5057
 7694TIP3    H244498   2.663   2.726  11.923  0.0979 -0.9324  0.8935
 7695TIP3   OH244499   3.101   5.006   3.544 -0.2623  0.1511  0.0733
 7695TIP3    H144500   3.065   5.007   3.455 -0.5688  2.2398  0.1771
 7695TIP3    H244501   3.082   5.093   3.579  0.3473 -0.4380  2.0032
 7696TIP3   OH244502   6.435   3.785   1.094  0.1050 -0.1488  0.6392
 7696TIP3    H144503   6.386   3.801   1.174 -0.8467  1.9184 -0.2631
 7696TIP3    H244504   6.445   3.690   1.090 -0.4177 -0.3503  2.8222
 7697TIP3   OH244505   1.657   2.278  16.950 -0.2425 -0.3936  0.6811
 7697TIP3    H144506   1.610   2.244  16.874  0.0507 -1.8240  1.1126
 7697TIP3    H244507   1.591   2.283  17.018 -0.9218  2.5596 -0.0713
 7698TIP3   OH244508   0.794   2.321  11.989 -0.3534  0.3869 -1.4132
 7698TIP3    H144509   0.700   2.331  11.977 -0.3862  0.0917 -1.4065
 7698TIP3    H244510   0.831   2.340  11.903 -0.4757 -0.2095 -1.6044
 7699TIP3   OH244511   6.506   5.854   5.892  0.2375 -0.3222  0.6140
 7699TIP3    H144512   6.447   5.859   5.967 -1.4539  0.7236 -0.7173
 7699TIP3    H244513   6.531   5.944   5.874  2.5968 -0.7636  1.3445
 7700TIP3   OH244514   1.926   1.895   2.020  0.4697  0.4843 -0.0697
 7700TIP3    H144515   1.943   1.853   2.104  0.8138 -1.8040 -1.1968
 7700TIP3    H244516   1.831   1.893   2.011  0.5062 -0.6891 -0.3703
 7701TIP3   OH244517   1.848   2.555  15.949 -0.2045 -0.3011 -0.2303
 7701TIP3    H144518   1.813   2.620  15.888 -0.4725  2.2449  2.3549
 7701TIP3    H244519   1.928   2.524  15.908 -0.0691  1.7067 -1.6602
 7702TIP3   OH244520   2.546   5.990  10.840  0.1606  0.1203 -0.6888
 7702TIP3    H144521   2.476   5.934  10.806  1.6101 -1.8282 -0.6722
 7702TIP3    H244522   2.577   6.039  10.764  0.0844 -0.4929 -1.1248
 7703TIP3   OH244523   3.872   2.450  11.213  0.0658 -0.5185 -0.2232
 7703TIP3    H144524   3.928   2.415  11.144  1.3401  0.5533  0.2261
 7703TIP3    H244525   3.818   2.516  11.169  0.6282 -0.0852 -0.2668
 7704TIP3   OH244526   2.257   1.615   5.299  0.3701  0.0176  0.3584
 7704TIP3    H144527   2.322   1.661   5.245  1.3132 -0.4373  1.0622
 7704TIP3    H244528   2.302   1.602   5.382 -0.0943 -1.6384  0.3689
 7705TIP3   OH244529   1.663   3.608  15.959  0.9091  0.1435 -0.0254
 7705TIP3    H144530   1.609   3.663  16.016  2.3946  0.8235  0.7934
 7705TIP3    H244531   1.639   3.634  15.870  2.1325  2.7556  0.3237
 7706TIP3   OH244532   4.290   0.522   1.668 -0.2666  0.1841  0.4951
 7706TIP3    H144533   4.258   0.439   1.703 -0.3593 -0.1468 -0.3606
 7706TIP3    H244534   4.377   0.532   1.706 -0.5100  0.0153  1.1080
 7707TIP3   OH244535   4.670   5.935   4.131  0.7446  0.4062  0.4694
 7707TIP3    H144536   4.705   5.924   4.043  0.8317  3.0427  0.0866
 7707TIP3    H244537   4.746   5.924   4.188  0.8386 -0.5409  0.1797
 7708TIP3   OH244538   1.355   0.339   1.907 -0.0232 -0.1858 -0.0304
 7708TIP3    H144539   1.368   0.261   1.853 -0.1444 -0.2970  0.1035
 7708TIP3    H244540   1.319   0.307   1.989  1.1800 -0.1467  0.5449
 7709TIP3   OH244541   5.564   5.011   2.719  0.1344  0.3482 -0.0773
 7709TIP3    H144542   5.472   5.038   2.721 -0.5882 -1.1398 -3.9967
 7709TIP3    H244543   5.612   5.092   2.704 -1.0462  0.7468 -2.1690
 7710TIP3   OH244544   6.651   5.560  14.123  0.0079 -0.2017 -0.2866
 7710TIP3    H144545   6.701   5.636  14.152  2.2856 -1.2405 -1.2708
 7710TIP3    H244546   6.687   5.487  14.173 -1.6417 -0.7817  0.1191
 7711TIP3   OH244547   1.254   1.565   3.678 -0.2398 -0.3025 -0.6016
 7711TIP3    H144548   1.204   1.612   3.745  2.2513  1.7490 -0.0070
 7711TIP3    H244549   1.333   1.535   3.723 -0.6885 -3.2204 -1.5452
 7712TIP3   OH244550   4.512   5.526   2.401 -0.1092  0.0894  0.3541
 7712TIP3    H144551   4.447   5.496   2.465  0.8184  1.1117  1.8097
 7712TIP3    H244552   4.531   5.448   2.349  0.2942 -1.2135  2.3503
 7713TIP3   OH244553   5.798   1.429   0.871  0.6065  0.1413  0.5611
 7713TIP3    H144554   5.731   1.446   0.804  0.1575  2.3511  1.4756
 7713TIP3    H244555   5.878   1.468   0.835  0.2580  1.7468  1.4491
 7714TIP3   OH244556   1.957   3.491  15.028  0.0787  0.1646  0.1321
 7714TIP3    H144557   2.016   3.518  14.958 -0.0701 -0.4562 -0.2338
 7714TIP3    H244558   1.880   3.456  14.983  0.4742 -1.3580  0.5728
 7715TIP3   OH244559   5.602   6.785  11.125 -0.2914 -0.0341 -0.0849
 7715TIP3    H144560   5.576   6.722  11.058  0.2388  1.8395 -2.1995
 7715TIP3    H244561   5.648   6.854  11.076 -1.1494  2.1769  2.0258
 7716TIP3   OH244562   3.988   6.435  13.351 -0.5113 -0.0209 -0.5752
 7716TIP3    H144563   3.966   6.390  13.432 -1.4200  1.9436  0.3556
 7716TIP3    H244564   3.924   6.404  13.288 -0.2919 -0.9822 -0.3410
 7717TIP3   OH244565   3.432   1.650  10.913 -0.3357 -0.2251  0.7515
 7717TIP3    H144566   3.371   1.682  10.847 -0.2896  0.1722  0.8995
 7717TIP3    H244567   3.463   1.729  10.958 -0.1358 -0.4667  1.0453
 7718TIP3   OH244568   2.530   1.317   0.681 -0.5994 -0.1273 -0.1274
 7718TIP3    H144569   2.469   1.384   0.651 -0.3610 -0.7993 -2.2735
 7718TIP3    H244570   2.598   1.366   0.727 -1.2616  0.9101 -0.1992
 7719TIP3   OH244571   5.634   3.927  14.799 -0.2518 -0.8403  0.1877
 7719TIP3    H144572   5.720   3.935  14.756  0.5344 -2.0411  1.4677
 7719TIP3    H244573   5.601   3.842  14.769  0.1966 -1.5791  1.6913
 7720TIP3   OH244574   3.130   2.064   4.046 -0.2158 -0.6554 -0.3763
 7720TIP3    H144575   3.079   2.025   4.117 -0.7153  0.0627 -0.3360
 7720TIP3    H244576   3.066   2.078   3.976  0.3100 -1.5401 -1.0480
 7721TIP3   OH244577   5.702   5.566   1.653 -0.5490 -0.4580  0.1026
 7721TIP3    H144578   5.653   5.647   1.641  1.5510  0.6555 -1.5754
 7721TIP3    H244579   5.637   5.497   1.639 -1.7347  0.9211 -1.7799
 7722TIP3   OH244580   0.226   3.265   4.377 -0.3832  0.3751  0.3398
 7722TIP3    H144581   0.186   3.250   4.463 -0.9728  0.4043  0.0776
 7722TIP3    H244582   0.153   3.258   4.315  0.1952 -0.6514 -0.2582
 7723TIP3   OH244583   3.685   0.309  12.059  0.3092  0.8861 -0.3918
 7723TIP3    H144584   3.654   0.392  12.021 -0.7002  1.4412  1.4953
 7723TIP3    H244585   3.626   0.243  12.024 -0.8202  1.4364  0.4068
 7724TIP3   OH244586   6.020   6.357   2.440  0.1116 -0.2104 -0.1809
 7724TIP3    H144587   5.943   6.407   2.413 -1.8766 -2.4137  1.1309
 7724TIP3    H244588   6.032   6.292   2.370 -0.7347 -1.4058  0.7551
 7725TIP3   OH244589   3.780   6.235  16.373  0.0785 -0.8494 -0.2574
 7725TIP3    H144590   3.762   6.240  16.467  0.1042  0.7731 -0.2965
 7725TIP3    H244591   3.713   6.176  16.339  0.6642 -2.2325  0.8953
 7726TIP3   OH244592   0.667   0.974   2.901  0.1911  0.1284 -0.1816
 7726TIP3    H144593   0.608   0.913   2.945  0.8138  0.5095  1.2317
 7726TIP3    H244594   0.755   0.946   2.928  0.5372  1.0251 -0.3474
 7727TIP3   OH244595   3.544   5.162   4.070  0.1998 -0.7987  0.5739
 7727TIP3    H144596   3.506   5.250   4.078  1.6566 -0.0902 -0.0649
 7727TIP3    H244597   3.601   5.153   4.146  1.1322 -0.6172 -0.0831
 7728TIP3   OH244598   2.998   4.866   3.843  0.0530  0.0607  0.4882
 7728TIP3    H144599   3.036   4.787   3.884  0.2364 -0.1975 -0.1616
 7728TIP3    H244600   3.072   4.926   3.834  0.0093  0.1246  0.5598
 7729TIP3   OH244601   5.165   3.153  15.284 -0.3227 -0.7282  0.3724
 7729TIP3    H144602   5.239   3.148  15.223  0.1272 -2.4246  0.9832
 7729TIP3    H244603   5.098   3.202  15.238  1.7731  2.4759  0.4641
 7730TIP3   OH244604   1.850   2.245   0.135 -0.3297 -0.4400 -0.3741
 7730TIP3    H144605   1.895   2.181   0.191 -1.5248 -1.7256 -0.8280
 7730TIP3    H244606   1.892   2.328   0.156  1.1679 -1.3340  0.3626
 7731TIP3   OH244607   3.802   2.697  13.950  0.1340  0.1713  0.3816
 7731TIP3    H144608   3.723   2.651  13.980  0.2064 -0.2767 -0.1084
 7731TIP3    H244609   3.802   2.778  14.001 -1.0221  0.4976 -0.1058
 7732TIP3   OH244610   0.676   2.388  12.605 -0.1668  0.1561 -0.3299
 7732TIP3    H144611   0.764   2.424  12.596 -0.6014  1.0615 -1.2907
 7732TIP3    H244612   0.670   2.361  12.696  1.3819 -0.7018 -0.4533
 7733TIP3   OH244613   0.132   3.777  16.756 -0.2998 -0.1393  1.0135
 7733TIP3    H144614   0.049   3.820  16.733 -1.8835 -3.0300  0.8332
 7733TIP3    H244615   0.182   3.776  16.675 -1.4099 -1.0176  0.3100
 7734TIP3   OH244616   5.221   2.614   2.179  0.0171 -0.5917  0.1782
 7734TIP3    H144617   5.155   2.552   2.148 -1.8086  2.3470 -2.3506
 7734TIP3    H244618   5.288   2.614   2.110 -0.7265  1.1962 -0.5909
 7735TIP3   OH244619   0.247   4.211  12.509  0.5544  0.4613 -0.4153
 7735TIP3    H144620   0.160   4.213  12.469 -0.0119 -2.0062  0.5257
 7735TIP3    H244621   0.290   4.135  12.469  1.5719  0.5459  0.4684
 7736TIP3   OH244622   5.336   5.103   4.312 -0.1888 -0.7140  0.3243
 7736TIP3    H144623   5.331   5.137   4.222 -0.6335  1.3630  1.0617
 7736TIP3    H244624   5.260   5.141   4.356  2.0716  1.6686  2.5752
 7737TIP3   OH244625   0.530   2.632   2.160 -0.0423 -0.7634 -0.1136
 7737TIP3    H144626   0.535   2.593   2.247  0.6280 -1.1843 -0.3327
 7737TIP3    H244627   0.447   2.602   2.124  0.0333 -1.2161  0.0870
 7738TIP3   OH244628   1.525   0.916   3.028  0.1975 -0.4051  0.2198
 7738TIP3    H144629   1.440   0.947   2.998 -1.6062 -2.9434  2.2192
 7738TIP3    H244630   1.552   0.853   2.962 -0.6383 -1.2666  0.6726
 7739TIP3   OH244631   5.447   0.940   1.954  0.0908 -0.3536  0.3837
 7739TIP3    H144632   5.477   0.931   1.864  0.4624 -0.9891  0.5682
 7739TIP3    H244633   5.358   0.905   1.954 -1.5126  3.2365 -0.5809
 7740TIP3   OH244634   4.476   3.153  16.119 -0.2524 -0.7127  0.0559
 7740TIP3    H144635   4.470   3.223  16.184 -0.5974 -1.5494  0.9315
 7740TIP3    H244636   4.566   3.155  16.089 -0.0540 -0.4197  0.6639
 7741TIP3   OH244637   6.349   5.759   2.344 -0.2268  0.0129  0.3171
 7741TIP3    H144638   6.262   5.742   2.380 -0.6821 -0.7623 -1.0773
 7741TIP3    H244639   6.404   5.689   2.379 -0.4912 -0.3142  0.0721
 7742TIP3   OH244640   3.300   5.055   2.353 -0.6835 -0.4337  0.0874
 7742TIP3    H144641   3.386   5.092   2.372 -1.3307  0.2152  2.1243
 7742TIP3    H244642   3.251   5.127   2.313 -0.2990 -0.8075 -1.0851
 7743TIP3   OH244643   4.347   2.958  13.623  0.3926 -0.1239  0.2815
 7743TIP3    H144644   4.288   2.892  13.586 -0.3142  0.2218  0.7708
 7743TIP3    H244645   4.425   2.953  13.568 -0.9836  1.0667 -1.9539
 7744TIP3   OH244646   1.217   6.567   4.758 -0.1830  0.0545  0.6484
 7744TIP3    H144647   1.181   6.622   4.828  1.5555  3.1867 -0.6878
 7744TIP3    H244648   1.172   6.597   4.679 -2.0635 -3.3719  0.2545
 7745TIP3   OH244649   1.625   4.246  10.589  0.2005  0.1084  0.1077
 7745TIP3    H144650   1.636   4.182  10.519  0.8527  1.0542 -0.6813
 7745TIP3    H244651   1.577   4.318  10.549  1.1288  0.9394  0.4430
 7746TIP3   OH244652   5.635   2.267  14.045  0.2813 -0.4171  0.0317
 7746TIP3    H144653   5.583   2.299  14.118  1.5969 -0.5656  1.0790
 7746TIP3    H244654   5.661   2.346  13.997  0.0207 -0.2578  0.1563
 7747TIP3   OH244655   5.397   5.841   4.120 -0.7892 -0.0590 -0.0743
 7747TIP3    H144656   5.478   5.800   4.090 -1.4441 -0.7841 -0.9097
 7747TIP3    H244657   5.409   5.934   4.101  0.6879  0.2007  1.7900
 7748TIP3   OH244658   1.188   3.963  15.111 -0.7826 -0.1506 -0.1136
 7748TIP3    H144659   1.176   4.032  15.176 -1.2369 -0.4618  0.1407
 7748TIP3    H244660   1.249   3.902  15.151 -0.1648  0.2355 -0.4499
 7749TIP3   OH244661   4.092   1.487  14.098 -0.0843 -0.7826 -0.1711
 7749TIP3    H144662   4.141   1.420  14.145 -0.6333 -0.5706  0.7194
 7749TIP3    H244663   4.046   1.440  14.029  0.3911 -1.1582 -0.2331
 7750TIP3   OH244664   4.200   0.475   2.039  0.2681 -0.6665 -0.0545
 7750TIP3    H144665   4.278   0.423   2.019 -0.4309 -1.7983  0.0894
 7750TIP3    H244666   4.136   0.411   2.069 -0.1360  0.4678  1.5929
 7751TIP3   OH244667   4.314   3.575  11.466 -0.1256 -0.2231  0.2400
 7751TIP3    H144668   4.392   3.624  11.492 -0.3166 -0.5364  1.4376
 7751TIP3    H244669   4.290   3.612  11.381  0.1566  1.2597  0.7776
 7752TIP3   OH244670   1.954   5.716  14.084 -0.0777 -0.3114  0.0407
 7752TIP3    H144671   1.902   5.689  14.160 -0.6677  1.3185  0.2397
 7752TIP3    H244672   2.023   5.649  14.078 -0.6483 -1.0619  1.3455
 7753TIP3   OH244673   2.683   5.588   0.128 -0.4789  0.0065  0.1137
 7753TIP3    H144674   2.696   5.668   0.077 -1.6947  0.4395  0.4533
 7753TIP3    H244675   2.604   5.605   0.180 -0.3696 -1.1612  0.6902
 7754TIP3   OH244676   1.288   2.693  12.884 -0.3154  0.1586  0.0063
 7754TIP3    H144677   1.292   2.621  12.822 -0.9524 -0.2910  0.4785
 7754TIP3    H244678   1.310   2.654  12.968 -0.8998  0.4513  0.3054
 7755TIP3   OH244679   5.973   6.390  11.477 -0.0139 -0.0292 -0.0341
 7755TIP3    H144680   5.955   6.305  11.437  1.1949 -0.4054  0.1737
 7755TIP3    H244681   5.887   6.429  11.489 -0.4869 -0.2985 -2.1045
 7756TIP3   OH244682   1.153   0.631  13.190 -0.1336 -0.7043 -0.4157
 7756TIP3    H144683   1.112   0.717  13.199  1.1037 -0.1817  0.5287
 7756TIP3    H244684   1.161   0.617  13.096  2.7157  1.7603 -0.6725
 7757TIP3   OH244685   1.008   0.225  14.468 -0.4629  0.3184 -0.6808
 7757TIP3    H144686   1.086   0.253  14.419  0.4409 -0.2812  0.3523
 7757TIP3    H244687   0.954   0.180  14.404  0.8228 -0.6884 -1.1107
 7758TIP3   OH244688   5.251   1.715  13.283  0.5726 -0.4516 -0.1158
 7758TIP3    H144689   5.270   1.805  13.255  1.2982 -0.4843  0.2378
 7758TIP3    H244690   5.160   1.718  13.313  0.7848  0.3186  0.4907
 7759TIP3   OH244691   6.221   3.544   1.324  0.3024  0.2179  0.2923
 7759TIP3    H144692   6.175   3.628   1.320  0.3367  0.1902 -1.5367
 7759TIP3    H244693   6.311   3.567   1.349  0.1039  0.6212  0.6500
 7760TIP3   OH244694   2.865   3.243   5.786 -0.0311 -0.6254  0.1601
 7760TIP3    H144695   2.937   3.303   5.766  1.2108 -2.8021 -2.4512
 7760TIP3    H244696   2.906   3.171   5.834 -0.8460 -1.0351  0.2654
 7761TIP3   OH244697   4.672   3.478  10.798  0.3366  0.2396  0.4488
 7761TIP3    H144698   4.735   3.525  10.743 -0.5504 -0.2653 -1.0537
 7761TIP3    H244699   4.587   3.510  10.770 -0.1598 -0.1249  1.4764
 7762TIP3   OH244700   5.043   6.334  12.702  0.1298  0.1141  0.3422
 7762TIP3    H144701   5.008   6.422  12.688 -0.5058 -0.5818 -3.2083
 7762TIP3    H244702   5.093   6.314  12.623  0.5366 -2.6095  1.1731
 7763TIP3   OH244703   0.449   2.278   4.016  0.1882  0.6153  0.7099
 7763TIP3    H144704   0.457   2.295   3.922 -0.7398 -2.4286 -0.0283
 7763TIP3    H244705   0.537   2.249   4.043 -0.3735 -2.3537 -0.2419
 7764TIP3   OH244706   2.996   0.187  13.506 -0.7592  0.5869 -0.0753
 7764TIP3    H144707   3.019   0.116  13.566 -0.7915 -0.5157 -1.3302
 7764TIP3    H244708   3.057   0.178  13.433 -1.8600  0.7841 -1.0509
 7765TIP3   OH244709   1.018   1.444   2.711  0.0813  0.4469  0.0030
 7765TIP3    H144710   0.944   1.489   2.669  0.2851  0.8983  0.1232
 7765TIP3    H244711   0.986   1.355   2.725 -0.1347  0.3952 -0.7452
 7766TIP3   OH244712   1.164   0.136   5.502 -0.5451 -0.5237  0.7945
 7766TIP3    H144713   1.155   0.202   5.433 -0.5853 -0.0440  1.2598
 7766TIP3    H244714   1.207   0.062   5.458 -1.4098 -0.5846  0.0214
 7767TIP3   OH244715   4.115   3.532  15.767  0.0991 -0.5251 -0.2680
 7767TIP3    H144716   4.199   3.486  15.768  1.0266  1.1065 -0.3983
 7767TIP3    H244717   4.138   3.624  15.759 -1.6804  0.0492  0.6712
 7768TIP3   OH244718   2.196   5.423   2.982  0.3271  0.3465 -0.3173
 7768TIP3    H144719   2.128   5.463   3.036 -0.2700 -2.3889  1.1330
 7768TIP3    H244720   2.255   5.496   2.960 -1.3680  2.2281  0.9581
 7769TIP3   OH244721   3.422   1.906   0.053 -0.2008  0.0711 -0.4096
 7769TIP3    H144722   3.470   1.824   0.042 -0.9420 -0.4483  0.1466
 7769TIP3    H244723   3.481   1.973   0.018 -0.1788 -0.8588 -2.2967
 7770TIP3   OH244724   6.202   0.721  14.896  0.2258 -0.6187  0.4105
 7770TIP3    H144725   6.174   0.642  14.848 -0.2622 -0.5445  0.5623
 7770TIP3    H244726   6.123   0.775  14.900  0.1568 -0.7776  1.6086
 7771TIP3   OH244727   6.664   0.846   3.943 -0.3773  0.5243 -0.6326
 7771TIP3    H144728   6.703   0.774   3.992 -0.9635 -0.1669 -1.1439
 7771TIP3    H244729   6.570   0.838   3.959 -0.3321  2.2460  0.6941
 7772TIP3   OH244730   5.288   3.536   1.313 -0.2386  0.1651  0.1737
 7772TIP3    H144731   5.293   3.630   1.296 -0.5656  0.2100  0.3247
 7772TIP3    H244732   5.330   3.524   1.398  1.3209 -0.0493 -0.5771
 7773TIP3   OH244733   6.355   6.681   2.572 -0.0471  0.1865 -0.7959
 7773TIP3    H144734   6.408   6.761   2.572  0.7248 -0.2748  0.7636
 7773TIP3    H244735   6.337   6.664   2.480 -0.0214  2.0163 -1.1749
 7774TIP3   OH244736   2.673   6.080  16.112 -0.1504  0.3110 -0.0662
 7774TIP3    H144737   2.705   6.084  16.202  0.2069 -1.2248 -0.0990
 7774TIP3    H244738   2.613   6.154  16.104  1.0788  1.4581  0.9148
 7775TIP3   OH244739   0.083   2.281   1.451  0.0625 -0.8929 -0.1133
 7775TIP3    H144740   0.039   2.314   1.529  0.6414  0.9285 -0.4991
 7775TIP3    H244741   0.034   2.318   1.378  1.7060  0.6085 -0.5515
 7776TIP3   OH244742   2.571   6.282  16.728  0.1959  0.3478  0.0820
 7776TIP3    H144743   2.493   6.289  16.783  0.6869 -0.0212  0.8522
 7776TIP3    H244744   2.637   6.335  16.774  0.7710 -0.4061  0.1492
 7777TIP3   OH244745   2.161   1.760   2.093 -0.0430  0.6631  0.6636
 7777TIP3    H144746   2.112   1.811   2.029  0.4391  0.5295  0.1866
 7777TIP3    H244747   2.114   1.676   2.097  1.6853 -0.5232 -1.8499
 7778TIP3   OH244748   0.390   4.878   1.103 -0.0011  0.2479  0.4110
 7778TIP3    H144749   0.324   4.948   1.103  1.1209  1.3431  1.4302
 7778TIP3    H244750   0.452   4.904   1.035  0.8450  0.6894  1.3267
 7779TIP3   OH244751   0.518   5.279   1.900 -0.2106  0.0036  0.6436
 7779TIP3    H144752   0.551   5.361   1.862  0.6680 -0.1781  0.9750
 7779TIP3    H244753   0.424   5.293   1.911 -0.3514  0.3593 -0.8256
 7780TIP3   OH244754   6.408   3.008   4.908 -0.5193 -0.3338  0.2074
 7780TIP3    H144755   6.348   2.935   4.922 -0.7089 -0.6755 -2.1291
 7780TIP3    H244756   6.493   2.967   4.892 -0.1172  0.0755  1.1619
 7781TIP3   OH244757   0.127   1.079   4.878  0.0144  0.3906 -0.0553
 7781TIP3    H144758   0.116   1.106   4.787 -0.6645  0.5860  0.0831
 7781TIP3    H244759   0.154   0.987   4.872 -1.8849 -0.1788 -0.4091
 7782TIP3   OH244760   6.164   4.568  15.717 -0.0743 -1.0008 -0.1028
 7782TIP3    H144761   6.182   4.658  15.744  2.2103 -1.1353 -0.9793
 7782TIP3    H244762   6.124   4.528  15.794  2.1380 -0.1488  1.6123
 7783TIP3   OH244763   5.970   0.251   4.997 -0.3584  0.2985 -0.0460
 7783TIP3    H144764   5.990   0.242   5.090 -2.2137  0.9335  0.4660
 7783TIP3    H244765   6.025   0.323   4.967  1.0413 -0.6014  0.2706
 7784TIP3   OH244766   2.642   0.051  12.622 -0.0570 -0.1552  0.0715
 7784TIP3    H144767   2.734   0.077  12.626 -0.1816  0.2347  0.7433
 7784TIP3    H244768   2.644  -0.039  12.591  0.5393 -0.0933 -0.0939
 7785TIP3   OH244769   1.620   4.419  12.479 -0.1134 -0.7375  0.3192
 7785TIP3    H144770   1.612   4.340  12.426  1.0083 -1.3159  0.9833
 7785TIP3    H244771   1.653   4.485  12.418 -0.3312 -0.9728 -0.0604
 7786TIP3   OH244772   5.579   5.830   4.406 -0.1759 -0.8762 -0.0376
 7786TIP3    H144773   5.496   5.859   4.445  0.2730  0.5393 -0.0777
 7786TIP3    H244774   5.559   5.744   4.369 -1.1960 -1.2802  1.3679
 7787TIP3   OH244775   5.336   4.457   0.018 -0.2377  0.0789 -0.8278
 7787TIP3    H144776   5.316   4.479   0.109 -0.9852  0.4943 -1.0806
 7787TIP3    H244777   5.256   4.414  -0.014  0.8707 -2.2861 -0.5979
 7788TIP3   OH244778   3.697   1.660   3.774 -0.4301 -0.1260  0.0806
 7788TIP3    H144779   3.791   1.673   3.786  0.0820 -2.3180 -1.0098
 7788TIP3    H244780   3.679   1.688   3.685 -0.9165  0.6681  0.4166
 7789TIP3   OH244781   0.276   0.741  14.693  0.3654 -0.2493  0.2388
 7789TIP3    H144782   0.371   0.728  14.684  0.0157 -2.6421 -1.0133
 7789TIP3    H244783   0.242   0.653  14.712 -1.6996  0.3633 -0.3839
 7790TIP3   OH244784   2.110   5.865  11.020 -0.0549  0.0415 -0.3056
 7790TIP3    H144785   2.079   5.776  11.001 -1.8640  0.4704  0.3652
 7790TIP3    H244786   2.035   5.921  10.999  0.6290  1.2854  0.4424
 7791TIP3   OH244787   1.393   0.325   2.650  0.3169 -0.4950 -0.4415
 7791TIP3    H144788   1.463   0.367   2.600  0.5420 -0.6037 -0.2229
 7791TIP3    H244789   1.403   0.232   2.633  0.8635 -0.6014  0.3806
 7792TIP3   OH244790   1.952   5.876  15.264  0.4308 -0.1439 -0.6949
 7792TIP3    H144791   1.952   5.840  15.175  2.3748  1.4226 -1.4038
 7792TIP3    H244792   2.001   5.813  15.316 -0.7815 -1.1066 -0.6904
 7793TIP3   OH244793   4.398   0.359   6.293  0.3505  0.2308  0.4656
 7793TIP3    H144794   4.406   0.454   6.289 -0.3283  0.2649 -2.7146
 7793TIP3    H244795   4.311   0.344   6.330  0.6972  0.8020  1.5392
 7794TIP3   OH244796   6.500   5.093   5.029 -0.1096  0.5555 -0.1043
 7794TIP3    H144797   6.562   5.148   4.981  1.8582  0.9225  2.6806
 7794TIP3    H244798   6.550   5.015   5.052 -1.6866 -0.6217 -0.4898
 7795TIP3   OH244799   6.523   1.276   2.971 -0.8668 -0.3701 -0.3823
 7795TIP3    H144800   6.485   1.288   2.884 -0.4128  0.5225 -0.4636
 7795TIP3    H244801   6.554   1.363   2.996  1.5028 -1.1150 -0.4954
 7796TIP3   OH244802   6.397   4.658  14.829 -0.1093  0.4078  0.1511
 7796TIP3    H144803   6.341   4.592  14.789 -0.2014 -1.4006  2.9387
 7796TIP3    H244804   6.337   4.717  14.874  0.0430  1.6347 -1.1968
 7797TIP3   OH244805   6.136   3.799  12.896  0.8230  0.4952 -0.1514
 7797TIP3    H144806   6.188   3.719  12.889 -1.0656 -0.7887 -0.3613
 7797TIP3    H244807   6.112   3.805  12.988  0.8413  0.7486 -0.1605
 7798TIP3   OH244808   3.051   2.312  10.708 -0.3970  0.2483  0.4424
 7798TIP3    H144809   2.995   2.235  10.712 -0.2549 -0.2229 -3.2751
 7798TIP3    H244810   3.012   2.367  10.640  1.2299  1.9885  0.8240
 7799TIP3   OH244811   6.460   1.667   4.495  0.0527  0.4203 -0.1832
 7799TIP3    H144812   6.488   1.713   4.574  0.8033  0.5116 -0.4994
 7799TIP3    H244813   6.375   1.705   4.473  0.7995  1.8887 -0.6267
 7800TIP3   OH244814   3.540   1.870  11.016 -0.1584 -0.4291 -0.2443
 7800TIP3    H144815   3.563   1.818  11.093  0.8234 -1.6759 -1.3137
 7800TIP3    H244816   3.620   1.919  10.996 -0.4565  0.0088 -0.3575
 7801TIP3   OH244817   0.416   3.413   1.509 -0.0208  0.0027 -0.0970
 7801TIP3    H144818   0.417   3.500   1.471  1.3391 -0.2143 -0.6118
 7801TIP3    H244819   0.437   3.426   1.602  0.9603  0.1697 -0.3324
 7802TIP3   OH244820   6.335   6.674  12.217  0.1839  0.3627 -0.4209
 7802TIP3    H144821   6.243   6.659  12.199  0.0202 -1.5799  1.6096
 7802TIP3    H244822   6.362   6.599  12.270  2.8181  1.1106 -0.5434
 7803TIP3   OH244823   1.150   4.685   3.914  0.8013  0.0502 -0.0234
 7803TIP3    H144824   1.153   4.590   3.898 -2.8614 -0.0925 -0.8595
 7803TIP3    H244825   1.158   4.693   4.009 -1.5413 -1.4774  0.4138
 7804TIP3   OH244826   1.800   5.624  15.219  0.1160  0.0805  0.1276
 7804TIP3    H144827   1.883   5.613  15.266 -0.4858 -0.6072  1.0572
 7804TIP3    H244828   1.750   5.685  15.271 -0.2242 -0.0158 -0.0814
 7805TIP3   OH244829   5.905   2.466   4.154  0.4586  0.6765  0.2923
 7805TIP3    H144830   5.970   2.401   4.181  0.0617  0.6693  1.2541
 7805TIP3    H244831   5.823   2.418   4.150  0.5880  0.5094 -1.6450
 7806TIP3   OH244832   3.836   3.171  17.058 -0.4017 -0.3536 -0.3560
 7806TIP3    H144833   3.910   3.232  17.068 -0.9976  0.0296  2.6062
 7806TIP3    H244834   3.784   3.208  16.987  1.2227  0.4346 -1.1998
 7807TIP3   OH244835   4.665   1.695   2.296 -0.3946 -0.1459  0.3832
 7807TIP3    H144836   4.734   1.629   2.304 -0.8973 -0.6036  1.1816
 7807TIP3    H244837   4.625   1.678   2.211 -0.5772 -0.9501  0.6135
 7808TIP3   OH244838   1.802   0.718   5.995  0.3818  0.5530 -0.5423
 7808TIP3    H144839   1.746   0.707   6.071  0.3779  0.5060 -0.5522
 7808TIP3    H244840   1.889   0.691   6.024  0.0653 -1.0766 -1.0350
 7809TIP3   OH244841   2.342   5.749   0.659  0.6735  0.1677  0.0929
 7809TIP3    H144842   2.296   5.765   0.741  1.7337  0.8525  0.5803
 7809TIP3    H244843   2.392   5.829   0.643  0.3279  0.1357 -1.3426
 7810TIP3   OH244844   4.839   5.773  15.347 -0.0322  0.5802  0.1001
 7810TIP3    H144845   4.917   5.730  15.310 -0.1492  0.8604 -0.4900
 7810TIP3    H244846   4.821   5.724  15.427 -1.0175 -1.4789 -1.2740
 7811TIP3   OH244847   3.066   6.707   0.781 -0.0723  0.2617  0.2856
 7811TIP3    H144848   3.009   6.646   0.828  1.6805 -1.7957 -0.0748
 7811TIP3    H244849   3.014   6.734   0.705 -0.1428 -2.7389 -0.8617
 7812TIP3   OH244850   3.047   4.787  12.542  0.2589 -0.8644 -0.0776
 7812TIP3    H144851   3.112   4.848  12.577 -0.8039 -0.0716  0.5680
 7812TIP3    H244852   2.987   4.842  12.492 -1.2457 -1.1954  1.2783
 7813TIP3   OH244853   2.962   0.611   1.388 -0.2238 -0.6263  0.4306
 7813TIP3    H144854   3.001   0.533   1.349  0.9084  0.3230 -0.4070
 7813TIP3    H244855   2.933   0.663   1.313 -3.9083 -1.5961  0.9940
 7814TIP3   OH244856   6.490   0.272   1.913  0.6548 -0.4948  0.5259
 7814TIP3    H144857   6.502   0.340   1.979 -0.9299 -0.2251  0.5802
 7814TIP3    H244858   6.483   0.191   1.963 -0.9875 -0.2380  0.7674
 7815TIP3   OH244859   2.089   1.303   3.471  0.9189  0.0755  0.1976
 7815TIP3    H144860   2.154   1.348   3.525  2.3255 -1.4775 -0.0990
 7815TIP3    H244861   2.131   1.292   3.386 -0.2469  0.1764 -0.4053
 7816TIP3   OH244862   4.704   2.891  15.549 -0.2666 -0.0207 -0.3572
 7816TIP3    H144863   4.759   2.909  15.472 -1.1011  1.3356 -0.6605
 7816TIP3    H244864   4.692   2.977  15.590 -0.3540 -0.6397  0.9456
 7817TIP3   OH244865   2.920   5.250  16.293  0.4284 -0.1889  0.0302
 7817TIP3    H144866   3.005   5.250  16.337  0.9710  0.1436 -0.9638
 7817TIP3    H244867   2.877   5.331  16.322  0.5281 -0.2660  0.3946
 7818TIP3   OH244868   5.074   0.427   5.896 -0.3017  0.4182 -0.0193
 7818TIP3    H144869   5.167   0.417   5.915 -0.3111  0.2488 -0.0609
 7818TIP3    H244870   5.049   0.508   5.940  0.2464  1.3872 -1.3939
 7819TIP3   OH244871   1.452   0.819  13.244 -0.2636 -0.2302  0.1451
 7819TIP3    H144872   1.456   0.735  13.198  1.6879 -1.1865  1.9323
 7819TIP3    H244873   1.400   0.801  13.322 -0.1833  0.3379  0.3331
 7820TIP3   OH244874   2.275   6.458  11.287 -0.0992 -0.1754  0.3995
 7820TIP3    H144875   2.216   6.389  11.318  0.2218  0.1096  1.6895
 7820TIP3    H244876   2.361   6.415  11.281 -0.3462 -0.5289 -1.2525
 7821TIP3   OH244877   4.190   6.224   4.759  0.6696 -0.1590 -0.1231
 7821TIP3    H144878   4.113   6.177   4.788  0.4392  1.2901  1.7921
 7821TIP3    H244879   4.160   6.274   4.683 -0.9169  1.9359  1.7620
 7822TIP3   OH244880   2.174   1.602   4.027 -0.5648  0.8149 -0.4086
 7822TIP3    H144881   2.162   1.638   4.115 -0.1150  1.1628 -0.4853
 7822TIP3    H244882   2.089   1.614   3.985 -1.0471 -0.1406  0.2512
 7823TIP3   OH244883   3.871   4.355   1.083  0.2984 -0.2133  0.2272
 7823TIP3    H144884   3.857   4.325   0.993 -2.3560  0.4210  0.3612
 7823TIP3    H244885   3.875   4.451   1.076 -1.7774 -0.0297  0.9335
 7824TIP3   OH244886   4.183   5.781   3.299 -0.3804 -0.3847  0.4912
 7824TIP3    H144887   4.223   5.759   3.384  0.5304  0.8155  0.3955
 7824TIP3    H244888   4.223   5.864   3.275  0.0502 -1.1449 -1.5683
 7825TIP3   OH244889   1.347   6.790   4.963 -0.0490 -0.5954  0.4136
 7825TIP3    H144890   1.417   6.729   4.939 -0.2845 -0.9279  0.5554
 7825TIP3    H244891   1.360   6.866   4.906  0.5353 -0.5751  0.5592
 7826TIP3   OH244892   3.873   2.237  14.834 -0.3186  0.5493  0.2920
 7826TIP3    H144893   3.777   2.246  14.833 -0.4348 -0.3426  1.4901
 7826TIP3    H244894   3.889   2.147  14.805  0.3402  1.4293 -2.4191
 7827TIP3   OH244895   2.586   4.266   0.497  0.1787  0.1555  0.0031
 7827TIP3    H144896   2.665   4.274   0.551  0.7468  0.5199 -0.8636
 7827TIP3    H244897   2.619   4.243   0.410 -0.7895 -1.3693  0.0143
 7828TIP3   OH244898   1.031   4.329  14.369  0.2603 -0.5325  0.0813
 7828TIP3    H144899   1.113   4.377  14.359  0.0343 -0.2467 -0.4796
 7828TIP3    H244900   0.967   4.396  14.393 -0.0690 -0.5350 -0.7573
 7829TIP3   OH244901   5.435   2.792  13.801  0.3568  0.2152  0.7009
 7829TIP3    H144902   5.419   2.722  13.738 -0.1807  1.0585 -0.1244
 7829TIP3    H244903   5.513   2.837  13.767 -1.3287  2.1981 -0.8040
 7830TIP3   OH244904   4.483   5.027   0.520 -0.3817  0.0839  0.5061
 7830TIP3    H144905   4.441   5.077   0.449  0.6550  0.7841  0.3692
 7830TIP3    H244906   4.412   4.975   0.557 -0.8685 -0.6606 -1.3491
 7831TIP3   OH244907   3.739   3.407   0.431 -0.5973  0.4482 -0.5663
 7831TIP3    H144908   3.671   3.455   0.478 -1.2676  1.2974 -2.3061
 7831TIP3    H244909   3.690   3.347   0.374  0.2017 -0.9954  0.2058
 7832TIP3   OH244910   2.229   1.889  11.892  0.3066 -0.5751  0.4402
 7832TIP3    H144911   2.258   1.933  11.812  0.2715 -0.9119  0.2401
 7832TIP3    H244912   2.208   1.800  11.864 -1.1529 -0.2762  0.5460
 7833TIP3   OH244913   3.158   2.367  16.733 -0.0058  0.2208 -0.1249
 7833TIP3    H144914   3.104   2.424  16.679 -1.1915 -0.6744  0.0657
 7833TIP3    H244915   3.127   2.382  16.822 -0.3869 -0.7365 -0.0791
 7834TIP3   OH244916   1.324   3.166  16.007  0.7642  0.4290  0.1468
 7834TIP3    H144917   1.396   3.199  15.954  0.8164 -0.0839 -0.1011
 7834TIP3    H244918   1.325   3.221  16.086  1.1663  0.6862 -0.0396
 7835TIP3   OH244919   6.793   0.772   5.803  0.0503  0.3986  0.8926
 7835TIP3    H144920   6.783   0.682   5.835 -1.5909  0.5153  0.8124
 7835TIP3    H244921   6.763   0.826   5.876  1.8799  0.9474  1.2717
 7836TIP3   OH244922   5.039   6.140  13.698 -0.4243 -0.2887 -0.0047
 7836TIP3    H144923   5.097   6.163  13.771  0.0269  0.9777 -0.7420
 7836TIP3    H244924   4.956   6.117  13.740  0.0214 -0.2158  0.9412
 7837TIP3   OH244925   4.674   3.204   0.058  0.8187 -0.3493  0.1019
 7837TIP3    H144926   4.716   3.256   0.126 -0.2593 -0.0183  0.5377
 7837TIP3    H244927   4.615   3.266   0.014 -1.6221 -1.4919  1.6046
 7838TIP3   OH244928   6.632   4.217   2.353 -0.2568 -0.1918 -0.4530
 7838TIP3    H144929   6.627   4.169   2.435  2.2982 -0.7942 -0.5517
 7838TIP3    H244930   6.724   4.243   2.346 -0.8475  1.8315 -2.0413
 7839TIP3   OH244931   4.062   4.989   2.886 -0.1394  0.2057 -0.5641
 7839TIP3    H144932   4.070   5.062   2.947 -0.3796  0.6600 -1.0665
 7839TIP3    H244933   4.036   4.915   2.940  1.9127  0.0157  0.2512
 7840TIP3   OH244934   6.637   2.398   5.218 -0.3494 -0.4863  0.0658
 7840TIP3    H144935   6.547   2.365   5.207 -0.5847 -0.1744  0.9519
 7840TIP3    H244936   6.677   2.336   5.280  0.3852 -1.2234 -1.1175
 7841TIP3   OH244937   1.667   5.719  16.424  0.7107 -0.2125  0.0858
 7841TIP3    H144938   1.618   5.801  16.424  0.9665 -0.0394 -0.8046
 7841TIP3    H244939   1.702   5.711  16.512 -0.2655  0.0572  0.5059
 7842TIP3   OH244940   4.125   5.269  16.048  0.2745  0.4300  0.0106
 7842TIP3    H144941   4.070   5.198  16.083 -0.9293  1.5683  0.4921
 7842TIP3    H244942   4.214   5.234  16.055 -0.3511 -1.5516 -0.9905
 7843TIP3   OH244943   2.644   0.924  13.490 -0.6724 -0.3819 -0.2105
 7843TIP3    H144944   2.605   0.912  13.577  2.3022  0.1514  1.3274
 7843TIP3    H244945   2.634   1.017  13.472 -0.7848 -0.3879 -0.1802
 7844TIP3   OH244946   3.288   3.366  13.284 -0.0389 -0.3444  0.3792
 7844TIP3    H144947   3.380   3.385  13.305 -0.3525  2.7125 -0.5693
 7844TIP3    H244948   3.240   3.443  13.316 -2.2488 -1.6578  0.4212
 7845TIP3   OH244949   2.039   6.771  14.406 -0.1771  0.0083  0.0387
 7845TIP3    H144950   2.017   6.849  14.354  0.5245 -0.4735 -1.0082
 7845TIP3    H244951   2.122   6.793  14.448 -1.2583  0.8170  1.8926
 7846TIP3   OH244952   5.153   1.682  11.608 -0.3646  0.4823 -0.1422
 7846TIP3    H144953   5.169   1.702  11.700  2.2491 -0.8776 -0.2214
 7846TIP3    H244954   5.236   1.700  11.564 -1.6239  1.3970 -2.3555
 7847TIP3   OH244955   5.417   3.698   5.314  0.0840  0.2549 -0.1901
 7847TIP3    H144956   5.337   3.727   5.271 -0.3500  2.5956  1.9750
 7847TIP3    H244957   5.487   3.748   5.271  0.1333 -0.0704 -0.5040
 7848TIP3   OH244958   2.611   2.100  11.865  0.4809 -0.6904  0.0125
 7848TIP3    H144959   2.661   2.179  11.844  0.2992 -0.4136  0.6258
 7848TIP3    H244960   2.558   2.124  11.941 -1.0515 -0.7923 -0.9937
 7849TIP3   OH244961   3.688   6.243  16.649  0.0701 -0.9925 -0.5841
 7849TIP3    H144962   3.670   6.337  16.660  0.1090 -0.7424 -2.3284
 7849TIP3    H244963   3.602   6.205  16.629  0.2727 -1.0513 -1.3907
 7850TIP3   OH244964   3.476   3.035   4.352  0.3207 -0.0562 -0.4850
 7850TIP3    H144965   3.473   2.954   4.302  0.5878 -0.7309  0.5439
 7850TIP3    H244966   3.480   3.105   4.287  1.6559 -0.9450 -1.4041
 7851TIP3   OH244967   5.255   0.029  14.528 -0.5150 -0.4956 -0.4460
 7851TIP3    H144968   5.162   0.042  14.510 -0.9394 -1.7149  0.6383
 7851TIP3    H244969   5.266   0.058  14.618  0.6104  1.4407 -1.1483
 7852TIP3   OH244970   3.070   6.508   3.772  0.3026 -0.0512  0.0641
 7852TIP3    H144971   3.090   6.459   3.852  0.8090  0.2798  0.1455
 7852TIP3    H244972   2.982   6.542   3.787  0.6443  0.5691  0.7823
 7853TIP3   OH244973   5.046   1.837  14.425 -0.3416 -0.1385  0.0792
 7853TIP3    H144974   4.975   1.896  14.449 -0.5306 -0.3162 -0.0478
 7853TIP3    H244975   5.003   1.757  14.395 -0.0748 -1.1072  2.1113
 7854TIP3   OH244976   5.253   0.835  13.410 -0.3090  0.0203  0.4338
 7854TIP3    H144977   5.210   0.770  13.465  0.3127  0.5842  1.6059
 7854TIP3    H244978   5.331   0.861  13.459 -0.7739  1.9899  0.1910
 7855TIP3   OH244979   3.401   3.673  16.277  0.3517 -0.9141 -0.2498
 7855TIP3    H144980   3.397   3.761  16.238  1.7036 -1.4784 -1.7625
 7855TIP3    H244981   3.310   3.654  16.302  0.0361  0.8970  0.1024
 7856TIP3   OH244982   6.291   0.997  11.776  0.0686  0.4736 -0.2307
 7856TIP3    H144983   6.196   1.012  11.775  0.1042  1.1012  1.5714
 7856TIP3    H244984   6.313   0.975  11.686 -2.1038 -1.6803 -0.3551
 7857TIP3   OH244985   1.079   4.046   1.009  0.0836  0.1247  0.2287
 7857TIP3    H144986   1.093   4.129   0.962  0.7402  0.3725  0.8403
 7857TIP3    H244987   1.025   4.070   1.084  0.1710 -0.0296  0.3401
 7858TIP3   OH244988   1.697   4.099  16.506 -0.5843  0.1093 -0.0015
 7858TIP3    H144989   1.703   4.142  16.591  0.8305 -1.1611  0.5730
 7858TIP3    H244990   1.602   4.092  16.489 -0.8931  2.9607  0.0617
 7859TIP3   OH244991   2.879   0.793   2.463 -0.2289  0.4604  0.3985
 7859TIP3    H144992   2.964   0.836   2.469  0.6576 -1.3666  2.0251
 7859TIP3    H244993   2.898   0.705   2.432 -1.8021  0.6314 -1.2148
 7860TIP3   OH244994   0.892   1.284   0.342 -0.0489  0.4828 -0.0613
 7860TIP3    H144995   0.853   1.219   0.284  0.4343  0.3139 -0.2047
 7860TIP3    H244996   0.839   1.363   0.330 -0.0641  0.3944 -0.5967
 7861TIP3   OH244997   4.533   3.904  10.640  0.3339  0.0114 -0.0358
 7861TIP3    H144998   4.446   3.943  10.638  0.2893 -0.0447  0.6392
 7861TIP3    H244999   4.579   3.950  10.711  0.5654 -0.5550  0.1897
 7862TIP3   OH245000   4.350   1.869  13.682  0.5376  0.6777  0.3276
 7862TIP3    H145001   4.403   1.822  13.618  1.0582 -0.3353  1.4583
 7862TIP3    H245002   4.412   1.926  13.728  0.1585  1.4412 -0.0842
 7863TIP3   OH245003   0.811   1.826   1.122 -0.0313  0.7698  0.2150
 7863TIP3    H145004   0.850   1.807   1.208  1.8191 -0.0195 -0.7512
 7863TIP3    H245005   0.722   1.855   1.143 -0.4747 -1.6580  2.2983
 7864TIP3   OH245006   5.895   5.472   0.423 -0.3842  0.1747 -0.1779
 7864TIP3    H145007   5.815   5.463   0.475  0.0574 -3.5159  0.1609
 7864TIP3    H245008   5.966   5.473   0.486 -0.0193 -0.4904 -0.5595
 7865TIP3   OH245009   5.903   4.296   5.642 -0.2060  0.3370  0.0426
 7865TIP3    H145010   5.810   4.296   5.621  0.0015  0.0277 -0.8957
 7865TIP3    H245011   5.910   4.239   5.719 -0.7387  0.0905 -0.0897
 7866TIP3   OH245012   6.627   0.479  15.369  0.2839 -0.4637  0.9256
 7866TIP3    H145013   6.565   0.501  15.299  0.7716 -0.4500  0.4923
 7866TIP3    H245014   6.704   0.447  15.323  1.2659  1.1468  1.3777
 7867TIP3   OH245015   0.446   2.127   2.556 -0.2194 -0.0953  0.1316
 7867TIP3    H145016   0.534   2.128   2.594  0.5671 -2.2946 -1.3932
 7867TIP3    H245017   0.432   2.216   2.524  0.9748  0.5750  1.3767
 7868TIP3   OH245018   0.099   5.895  14.232  0.1648  0.3526 -0.4785
 7868TIP3    H145019   0.151   5.927  14.159 -1.5999  0.8286 -1.5962
 7868TIP3    H245020   0.141   5.932  14.310  1.9331  0.0354 -1.2392
 7869TIP3   OH245021   2.719   0.691   5.408  0.4266  0.3544  0.0196
 7869TIP3    H145022   2.629   0.721   5.391  0.5352  2.1348  2.1616
 7869TIP3    H245023   2.739   0.723   5.496  2.8815 -0.7554 -0.0537
 7870TIP3   OH245024   0.294   0.368   2.329 -0.6889 -0.1521  0.6947
 7870TIP3    H145025   0.355   0.434   2.362 -0.6402  0.3722 -0.3821
 7870TIP3    H245026   0.207   0.403   2.349 -0.6574  0.0933  0.4156
 7871TIP3   OH245027   4.536   4.172   2.845 -0.1716 -0.3558  0.2390
 7871TIP3    H145028   4.530   4.076   2.844 -0.1817 -0.3528 -0.3525
 7871TIP3    H245029   4.567   4.194   2.757  1.2817  0.0905  0.8310
 7872TIP3   OH245030   6.650   1.549  16.993  0.7327  0.3304 -0.0127
 7872TIP3    H145031   6.727   1.497  16.969  0.4886  0.1677 -0.4403
 7872TIP3    H245032   6.579   1.486  17.002  0.8086  0.3838  1.1484
 7873TIP3   OH245033   3.335   3.429   5.833  0.6025 -0.3241  0.1022
 7873TIP3    H145034   3.431   3.425   5.828  0.8591  2.9618  0.3143
 7873TIP3    H245035   3.313   3.375   5.909  2.4413 -0.0840  0.8637
 7874TIP3   OH245036   1.628   3.708  14.223 -0.1351 -0.1117 -0.1002
 7874TIP3    H145037   1.547   3.742  14.262 -0.6962 -0.3642 -1.0351
 7874TIP3    H245038   1.617   3.720  14.129  1.2991  0.6780 -0.2004
 7875TIP3   OH245039   2.350   1.570   4.274 -0.4824 -0.8275  0.0375
 7875TIP3    H145040   2.432   1.619   4.284 -0.0194 -1.8190  1.5169
 7875TIP3    H245041   2.376   1.490   4.230 -1.2008  0.0935 -2.1765
 7876TIP3   OH245042   0.494   4.931  13.384 -0.4111  0.2101 -0.1090
 7876TIP3    H145043   0.482   4.863  13.317  0.0955 -0.8295  0.8309
 7876TIP3    H245044   0.405   4.957  13.407 -0.6232 -0.3387 -0.2755
 7877TIP3   OH245045   4.421   1.089  10.932  0.9300  0.1185  0.5124
 7877TIP3    H145046   4.509   1.082  10.897 -0.3433 -1.4029 -2.7507
 7877TIP3    H245047   4.408   1.009  10.983  0.2655 -1.7402 -2.3148
 7878TIP3   OH245048   4.692   6.234   2.162  0.1207 -0.0345 -0.1516
 7878TIP3    H145049   4.693   6.245   2.067  1.2407 -0.9351 -0.2811
 7878TIP3    H245050   4.729   6.315   2.196  2.0092 -0.6112 -0.6675
 7879TIP3   OH245051   3.867   6.587  10.786  0.0401 -0.1584  0.2304
 7879TIP3    H145052   3.919   6.667  10.790 -1.7142  1.1029 -0.5295
 7879TIP3    H245053   3.812   6.598  10.709  0.5843 -2.6951 -0.6177
 7880TIP3   OH245054   0.942   1.629  13.145 -0.4511  0.1068 -0.1709
 7880TIP3    H145055   1.012   1.676  13.192  0.3386 -0.5493 -0.6531
 7880TIP3    H245056   0.864   1.643  13.198  0.5133 -1.0516  1.6845
 7881TIP3   OH245057   3.319   3.483   5.329 -0.0069 -0.4667 -0.1683
 7881TIP3    H145058   3.346   3.548   5.264 -2.6533  0.1622 -0.7307
 7881TIP3    H245059   3.360   3.401   5.300 -0.3490  0.0108 -2.0781
 7882TIP3   OH245060   6.309   1.770  11.845 -0.0941 -0.0199  0.4076
 7882TIP3    H145061   6.311   1.759  11.750  1.4511 -1.5607  0.5745
 7882TIP3    H245062   6.401   1.765  11.872 -0.5439 -0.1300  2.0390
 7883TIP3   OH245063   5.938   6.802   4.808  0.1078  0.2811 -0.8049
 7883TIP3    H145064   6.017   6.750   4.792  0.7486  1.4207 -1.4076
 7883TIP3    H245065   5.867   6.750   4.768  0.1787 -1.7140  1.4210
 7884TIP3   OH245066   3.654   0.178   5.528  0.0118  0.0648 -0.6789
 7884TIP3    H145067   3.701   0.094   5.526  1.9639  1.1003 -1.7522
 7884TIP3    H245068   3.653   0.206   5.437 -0.0377  1.5121 -0.2451
 7885TIP3   OH245069   3.518   6.086   2.831  0.6075 -0.2751 -0.6365
 7885TIP3    H145070   3.536   5.992   2.831  1.7332 -0.0849 -0.2281
 7885TIP3    H245071   3.582   6.122   2.893  0.3062  0.7783 -0.9202
 7886TIP3   OH245072   6.463   4.531  13.795 -0.3083 -0.1925 -0.1837
 7886TIP3    H145073   6.516   4.456  13.767  0.0830 -0.6705  1.7213
 7886TIP3    H245074   6.463   4.590  13.720  1.7234 -0.8349 -0.7375
 7887TIP3   OH245075   0.090   4.369   5.113  0.4992  1.0972  0.1395
 7887TIP3    H145076   0.003   4.358   5.075  1.8367 -0.1795 -2.8856
 7887TIP3    H245077   0.086   4.325   5.197 -1.7307  0.9677  0.0192
 7888TIP3   OH245078   1.794   3.542   4.990  0.0947  0.3975  0.1178
 7888TIP3    H145079   1.803   3.552   5.084  1.4725 -1.6260  0.2599
 7888TIP3    H245080   1.826   3.454   4.972  0.5720  0.9966 -2.3487
 7889TIP3   OH245081   6.311   3.162  16.952 -0.2494  0.2203  0.3665
 7889TIP3    H145082   6.337   3.243  16.907 -1.1153 -0.5299 -1.6049
 7889TIP3    H245083   6.378   3.150  17.019  1.1287  1.4374 -0.7010
 7890TIP3   OH245084   4.635   4.184   4.227 -0.0611  0.1960 -0.6879
 7890TIP3    H145085   4.608   4.274   4.246  0.8412  0.6753 -1.5840
 7890TIP3    H245086   4.552   4.136   4.220 -0.5463  0.1982  2.9671
 7891TIP3   OH245087   5.650   1.138  15.038  0.1439  0.1211 -0.6777
 7891TIP3    H145088   5.711   1.064  15.036 -0.3130 -0.2907 -0.0774
 7891TIP3    H245089   5.564   1.097  15.049 -0.0550  0.7556  0.2953
 7892TIP3   OH245090   4.987   1.569  14.670 -0.0707  0.3524  0.6197
 7892TIP3    H145091   4.916   1.622  14.706  0.4471  1.3495  0.2059
 7892TIP3    H245092   5.063   1.626  14.670  0.5242 -0.4106  0.2136
 7893TIP3   OH245093   4.895   0.164   1.285  0.6778 -0.0334 -0.1041
 7893TIP3    H145094   4.921   0.240   1.233  0.9425 -0.2519 -0.2892
 7893TIP3    H245095   4.912   0.088   1.229  1.3188 -0.2943  0.4292
 7894TIP3   OH245096   5.077   3.349   4.946 -0.0156  0.2616 -0.5871
 7894TIP3    H145097   5.040   3.435   4.928 -0.1542  0.5669  0.9750
 7894TIP3    H245098   5.103   3.353   5.038  0.0813 -1.3270 -0.5138
 7895TIP3   OH245099   1.953   1.005   5.806  0.7232  0.0998 -0.2334
 7895TIP3    H145100   1.912   1.052   5.733 -1.2621 -0.5938  0.3638
 7895TIP3    H245101   1.982   0.922   5.769  1.2581  0.4442 -0.5888
 7896TIP3   OH245102   3.573   4.149  13.620  0.3380  0.3723 -0.2145
 7896TIP3    H145103   3.543   4.082  13.682 -1.1315 -0.1881 -1.4807
 7896TIP3    H245104   3.527   4.228  13.646  0.7705  0.4855  0.2285
 7897TIP3   OH245105   4.813   1.554  13.828 -0.0369 -0.7042 -0.1862
 7897TIP3    H145106   4.888   1.612  13.839 -1.1223  0.6244  0.6835
 7897TIP3    H245107   4.765   1.562  13.911 -2.6635  0.8122 -1.6997
 7898TIP3   OH245108   5.815   3.367   1.296  0.4404 -1.0383  1.0293
 7898TIP3    H145109   5.887   3.314   1.331  1.6854 -0.3445 -0.3534
 7898TIP3    H245110   5.758   3.305   1.251  0.9085 -1.4285  0.9692
 7899TIP3   OH245111   2.686   0.875   4.849 -0.2650 -0.3650  0.3711
 7899TIP3    H145112   2.703   0.865   4.755 -0.3936  0.9524  0.1898
 7899TIP3    H245113   2.651   0.964   4.857  0.5611 -0.1453  1.7682
 7900TIP3   OH245114   5.402   4.201   2.333 -0.2028 -0.0623 -0.0808
 7900TIP3    H145115   5.381   4.178   2.423 -0.5125 -0.3817 -0.2291
 7900TIP3    H245116   5.461   4.132   2.303  1.3622  0.9963  0.4283
 7901TIP3   OH245117   3.958   5.897  14.441 -0.0545  0.2117  0.0520
 7901TIP3    H145118   3.933   5.908  14.349  0.8819 -1.0250 -0.3924
 7901TIP3    H245119   3.963   5.802  14.452  1.0861  0.3689  1.0241
 7902TIP3   OH245120   5.485   6.406   5.335 -0.1485 -0.5412  0.4970
 7902TIP3    H145121   5.509   6.362   5.253  0.5212 -0.8395  0.8482
 7902TIP3    H245122   5.553   6.471   5.348 -0.1688 -0.6030  0.9030
 7903TIP3   OH245123   5.779   5.050   2.011 -0.2128 -0.2130  0.1379
 7903TIP3    H145124   5.854   5.008   2.055 -0.0838  0.9872  1.1359
 7903TIP3    H245125   5.706   5.035   2.070 -0.6553 -0.8593 -0.5506
 7904TIP3   OH245126   3.875   1.574   0.034 -0.0956 -0.6360  0.1840
 7904TIP3    H145127   3.895   1.663   0.063 -0.9471 -0.2867 -0.2524
 7904TIP3    H245128   3.948   1.549  -0.021  0.7176 -0.6615  1.2488
 7905TIP3   OH245129   4.029   0.868  16.753  0.0300 -0.2375 -0.0677
 7905TIP3    H145130   4.042   0.793  16.810 -0.9149 -0.8931 -0.6802
 7905TIP3    H245131   4.000   0.830  16.670 -1.2122  0.8270 -0.1602
 7906TIP3   OH245132   4.343   6.808  12.356 -0.3706  0.2103 -0.9070
 7906TIP3    H145133   4.398   6.885  12.370 -1.0155  1.0254 -2.6618
 7906TIP3    H245134   4.264   6.824  12.407 -1.7905  2.1574 -3.5251
 7907TIP3   OH245135   3.052   4.253  13.356 -0.0413 -0.1232  0.0597
 7907TIP3    H145136   3.147   4.265  13.364  0.2161 -1.1322 -1.1515
 7907TIP3    H245137   3.039   4.229  13.265 -1.3231 -1.1980  0.4924
 7908TIP3   OH245138   4.048   0.606   1.146  0.5279 -0.2576 -0.1493
 7908TIP3    H145139   4.034   0.552   1.068 -1.3977  2.5804 -1.9460
 7908TIP3    H245140   3.970   0.592   1.199 -0.1585  0.9548 -0.8022
 7909TIP3   OH245141   5.400   1.608  14.780 -0.1594 -0.2455 -0.9096
 7909TIP3    H145142   5.430   1.547  14.712  0.8345  0.8563 -1.4967
 7909TIP3    H245143   5.334   1.662  14.736  0.9128  0.8684 -1.2294
 7910TIP3   OH245144   3.185   5.031   2.966 -0.6961  0.7843  0.2075
 7910TIP3    H145145   3.107   4.977   2.956  1.8537 -3.1453 -0.8465
 7910TIP3    H245146   3.215   5.014   3.056  0.7847 -0.7223 -0.5147
 7911TIP3   OH245147   2.005   0.501   2.704 -0.3769 -0.2561  0.0866
 7911TIP3    H145148   2.002   0.572   2.768  0.8049 -0.3326  0.2629
 7911TIP3    H245149   2.043   0.427   2.752  0.1073 -0.4479 -0.5674
 7912TIP3   OH245150   1.202   6.357  12.803 -0.3249 -0.0668 -0.4231
 7912TIP3    H145151   1.280   6.393  12.761 -1.9523  1.8789 -2.0528
 7912TIP3    H245152   1.187   6.412  12.879 -1.2686  1.0117 -1.3508
 7913TIP3   OH245153   5.740   5.536  11.484  0.4644 -0.2198  0.2260
 7913TIP3    H145154   5.700   5.521  11.399 -0.9601 -0.0847  0.8477
 7913TIP3    H245155   5.769   5.448  11.512 -2.7490 -1.0352  1.3529
 7914TIP3   OH245156   6.695   3.368  15.881 -0.1232 -0.0013 -0.2820
 7914TIP3    H145157   6.657   3.299  15.934 -0.7393 -0.0400 -0.7738
 7914TIP3    H245158   6.649   3.364  15.797  0.9897 -0.0846 -0.9101
 7915TIP3   OH245159   0.063   3.920  10.065 -0.1790 -1.0769 -0.0097
 7915TIP3    H145160   0.009   3.895  10.140  1.8409 -1.1105  1.4986
 7915TIP3    H245161   0.064   4.015  10.066 -1.0213 -1.0514 -0.6698
 7916TIP3   OH245162   4.048   2.669   5.081  0.1439 -0.0341  0.3493
 7916TIP3    H145163   4.139   2.698   5.085 -0.7090  2.7623  3.5425
 7916TIP3    H245164   4.005   2.734   5.025 -0.1588 -0.6870 -0.1982
 7917TIP3   OH245165   3.447   6.300   0.983 -0.6293  0.0789 -0.3901
 7917TIP3    H145166   3.358   6.332   0.968  0.2188  2.4228 -0.9459
 7917TIP3    H245167   3.502   6.364   0.939  1.3136 -1.9984 -1.1558
 7918TIP3   OH245168   1.972   5.758  14.971  0.1939 -0.2753  0.3402
 7918TIP3    H145169   1.995   5.803  14.890  0.7722 -0.9799  0.0977
 7918TIP3    H245170   1.881   5.782  14.987 -0.5411 -1.5181 -1.4922
 7919TIP3   OH245171   2.117   1.983   5.150  0.1572  0.1724  0.1286
 7919TIP3    H145172   2.032   1.994   5.191 -0.2973  0.3001 -0.8263
 7919TIP3    H245173   2.134   2.067   5.107  0.2685 -0.2229 -0.6036
 7920TIP3   OH245174   0.445   4.341   0.374  0.3410 -0.8467  0.2762
 7920TIP3    H145175   0.449   4.307   0.464 -1.0930 -2.2961 -0.1692
 7920TIP3    H245176   0.515   4.296   0.328  1.4585  0.3273  0.7644
 7921TIP3   OH245177   4.477   3.298  16.614 -0.2551  0.2738 -0.3413
 7921TIP3    H145178   4.493   3.205  16.625 -1.2462  0.1075 -0.1920
 7921TIP3    H245179   4.539   3.326  16.547 -1.1430 -0.8695 -1.6912
 7922TIP3   OH245180   5.789   5.944   1.890  0.1829 -0.0217 -0.1300
 7922TIP3    H145181   5.862   5.942   1.828 -0.0799 -0.4918 -0.4261
 7922TIP3    H245182   5.823   5.903   1.970 -0.3313 -2.0684 -0.9044
 7923TIP3   OH245183   4.165   4.626  14.242 -0.1848 -0.1777  0.6492
 7923TIP3    H145184   4.096   4.691  14.227  0.3518 -0.2798 -3.2286
 7923TIP3    H245185   4.245   4.677  14.248 -0.0190 -0.3180 -0.2233
 7924TIP3   OH245186   1.963   0.837   2.756  0.1080 -0.0210  0.0183
 7924TIP3    H145187   2.043   0.819   2.706 -1.0242 -0.5775 -1.6890
 7924TIP3    H245188   1.969   0.782   2.833  1.2380 -0.2723 -0.2344
 7925TIP3   OH245189   3.990   6.199  15.589  0.5936 -0.4630  0.3320
 7925TIP3    H145190   3.962   6.226  15.676  2.2553 -0.6230  0.9473
 7925TIP3    H245191   4.042   6.273  15.556 -0.0283 -0.3999 -0.5298
 7926TIP3   OH245192   0.621   1.224  16.862 -0.5323 -0.0272 -0.2038
 7926TIP3    H145193   0.594   1.138  16.830  0.3567 -0.2292 -0.4403
 7926TIP3    H245194   0.715   1.215  16.879 -0.6103  0.6292  0.6476
 7927TIP3   OH245195   3.757   0.362  15.472  0.3347  0.0451  0.1728
 7927TIP3    H145196   3.793   0.349  15.560 -0.9239 -1.6313  0.4785
 7927TIP3    H245197   3.810   0.434  15.435  1.7365 -0.0885  1.7963
 7928TIP3   OH245198   3.428   1.555  16.687  1.0530 -0.7963 -0.2734
 7928TIP3    H145199   3.358   1.542  16.750 -1.4271 -1.3612 -2.9403
 7928TIP3    H245200   3.421   1.647  16.661  0.5092 -1.1133 -1.3316
 7929TIP3   OH245201   2.103   2.292  13.360  0.0504 -0.2835  0.4183
 7929TIP3    H145202   2.028   2.348  13.381  1.2391  1.1664  1.0253
 7929TIP3    H245203   2.107   2.229  13.431 -0.7031 -0.4946  0.2792
 7930TIP3   OH245204   1.729   0.958   6.207 -0.2917  0.2648 -0.5138
 7930TIP3    H145205   1.693   1.026   6.264 -2.0705 -1.0954  0.0910
 7930TIP3    H245206   1.724   0.995   6.119  1.0522  1.8093  0.0150
 7931TIP3   OH245207   3.478   0.742   5.287 -0.2423  0.0818 -0.6169
 7931TIP3    H145208   3.504   0.821   5.238  0.3298 -0.9050 -1.9713
 7931TIP3    H245209   3.447   0.681   5.219  1.4931 -1.6985  0.1006
 7932TIP3   OH245210   4.500   3.542  15.222  0.0246  0.0773  0.3667
 7932TIP3    H145211   4.527   3.623  15.266 -0.4819 -0.2088  1.2297
 7932TIP3    H245212   4.491   3.479  15.293 -0.8921 -0.3831 -0.1524
 7933TIP3   OH245213   3.805   4.406   5.655 -0.1676  0.0589  0.8271
 7933TIP3    H145214   3.764   4.334   5.703  1.4456 -0.7157  1.1190
 7933TIP3    H245215   3.898   4.402   5.681  0.1092  1.7177  0.1954
 7934TIP3   OH245216   5.310   3.709   2.720  0.1016 -0.2047 -0.5030
 7934TIP3    H145217   5.260   3.784   2.687  0.3770  0.3837  0.3817
 7934TIP3    H245218   5.347   3.669   2.641 -0.7456  0.0817 -1.0623
 7935TIP3   OH245219   1.074   1.536   2.399  0.2338 -0.7065 -0.4132
 7935TIP3    H145220   1.007   1.586   2.352  1.2583  1.5201  0.3810
 7935TIP3    H245221   1.024   1.479   2.458 -1.0258 -2.3859 -2.9275
 7936TIP3   OH245222   6.326   6.006  13.199 -0.2831  0.7397  0.3213
 7936TIP3    H145223   6.247   5.972  13.158 -0.0360  0.8484 -0.2691
 7936TIP3    H245224   6.373   5.929  13.229  0.0462  0.5775 -0.5796
 7937TIP3   OH245225   2.655   5.389  13.408 -0.1660 -0.3922  0.3151
 7937TIP3    H145226   2.693   5.306  13.434 -0.2857 -0.6595 -0.3377
 7937TIP3    H245227   2.698   5.410  13.325  0.3442  0.5209  0.7832
 7938TIP3   OH245228   0.670   4.734   5.029 -0.1744 -0.4228 -0.1427
 7938TIP3    H145229   0.748   4.701   4.985 -1.5817 -2.8275 -1.0290
 7938TIP3    H245230   0.623   4.783   4.962  1.4980  3.0392  0.9556
 7939TIP3   OH245231   5.231   4.906   4.092  0.4239 -0.0665  0.0029
 7939TIP3    H145232   5.250   4.815   4.115  1.8472  0.1185 -0.3592
 7939TIP3    H245233   5.201   4.946   4.173  1.0127 -0.5430  0.4573
 7940TIP3   OH245234   4.147   4.239  11.857 -0.3009 -0.0658 -0.3144
 7940TIP3    H145235   4.057   4.247  11.889 -0.5569 -0.1527 -0.9798
 7940TIP3    H245236   4.189   4.321  11.883 -0.9634  0.5638 -1.1373
 7941TIP3   OH245237   4.565   2.112  11.455 -0.4301 -0.5094 -0.6034
 7941TIP3    H145238   4.513   2.155  11.388 -0.3859 -0.9567 -0.9275
 7941TIP3    H245239   4.517   2.127  11.536 -0.6438 -0.2365 -0.7786
 7942TIP3   OH245240   3.258   2.888  14.049 -0.1966 -0.0365  0.2252
 7942TIP3    H145241   3.346   2.901  14.085 -0.4885  0.9966  0.6196
 7942TIP3    H245242   3.224   2.811  14.095  0.0049  0.3749  1.0849
 7943TIP3   OH245243   3.546   0.687   2.272  0.0695 -0.3987 -0.4214
 7943TIP3    H145244   3.536   0.592   2.263 -2.6090 -0.5085  2.0134
 7943TIP3    H245245   3.469   0.723   2.227  0.4213  0.5379 -0.2881
 7944TIP3   OH245246   1.722   1.961  12.730  0.5723  0.0008  0.3121
 7944TIP3    H145247   1.758   2.050  12.740 -1.0226  0.5889  1.1094
 7944TIP3    H245248   1.767   1.910  12.797 -0.0712  0.7337  1.3219
 7945TIP3   OH245249   6.108   5.921   5.769  0.4503  0.1488  0.3858
 7945TIP3    H145250   6.155   6.001   5.749  0.6284 -0.0981 -0.2016
 7945TIP3    H245251   6.017   5.950   5.783  0.1108  0.2474 -1.7022
 7946TIP3   OH245252   4.040   3.263  12.687  0.3235 -0.2051  0.2538
 7946TIP3    H145253   3.958   3.307  12.665 -0.4639 -2.0636 -0.8322
 7946TIP3    H245254   4.065   3.218  12.606  0.7569 -2.1437  1.4006
 7947TIP3   OH245255   1.575   0.273   6.001 -0.2079  0.0154 -0.8785
 7947TIP3    H145256   1.606   0.191   6.039  1.2708  0.1199 -1.7813
 7947TIP3    H245257   1.589   0.339   6.069 -1.6223 -0.5007 -0.0634
 7948TIP3   OH245258   4.305   3.920   3.852 -0.3778  0.0226  0.2404
 7948TIP3    H145259   4.334   3.850   3.793  3.1853  0.4586  1.2576
 7948TIP3    H245260   4.276   3.874   3.930 -0.4248 -0.3975 -0.0194
 7949TIP3   OH245261   1.800   1.460   4.063  0.3913  0.2017 -0.5314
 7949TIP3    H145262   1.875   1.498   4.108 -0.2194  0.1818  0.5423
 7949TIP3    H245263   1.822   1.367   4.052  1.2891  0.5446 -1.8998
 7950TIP3   OH245264   3.300   2.879  16.493  0.1730  0.4817  0.4487
 7950TIP3    H145265   3.330   2.796  16.530  0.8728 -0.1733 -1.4954
 7950TIP3    H245266   3.234   2.854  16.429 -1.4200  1.6370  1.5640
 7951TIP3   OH245267   6.108   4.219   3.746  0.5995  0.7949 -0.0014
 7951TIP3    H145268   6.189   4.237   3.793  0.9652  2.3418 -1.1398
 7951TIP3    H245269   6.112   4.275   3.669 -0.4521 -0.9023 -1.3468
 7952TIP3   OH245270   3.511   3.788  12.574 -0.1119  0.2115  0.6291
 7952TIP3    H145271   3.537   3.750  12.490  0.1918  0.5410  0.5732
 7952TIP3    H245272   3.469   3.716  12.620  1.1671 -0.4180  0.8434
 7953TIP3   OH245273   2.765   3.525  14.699  0.5028  0.2691 -0.2013
 7953TIP3    H145274   2.730   3.444  14.661 -0.4529 -0.0399  1.2444
 7953TIP3    H245275   2.729   3.527  14.788  1.3109  1.7941  0.1258
 7954TIP3   OH245276   2.700   3.282  10.525 -0.2688  0.0411 -0.1326
 7954TIP3    H145277   2.616   3.257  10.487 -0.3018  0.4707 -0.3407
 7954TIP3    H245278   2.758   3.294  10.450 -0.2296  0.5037 -0.0273
 7955TIP3   OH245279   1.905   0.207  15.101 -0.1211  0.1555 -0.6822
 7955TIP3    H145280   1.972   0.197  15.169 -0.4857  0.5611 -0.2621
 7955TIP3    H245281   1.902   0.301  15.084  0.3452  0.0089 -1.6465
 7956TIP3   OH245282   0.703   2.354  16.007 -1.1700  0.3734 -0.4152
 7956TIP3    H145283   0.756   2.301  15.948 -0.4298 -0.1425  0.6722
 7956TIP3    H245284   0.629   2.383  15.954 -1.7096 -1.9034 -0.9998
 7957TIP3   OH245285   6.315   3.850   4.436  0.0153  0.3739 -0.7365
 7957TIP3    H145286   6.405   3.831   4.409  0.4180  0.1804  0.6525
 7957TIP3    H245287   6.325   3.920   4.501 -0.9354  1.0582 -1.3096
 7958TIP3   OH245288   1.933   4.723  15.288  0.4225 -0.2731  0.0415
 7958TIP3    H145289   2.002   4.665  15.321 -0.5658 -2.6588 -1.7551
 7958TIP3    H245290   1.975   4.809  15.284  2.2300 -0.9503  2.0892
 7959TIP3   OH245291   2.303   4.920   4.724  0.0750 -0.1912  0.1728
 7959TIP3    H145292   2.268   4.880   4.644 -0.9724  1.2137 -0.1068
 7959TIP3    H245293   2.238   4.900   4.791  0.6694 -0.8713  0.5601
 7960TIP3   OH245294   2.891   1.505   0.184 -0.1838  0.2597 -0.1870
 7960TIP3    H145295   2.970   1.467   0.222 -0.6352 -2.3612 -1.6138
 7960TIP3    H245296   2.923   1.562   0.115  0.4907  0.0716 -0.0398
 7961TIP3   OH245297   0.866   0.285  11.948 -0.1625  0.2097  0.2934
 7961TIP3    H145298   0.943   0.252  11.901  0.0955  0.4544  0.5413
 7961TIP3    H245299   0.887   0.272  12.041 -2.6912 -5.1551  0.5093
 7962TIP3   OH245300   6.803   0.029   0.670  0.2791 -0.3198  0.0376
 7962TIP3    H145301   6.813  -0.017   0.587  0.7873 -1.0247  0.4715
 7962TIP3    H245302   6.873   0.093   0.671 -0.2711  0.2996 -0.4570
 7963TIP3   OH245303   1.862   3.578  16.888 -0.2495  0.3200 -0.2109
 7963TIP3    H145304   1.951   3.575  16.853 -0.3834 -0.8950 -0.4936
 7963TIP3    H245305   1.870   3.537  16.975 -0.7087 -0.8094 -0.6840
 7964TIP3   OH245306   1.814   4.694  12.611 -0.1622 -0.9733  0.2145
 7964TIP3    H145307   1.880   4.736  12.667 -0.0947  0.8443 -1.1116
 7964TIP3    H245308   1.732   4.705  12.660 -0.0399  0.1889  0.2043
 7965TIP3   OH245309   0.323   3.518   4.318 -0.9905  0.3668  0.0061
 7965TIP3    H145310   0.324   3.555   4.406 -0.5072 -0.9088  0.5666
 7965TIP3    H245311   0.283   3.431   4.329  1.1523 -0.7671 -0.5903
 7966TIP3   OH245312   2.284   5.382  13.600  0.0238 -0.2901 -0.0629
 7966TIP3    H145313   2.304   5.425  13.517  0.0717 -2.1998 -1.1087
 7966TIP3    H245314   2.359   5.326  13.616 -0.0170  0.0198  1.2570
 7967TIP3   OH245315   4.242   2.462   2.174  0.7033 -0.4206 -0.2543
 7967TIP3    H145316   4.178   2.533   2.182 -0.2463 -1.0387 -1.9715
 7967TIP3    H245317   4.323   2.507   2.148  0.1696  0.0823 -1.1074
 7968TIP3   OH245318   1.165   2.517  16.186  0.5489 -0.1753 -0.5394
 7968TIP3    H145319   1.073   2.493  16.175  0.7122 -0.3593 -1.5820
 7968TIP3    H245320   1.166   2.571  16.265 -0.1684 -1.7505  0.6163
 7969TIP3   OH245321   3.039   2.948   4.745 -0.1767  0.1072  0.4304
 7969TIP3    H145322   2.972   2.929   4.680 -1.4717 -1.4580  2.1405
 7969TIP3    H245323   3.109   2.991   4.696 -1.0382 -1.1349 -1.9894
 7970TIP3   OH245324   4.906   0.197   3.300 -0.6669 -0.0555 -0.4238
 7970TIP3    H145325   4.905   0.278   3.248 -0.2308 -1.1938 -2.3041
 7970TIP3    H245326   4.837   0.143   3.262 -0.4821 -0.8560  0.3491
 7971TIP3   OH245327   3.847   4.441  11.152  0.3509 -0.2346 -0.2756
 7971TIP3    H145328   3.883   4.366  11.199  1.4190  0.9642  0.9070
 7971TIP3    H245329   3.756   4.447  11.182  0.8496  0.1604  1.2471
 7972TIP3   OH245330   0.498   2.137  15.329  0.0392 -0.0051 -0.2323
 7972TIP3    H145331   0.455   2.070  15.382  1.5000  1.2691  2.8013
 7972TIP3    H245332   0.455   2.219  15.354 -0.8533  0.4653 -2.9269
 7973TIP3   OH245333   1.515   2.983  11.466 -0.0761 -0.1816 -0.0353
 7973TIP3    H145334   1.473   3.048  11.409 -1.3090 -0.2437  0.7666
 7973TIP3    H245335   1.472   2.901  11.444 -0.7298 -0.1669  1.1208
 7974TIP3   OH245336   5.996   2.604  13.762 -0.1482 -0.7719  0.1410
 7974TIP3    H145337   6.090   2.616  13.745 -0.4278  1.1820 -0.2761
 7974TIP3    H245338   5.988   2.512  13.788  2.0173 -0.7476  1.1249
 7975TIP3   OH245339   1.522   2.424   2.585 -0.1396 -0.5861  0.5991
 7975TIP3    H145340   1.594   2.443   2.524 -0.5738  2.8522  0.9540
 7975TIP3    H245341   1.564   2.380   2.659  1.1508 -0.8266 -0.2448
 7976TIP3   OH245342   3.470   2.420  10.482 -0.3498 -0.1883 -0.5475
 7976TIP3    H145343   3.477   2.515  10.476 -2.1820  0.0632  0.8286
 7976TIP3    H245344   3.494   2.389  10.394  0.8285  1.4697 -0.8591
 7977TIP3   OH245345   5.785   3.731  17.021  0.3243 -0.1878  0.1081
 7977TIP3    H145346   5.725   3.738  16.947  0.3522 -0.1561  0.0882
 7977TIP3    H245347   5.773   3.813  17.070  0.8306  0.1085 -0.2546
 7978TIP3   OH245348   5.394   5.562   3.521 -0.4664  0.5279  0.2695
 7978TIP3    H145349   5.484   5.531   3.529 -0.8054 -0.8220 -0.7156
 7978TIP3    H245350   5.392   5.607   3.436 -0.5319  1.2968  0.6708
 7979TIP3   OH245351   2.390   5.360  15.192 -0.2773  0.1766 -0.1813
 7979TIP3    H145352   2.382   5.440  15.140 -1.3552  1.4957  1.8642
 7979TIP3    H245353   2.483   5.354  15.214 -0.0699  0.4396 -0.9880
 7980TIP3   OH245354   6.517   5.998  13.657 -0.0971 -0.5152 -0.1637
 7980TIP3    H145355   6.586   5.937  13.682 -0.3381 -0.4468  0.7196
 7980TIP3    H245356   6.563   6.073  13.621  0.3051 -0.3719  0.6305
 7981TIP3   OH245357   6.590   5.116  15.133  0.1688 -0.0790  0.3273
 7981TIP3    H145358   6.645   5.072  15.197  0.3680 -1.0474 -0.4903
 7981TIP3    H245359   6.646   5.186  15.098 -0.1130  0.7975  1.5437
 7982TIP3   OH245360   1.106   4.114  14.557  0.4073 -0.0212  0.2409
 7982TIP3    H145361   1.101   4.187  14.496  0.4817 -0.9405 -0.9100
 7982TIP3    H245362   1.181   4.134  14.613  0.1309  1.0017  0.2561
 7983TIP3   OH245363   6.675   4.390  12.055 -0.2993 -0.1927 -0.5197
 7983TIP3    H145364   6.604   4.417  12.114  0.1798  0.8495 -0.3993
 7983TIP3    H245365   6.661   4.442  11.976  0.7169  0.5251 -0.2426
 7984TIP3   OH245366   5.970   0.202   0.452 -0.0988 -0.2143 -0.0724
 7984TIP3    H145367   5.938   0.292   0.444  0.5235  0.0033 -0.2184
 7984TIP3    H245368   6.045   0.209   0.512 -1.1704 -0.9271  1.4145
 7985TIP3   OH245369   4.765   6.179  16.139 -0.8835 -0.3833  0.7492
 7985TIP3    H145370   4.678   6.190  16.101 -0.7041 -1.0089  0.1514
 7985TIP3    H245371   4.809   6.262  16.122 -0.8603 -0.5936 -0.2680
 7986TIP3   OH245372   4.163   5.793   1.687 -0.1017 -0.0025 -0.3582
 7986TIP3    H145373   4.255   5.768   1.701  0.5991  1.1873 -2.3549
 7986TIP3    H245374   4.115   5.711   1.689  0.8412 -0.5575  1.7009
 7987TIP3   OH245375   3.046   0.075   1.733  0.5864 -0.1418 -0.9142
 7987TIP3    H145376   2.963   0.113   1.761 -0.1551 -0.6259 -2.3078
 7987TIP3    H245377   3.111   0.143   1.750 -0.0983  0.2740  0.1307
 7988TIP3   OH245378   2.290   2.418  16.814 -0.2617  0.0384  0.1263
 7988TIP3    H145379   2.327   2.343  16.861 -0.0299 -0.6366 -1.0901
 7988TIP3    H245380   2.363   2.481  16.809  0.7855 -1.2315 -2.1446
 7989TIP3   OH245381   3.149   5.280  13.751  0.0306  0.5292 -0.4190
 7989TIP3    H145382   3.172   5.356  13.698 -1.1139  0.5396 -0.9375
 7989TIP3    H245383   3.121   5.316  13.835  0.1009  0.6383 -0.4432
 7990TIP3   OH245384   0.054   3.328  14.488  0.6427 -0.1008 -0.8962
 7990TIP3    H145385   0.018   3.309  14.575  1.4308 -0.4985 -0.6490
 7990TIP3    H245386  -0.022   3.347  14.434  0.2076  1.5292  0.2115
 7991TIP3   OH245387   5.380   0.261   2.472 -0.2289 -0.0642  0.2119
 7991TIP3    H145388   5.287   0.267   2.450  0.2274  0.3573 -1.7759
 7991TIP3    H245389   5.407   0.351   2.488  0.3747  0.1529 -1.7826
 7992TIP3   OH245390   3.699   0.095   0.901 -0.1814 -0.7679 -0.5102
 7992TIP3    H145391   3.755   0.142   0.840  1.3954 -0.0569  1.3817
 7992TIP3    H245392   3.727   0.003   0.894  0.2017 -0.6407 -0.6244
 7993TIP3   OH245393   0.077   0.726   1.501  0.1726  0.3121  0.0170
 7993TIP3    H145394   0.012   0.791   1.529 -0.9023 -1.3567  1.5766
 7993TIP3    H245395   0.063   0.651   1.559  1.5920 -1.2078 -1.5046
 7994TIP3   OH245396   3.065   4.523  11.009 -0.0293  0.0037 -0.3979
 7994TIP3    H145397   3.063   4.559  10.920  0.5495 -0.2923 -0.5352
 7994TIP3    H245398   3.135   4.457  11.006  0.8111  0.8229  0.5825
 7995TIP3   OH245399   2.922   6.254   0.235 -0.4949 -0.2747  0.4419
 7995TIP3    H145400   2.984   6.222   0.299 -0.8514 -3.0158 -0.4781
 7995TIP3    H245401   2.940   6.204   0.155 -1.6743  1.2626 -0.8856
 7996TIP3   OH245402   5.281   5.870   2.044 -0.4579 -0.3041  0.4106
 7996TIP3    H145403   5.342   5.940   2.067 -0.2637 -0.1348 -0.5745
 7996TIP3    H245404   5.260   5.885   1.952  0.8228 -2.4421 -0.3189
 7997TIP3   OH245405   1.257   3.240  10.591 -0.4223 -0.2236  0.0379
 7997TIP3    H145406   1.197   3.313  10.607  0.1986  0.5196 -0.9066
 7997TIP3    H245407   1.318   3.274  10.526  0.9672 -0.9980  0.8958
 7998TIP3   OH245408   4.788   6.650  14.564 -0.0153 -0.4316 -0.0973
 7998TIP3    H145409   4.730   6.644  14.488  0.3908  1.6249 -0.6372
 7998TIP3    H245410   4.809   6.559  14.586 -2.6056 -1.1938 -0.4974
 7999TIP3   OH245411   1.777   2.581  11.275  0.8403 -0.0644 -0.1129
 7999TIP3    H145412   1.774   2.548  11.364 -1.1395  2.0235  0.6865
 7999TIP3    H245413   1.716   2.526  11.226 -1.2628  1.3180  0.8434
 8000TIP3   OH245414   2.961   5.591   4.938 -0.3014 -0.2608  0.0571
 8000TIP3    H145415   2.915   5.670   4.966 -0.8058 -0.4084 -0.3420
 8000TIP3    H245416   2.952   5.590   4.843  1.8780  0.5384 -0.2175
 8001TIP3   OH245417   2.254   5.467   1.940  0.4924  0.2654 -0.3678
 8001TIP3    H145418   2.261   5.384   1.893 -1.2357 -0.6298  0.8509
 8001TIP3    H245419   2.297   5.451   2.024 -1.5470 -0.0769  0.6604
 8002TIP3   OH245420   4.565   5.083  15.809 -0.6930 -0.0021 -0.3967
 8002TIP3    H145421   4.475   5.078  15.778 -1.1212 -1.3909  0.9640
 8002TIP3    H245422   4.598   5.165  15.772 -2.4504  0.4661 -1.0380
 8003TIP3   OH245423   6.072   2.965   0.795  0.1200  0.1173 -0.6662
 8003TIP3    H145424   6.131   2.924   0.732  0.9446 -0.4764  0.4621
 8003TIP3    H245425   6.126   3.032   0.838 -0.8045  1.4373 -1.4831
 8004TIP3   OH245426   3.326   4.843  16.090 -0.3072  0.5458 -0.0004
 8004TIP3    H145427   3.376   4.924  16.080 -0.7740  0.6883 -1.3488
 8004TIP3    H245428   3.247   4.869  16.137 -0.2929  0.8076 -0.1197
 8005TIP3   OH245429   6.119   4.589   1.828 -0.0555  0.0221 -0.8742
 8005TIP3    H145430   6.214   4.600   1.823  0.0741 -0.4340  0.2278
 8005TIP3    H245431   6.104   4.496   1.812 -0.3388  0.1411 -1.3012
 8006TIP3   OH245432   0.415   0.130   0.289  0.0940 -0.3263 -0.4437
 8006TIP3    H145433   0.365   0.124   0.207 -0.6370 -0.5284  0.0072
 8006TIP3    H245434   0.463   0.048   0.294 -0.4407 -0.6367 -0.3073
 8007TIP3   OH245435   6.804   4.593   1.248  0.0384  0.1028 -0.2621
 8007TIP3    H145436   6.747   4.625   1.177  0.1416  1.0082  0.0540
 8007TIP3    H245437   6.892   4.605   1.214  0.0693 -0.2128 -0.2925
 8008TIP3   OH245438   6.782   2.440   0.393  0.4117  0.6409 -0.1251
 8008TIP3    H145439   6.845   2.375   0.423 -1.3935 -1.0656  0.2201
 8008TIP3    H245440   6.792   2.441   0.298  0.0541 -0.6326 -0.1916
 8009TIP3   OH245441   2.942   3.122   0.998 -0.5061 -0.0608 -0.8171
 8009TIP3    H145442   2.954   3.173   1.078 -1.8793 -0.0858 -0.5717
 8009TIP3    H245443   3.029   3.116   0.960  0.1579  0.0270  0.6301
 8010TIP3   OH245444   0.894   2.226   4.567  0.8108  0.1983 -0.4031
 8010TIP3    H145445   0.823   2.275   4.608 -0.0741 -1.4423  0.1072
 8010TIP3    H245446   0.853   2.145   4.536  1.9857  0.2497 -2.2496
 8011TIP3   OH245447   4.299   4.346   5.954  0.2830  0.2718 -0.1629
 8011TIP3    H145448   4.262   4.434   5.957  1.3392  0.7250  0.0298
 8011TIP3    H245449   4.277   4.308   6.039  2.2520  1.4038  0.9389
 8012TIP3   OH245450   5.764   5.649   5.137 -0.2954 -0.6518 -0.2533
 8012TIP3    H145451   5.733   5.588   5.069 -1.7556  0.2879 -0.4677
 8012TIP3    H245452   5.783   5.593   5.212  0.7748 -1.6424 -1.2035
 8013TIP3   OH245453   5.886   2.992   1.965  0.6965 -0.1063  0.1814
 8013TIP3    H145454   5.845   2.906   1.971  0.7709 -0.5014 -3.1315
 8013TIP3    H245455   5.980   2.974   1.961  0.6948  0.0212 -0.9765
 8014TIP3   OH245456   2.350   5.820   3.648  0.3698  0.4582 -0.0190
 8014TIP3    H145457   2.395   5.881   3.707  2.1051 -1.3902  0.6595
 8014TIP3    H245458   2.268   5.800   3.693 -0.0808  1.9996 -0.1005
 8015TIP3   OH245459   4.385   5.363  13.098 -0.0687  0.0763 -0.5152
 8015TIP3    H145460   4.399   5.305  13.173  1.4360  1.1536  0.0805
 8015TIP3    H245461   4.294   5.391  13.107  0.4066  1.1945  1.7054
 8016TIP3   OH245462   1.174   5.650   1.141 -0.0315 -0.0324 -0.0843
 8016TIP3    H145463   1.134   5.669   1.056 -1.4376  0.2263  0.6038
 8016TIP3    H245464   1.102   5.658   1.203  1.0224 -0.0041  1.1662
 8017TIP3   OH245465   4.781   3.510   2.116  0.1326 -0.2439  0.1255
 8017TIP3    H145466   4.803   3.602   2.135 -1.1776 -0.1149  1.1309
 8017TIP3    H245467   4.772   3.470   2.203  0.7433 -1.3564 -0.3099
 8018TIP3   OH245468   6.008   5.527   1.896  0.3680 -0.1071  0.6205
 8018TIP3    H145469   5.969   5.439   1.898 -1.2991  0.5831  0.3540
 8018TIP3    H245470   6.100   5.511   1.875  0.0876 -1.7895  0.4527
 8019TIP3   OH245471   3.227   0.605   6.094 -0.1844 -0.2920  0.0947
 8019TIP3    H145472   3.219   0.573   6.004  0.7754 -1.2043  0.3240
 8019TIP3    H245473   3.241   0.527   6.147 -1.3911  0.1648  1.1532
 8020TIP3   OH245474   2.096   6.731  16.324  0.2026 -0.1419 -0.2979
 8020TIP3    H145475   2.187   6.758  16.316  0.2734 -0.2978 -0.0662
 8020TIP3    H245476   2.056   6.751  16.240  0.4874 -0.2025 -0.4467
 8021TIP3   OH245477   5.424   2.575   2.002 -0.2749 -0.5285 -0.5831
 8021TIP3    H145478   5.419   2.554   1.908 -0.0982  0.1058 -0.7451
 8021TIP3    H245479   5.515   2.603   2.015 -0.1712 -1.0795 -0.1165
 8022TIP3   OH245480   4.150   2.346  12.073  0.0731  0.1578 -0.0934
 8022TIP3    H145481   4.150   2.298  11.990 -1.2272  3.2685 -2.0948
 8022TIP3    H245482   4.066   2.325  12.113  0.2524 -0.5492 -0.0818
 8023TIP3   OH245483   5.287   3.098   1.552  0.1169  0.1082 -0.0022
 8023TIP3    H145484   5.342   3.049   1.613  0.4865 -1.5554 -1.5788
 8023TIP3    H245485   5.346   3.124   1.482 -0.5802  0.7230 -0.3756
 8024TIP3   OH245486   4.392   2.142  11.991  0.1424 -0.2779  0.2530
 8024TIP3    H145487   4.374   2.232  11.966 -0.7522 -0.6091 -0.3490
 8024TIP3    H245488   4.320   2.119  12.051  0.4184 -0.5595  0.4787
 8025TIP3   OH245489   5.975   3.408  14.163  0.2012  0.5404 -0.0350
 8025TIP3    H145490   5.933   3.376  14.083 -0.0294 -2.6861  1.2299
 8025TIP3    H245491   5.903   3.433  14.220 -0.0411 -2.3046  1.0700
 8026TIP3   OH245492   6.455   1.327   2.678 -0.3595  0.3426  0.4263
 8026TIP3    H145493   6.395   1.402   2.683 -0.8011 -0.0226  0.6154
 8026TIP3    H245494   6.541   1.367   2.667 -0.5762  0.8902  0.6602
 8027TIP3   OH245495   1.465   5.536  14.526  0.4280 -0.2513  0.4619
 8027TIP3    H145496   1.481   5.510  14.616 -0.5173 -2.5985  0.0291
 8027TIP3    H245497   1.452   5.453  14.479 -1.5109  0.9661 -1.3384
 8028TIP3   OH245498   5.549   4.815  11.833  0.2103  0.1400 -0.6791
 8028TIP3    H145499   5.588   4.892  11.874  0.1160  0.5028 -1.2518
 8028TIP3    H245500   5.599   4.803  11.752 -0.4439  0.2325 -1.1044
 8029TIP3   OH245501   3.477   0.497   1.156  0.0003 -0.5218 -1.2072
 8029TIP3    H145502   3.438   0.437   1.219 -1.5552  1.0779 -0.5374
 8029TIP3    H245503   3.555   0.452   1.123 -0.9940 -2.7715 -0.6173
 8030TIP3   OH245504   3.263   3.062  16.131  0.2783  0.1628 -0.0442
 8030TIP3    H145505   3.217   3.146  16.130 -0.8798 -0.4153 -3.1892
 8030TIP3    H245506   3.352   3.084  16.103  0.1882  0.4251 -0.1285
 8031TIP3   OH245507   2.584   3.341  13.306  0.1550  0.4764  0.4808
 8031TIP3    H145508   2.653   3.323  13.371  0.3346  0.0208  0.1665
 8031TIP3    H245509   2.629   3.333  13.222 -0.4512 -0.5767  0.2446
 8032TIP3   OH245510   6.777   2.713  16.399  0.1450  0.2535 -0.6085
 8032TIP3    H145511   6.763   2.620  16.414  0.3735 -0.0066 -1.8909
 8032TIP3    H245512   6.727   2.757  16.467  0.5490 -0.8160  0.3955
 8033TIP3   OH245513   2.716   2.328  13.430 -0.4711 -0.0509  0.0238
 8033TIP3    H145514   2.806   2.355  13.409 -0.0632 -1.8889 -0.8268
 8033TIP3    H245515   2.722   2.291  13.518 -0.6282  0.8028  0.3987
 8034TIP3   OH245516   5.565   0.438   5.526  0.2476 -0.4008 -0.5413
 8034TIP3    H145517   5.590   0.487   5.447  0.2364  1.5803  0.6278
 8034TIP3    H245518   5.482   0.478   5.553  0.6292 -0.5348  0.8779
 8035TIP3   OH245519   5.365   6.594   1.788  0.0249 -0.2531  0.0029
 8035TIP3    H145520   5.325   6.629   1.709  0.3260 -0.3812 -0.2079
 8035TIP3    H245521   5.417   6.519   1.758  1.0618  0.3823  0.1641
 8036TIP3   OH245522   1.764   6.621  15.181  0.0502 -0.7492 -0.0881
 8036TIP3    H145523   1.717   6.644  15.261 -2.4961 -2.8161 -0.8827
 8036TIP3    H245524   1.847   6.584  15.212 -0.9217 -1.6029  1.6092
 8037TIP3   OH245525   0.387   3.985   2.603  0.0346  0.1421  0.2533
 8037TIP3    H145526   0.376   3.979   2.698  0.8388  0.3433  0.3694
 8037TIP3    H245527   0.436   4.067   2.591 -0.3978  0.3095 -0.3617
 8038TIP3   OH245528   0.742   0.761  12.540  0.0878 -0.1581 -0.0205
 8038TIP3    H145529   0.812   0.778  12.477 -0.6473  0.9357 -0.5594
 8038TIP3    H245530   0.689   0.692  12.499 -0.0596  0.1464 -0.3497
 8039TIP3   OH245531   4.178   5.282   5.094 -0.1673  0.1325 -0.2919
 8039TIP3    H145532   4.255   5.297   5.040  1.2198 -0.9591  1.2750
 8039TIP3    H245533   4.184   5.191   5.121 -1.5779  0.2428  0.5202
 8040TIP3   OH245534   1.369   4.349  15.030 -0.0649  0.3450 -0.6816
 8040TIP3    H145535   1.459   4.322  15.013  0.0667 -1.0022  1.6073
 8040TIP3    H245536   1.365   4.361  15.125 -2.1253  1.0912 -0.8040
 8041TIP3   OH245537   3.146   6.091  16.873  0.1870 -0.3401  0.2820
 8041TIP3    H145538   3.158   6.057  16.784  0.0946  1.1254 -0.3250
 8041TIP3    H245539   3.234   6.088  16.912  0.3007 -0.6211  0.0086
 8042TIP3   OH245540   2.713   5.898   4.610  0.1501 -0.2751  0.2026
 8042TIP3    H145541   2.721   5.811   4.649 -0.8866 -1.0484 -1.2238
 8042TIP3    H245542   2.757   5.889   4.525  0.5128  0.7674  0.2691
 8043TIP3   OH245543   0.771   3.245  11.553  0.3735  0.0406 -0.8532
 8043TIP3    H145544   0.839   3.268  11.616  0.9883 -0.8730 -1.1598
 8043TIP3    H245545   0.692   3.290  11.585  0.3066 -1.4714  1.3754
 8044TIP3   OH245546   0.458   3.770  13.120 -0.2700 -0.1254  0.3203
 8044TIP3    H145547   0.437   3.694  13.174  1.1418  0.4831  1.7939
 8044TIP3    H245548   0.518   3.822  13.173  1.9825  0.0658 -2.1794
 8045TIP3   OH245549   6.631   0.459  12.460  0.1139  0.1095  0.0493
 8045TIP3    H145550   6.586   0.538  12.429 -0.0275  0.8080  1.9164
 8045TIP3    H245551   6.723   0.475  12.438  0.0972  0.8332  0.4768
 8046TIP3   OH245552   6.193   4.712   1.110  0.4834  0.1210  0.5486
 8046TIP3    H145553   6.274   4.716   1.161  0.8516 -0.5997  0.0303
 8046TIP3    H245554   6.213   4.759   1.030  0.1826  0.4887  0.6869
 8047TIP3   OH245555   5.315   6.205  13.296  0.4490  0.1081 -0.4124
 8047TIP3    H145556   5.385   6.149  13.330  0.1914 -0.7219 -1.1909
 8047TIP3    H245557   5.330   6.205  13.201 -1.2313 -0.9838 -0.7162
 8048TIP3   OH245558   5.926   3.147  10.622  0.0449  0.3416 -0.0399
 8048TIP3    H145559   5.933   3.181  10.532  0.3308 -1.7237 -0.8433
 8048TIP3    H245560   5.884   3.218  10.670 -1.0745  1.1292 -2.0423
 8049TIP3   OH245561   5.962   0.569  13.163 -0.5375 -0.5497 -0.1800
 8049TIP3    H145562   5.909   0.567  13.243 -2.8832 -0.3907 -1.6208
 8049TIP3    H245563   5.954   0.658  13.130 -1.6254 -1.1893 -1.7936
 8050TIP3   OH245564   2.111   0.085   2.220 -0.1821 -0.3310 -0.4917
 8050TIP3    H145565   2.109   0.129   2.305  1.2514  2.1319 -1.6231
 8050TIP3    H245566   2.031   0.115   2.176 -0.3645 -0.7286 -0.4397
 8051TIP3   OH245567   0.374   2.332   4.472 -0.1193 -0.5887 -0.3801
 8051TIP3    H145568   0.379   2.356   4.379 -0.5499 -0.1432 -0.2936
 8051TIP3    H245569   0.409   2.243   4.476 -2.3102 -1.5524 -1.3577
 8052TIP3   OH245570   4.941   2.329   4.798 -0.4156 -0.1340 -0.2197
 8052TIP3    H145571   4.870   2.380   4.758 -0.1571 -0.8369 -1.6478
 8052TIP3    H245572   4.986   2.289   4.723 -0.3098 -2.0409  0.8123
 8053TIP3   OH245573   3.320   0.554   4.100 -0.4813  0.0197  0.6579
 8053TIP3    H145574   3.282   0.622   4.155  0.6123  0.4690  0.8883
 8053TIP3    H245575   3.415   0.565   4.110 -0.2768 -1.3090  0.4237
 8054TIP3   OH245576   2.482   5.547   2.459  0.6597  0.0604  0.0645
 8054TIP3    H145577   2.436   5.626   2.487  0.4578  0.1610 -0.5211
 8054TIP3    H245578   2.412   5.490   2.425  1.1021  1.0353 -2.7694
 8055TIP3   OH245579   2.944   3.244  13.761 -0.1585 -0.6947  0.4787
 8055TIP3    H145580   2.981   3.331  13.754  0.7554 -1.1728 -0.9912
 8055TIP3    H245581   3.014   3.185  13.732 -1.2566 -1.8019 -0.0275
 8056TIP3   OH245582   1.452   0.260  11.588 -0.1156 -0.2263 -1.2703
 8056TIP3    H145583   1.518   0.260  11.519  0.9644 -0.5658 -0.2830
 8056TIP3    H245584   1.459   0.173  11.628 -1.8593 -0.6284 -1.7629
 8057TIP3   OH245585   6.063   1.359   1.217 -0.0792  0.0529 -0.9000
 8057TIP3    H145586   6.033   1.278   1.258  0.0027 -0.3333 -1.5812
 8057TIP3    H245587   6.079   1.334   1.126  1.7766  0.3828 -0.6877
 8058TIP3   OH245588   4.159   3.107  12.493 -0.3547 -0.2895 -0.4595
 8058TIP3    H145589   4.200   3.080  12.411 -0.8360 -0.7881 -0.5445
 8058TIP3    H245590   4.178   3.036  12.555  0.4464  0.3246  0.0157
 8059TIP3   OH245591   4.757   1.284  16.461  0.9434  0.8274  0.0645
 8059TIP3    H145592   4.851   1.280  16.439  0.7958 -2.7784 -0.5819
 8059TIP3    H245593   4.729   1.193  16.458 -2.4501  1.7264  1.0880
 8060TIP3   OH245594   0.127   4.288   0.615 -0.2401  0.1464 -0.0622
 8060TIP3    H145595   0.219   4.267   0.597  0.4937  2.1349  1.0758
 8060TIP3    H245596   0.082   4.203   0.610  1.5836 -0.8378 -0.9343
 8061TIP3   OH245597   0.974   5.490   0.659 -0.5734  0.5562 -0.2183
 8061TIP3    H145598   1.028   5.470   0.582 -0.9147  0.9992 -0.5760
 8061TIP3    H245599   0.917   5.414   0.668  0.4003 -0.1271  0.4356
 8062TIP3   OH245600   0.481   0.534  14.484 -0.1741 -0.1490 -0.0448
 8062TIP3    H145601   0.409   0.471  14.496  0.0095 -0.1819  0.9546
 8062TIP3    H245602   0.536   0.523  14.562  1.1940 -0.4723 -1.0277
 8063TIP3   OH245603   5.384   2.380   4.185  0.1339 -0.3284  0.3940
 8063TIP3    H145604   5.343   2.367   4.099  0.4469 -0.0374  0.1952
 8063TIP3    H245605   5.311   2.397   4.244  0.0386  2.2324 -0.3286
 8064TIP3   OH245606   2.962   6.004   2.946 -0.0414  0.2056  0.5565
 8064TIP3    H145607   3.030   6.061   2.909  1.0645 -0.6724  1.1807
 8064TIP3    H245608   2.981   6.002   3.039 -1.0319  0.0553  0.7618
 8065TIP3   OH245609   2.723   1.070   3.369 -0.1403 -0.1056  0.3269
 8065TIP3    H145610   2.775   1.111   3.300  1.0274 -0.3191  1.0607
 8065TIP3    H245611   2.774   1.082   3.449 -1.4204  0.0566  1.1619
 8066TIP3   OH245612   5.975   2.415   4.860  0.0206  0.6548 -0.2933
 8066TIP3    H145613   5.905   2.435   4.798 -2.1463 -1.0097  1.4313
 8066TIP3    H245614   5.986   2.320   4.855 -0.0105  0.5117  1.5921
 8067TIP3   OH245615   6.678   0.488  16.619  0.8609  0.5243 -0.6009
 8067TIP3    H145616   6.664   0.398  16.648  1.5415  0.8129  0.7278
 8067TIP3    H245617   6.614   0.501  16.549 -2.1394  0.2366  1.8188
 8068TIP3   OH245618   2.409   2.644  12.148 -0.2787 -0.2132 -0.8595
 8068TIP3    H145619   2.442   2.674  12.063  0.1883 -1.7299 -1.2368
 8068TIP3    H245620   2.431   2.715  12.208 -0.9893  1.0733 -2.0657
 8069TIP3   OH245621   5.195   3.288  12.180 -0.2355 -0.7519  0.2851
 8069TIP3    H145622   5.126   3.265  12.243 -0.5157 -1.2858 -0.1953
 8069TIP3    H245623   5.268   3.230  12.202 -0.1363 -0.5584  0.4619
 8070TIP3   OH245624   3.026   1.090  14.647 -0.0430 -0.0024 -0.8762
 8070TIP3    H145625   2.998   1.057  14.562  0.1793 -0.0774 -0.9224
 8070TIP3    H245626   3.107   1.138  14.628  1.9497 -2.8586 -0.2607
 8071TIP3   OH245627   3.039   1.687  12.847 -0.5652  0.8354  0.3198
 8071TIP3    H145628   3.063   1.601  12.814 -2.0425  0.2946  0.5665
 8071TIP3    H245629   3.109   1.745  12.817  0.8123 -0.5551  0.7312
 8072TIP3   OH245630   0.165   4.199   3.844 -0.7130 -0.1939  0.2783
 8072TIP3    H145631   0.254   4.169   3.822 -0.1123  1.7609 -0.1229
 8072TIP3    H245632   0.109   4.153   3.781  0.2050 -0.1601 -0.5911
 8073TIP3   OH245633   4.415   1.532  12.484 -0.9319  0.2208  0.0327
 8073TIP3    H145634   4.331   1.542  12.438 -0.3230 -1.8458 -1.6637
 8073TIP3    H245635   4.462   1.465  12.434  1.3500  0.6118  1.5203
 8074TIP3   OH245636   0.039   1.685   3.879 -0.4885 -0.3926 -0.0601
 8074TIP3    H145637   0.056   1.595   3.854 -0.7577 -0.7443  0.9766
 8074TIP3    H245638   0.003   1.679   3.967  0.2482  0.7793  0.3400
 8075TIP3   OH245639   6.746   1.639   0.304  0.3190 -0.2367 -0.1051
 8075TIP3    H145640   6.655   1.669   0.303  0.2988 -0.3208 -1.0786
 8075TIP3    H245641   6.739   1.544   0.310  0.3463 -0.2309  0.0187
 8076TIP3   OH245642   0.966   4.844   5.461 -0.0961 -0.0428 -0.2096
 8076TIP3    H145643   1.054   4.806   5.465  0.8482  1.7612 -2.1523
 8076TIP3    H245644   0.981   4.937   5.444 -2.3727  0.7031  1.3866
 8077TIP3   OH245645   4.286   4.567   1.815 -0.6129 -0.0237 -0.1515
 8077TIP3    H145646   4.340   4.629   1.864 -1.0937 -1.2232  2.0237
 8077TIP3    H245647   4.198   4.579   1.850 -0.6720 -2.0471  0.5365
 8078TIP3   OH245648   0.263   6.411   2.839 -0.0198  0.5093  0.1430
 8078TIP3    H145649   0.234   6.501   2.855  1.1640  0.9169  0.0809
 8078TIP3    H245650   0.225   6.361   2.911 -0.3404  1.1309  0.4161
 8079TIP3   OH245651   4.373   4.541  10.387  0.1198  0.2546  0.1076
 8079TIP3    H145652   4.382   4.446  10.377 -1.8839  0.1426 -1.2441
 8079TIP3    H245653   4.302   4.552  10.449 -1.0399  0.8126 -1.2680
 8080TIP3   OH245654   2.242   5.481   0.628  0.0637 -0.3651  0.3222
 8080TIP3    H145655   2.287   5.564   0.610 -0.7255 -0.2128 -1.0396
 8080TIP3    H245656   2.235   5.479   0.724 -1.9180  2.2624  0.3286
 8081TIP3   OH245657   0.756   6.414  14.446  0.3834  0.6508  0.4828
 8081TIP3    H145658   0.834   6.389  14.496 -1.8656 -0.4805  3.7268
 8081TIP3    H245659   0.724   6.332  14.410 -0.8923  0.5962  1.6896
 8082TIP3   OH245660   2.332   1.358  14.966 -0.3419 -0.6402  0.4783
 8082TIP3    H145661   2.416   1.377  15.008 -1.2020  0.2212  1.9070
 8082TIP3    H245662   2.337   1.400  14.881  0.5846 -0.3872  0.6483
 8083TIP3   OH245663   4.818   1.315  16.032  0.3125 -0.0605 -0.2388
 8083TIP3    H145664   4.811   1.264  16.112 -0.0885  1.2590  0.5935
 8083TIP3    H245665   4.908   1.346  16.030 -0.1217  1.3658  0.6589
 8084TIP3   OH245666   5.538   4.233  13.068 -0.1975 -0.7316  0.1701
 8084TIP3    H145667   5.576   4.321  13.062 -0.7000 -0.4470  0.9842
 8084TIP3    H245668   5.473   4.231  12.999 -1.4890  0.2251  1.2989
 8085TIP3   OH245669   0.657   3.112  15.849 -0.2428 -0.4548  0.0329
 8085TIP3    H145670   0.589   3.179  15.857  0.8270  0.9437 -1.6720
 8085TIP3    H245671   0.718   3.148  15.784 -0.1470 -3.5748 -1.7676
 8086TIP3   OH245672   6.656   0.924   5.621 -0.3375  0.5188 -0.0163
 8086TIP3    H145673   6.597   0.991   5.654 -0.4690 -0.0671  0.9576
 8086TIP3    H245674   6.683   0.874   5.698  2.7181  1.7481 -0.1479
 8087TIP3   OH245675   3.974   3.896  15.424  0.2180  0.4449  0.0180
 8087TIP3    H145676   4.002   3.805  15.418 -1.7810 -0.1536 -1.6437
 8087TIP3    H245677   3.998   3.923  15.512 -0.4088 -2.1593  1.0811
 8088TIP3   OH245678   6.535   2.677  10.903  0.1474 -0.0545  0.6060
 8088TIP3    H145679   6.576   2.607  10.852  0.3235  0.2935  0.2640
 8088TIP3    H245680   6.609   2.728  10.936  0.0411 -0.3312  1.2990
 8089TIP3   OH245681   3.605   1.685  15.402 -0.4761 -0.2430 -0.2607
 8089TIP3    H145682   3.567   1.738  15.472  0.8356  2.0482 -1.1918
 8089TIP3    H245683   3.681   1.642  15.442 -0.1652  0.4700 -0.0787
 8090TIP3   OH245684   2.453   0.462   4.068 -0.0705  0.2768  0.0605
 8090TIP3    H145685   2.434   0.474   3.975 -0.1529 -1.1268 -0.1271
 8090TIP3    H245686   2.381   0.408   4.100  0.2241  0.3271  0.8180
 8091TIP3   OH245687   3.129   3.681   1.270 -0.0106  0.2997  0.9059
 8091TIP3    H145688   3.089   3.677   1.357  0.6814  2.0179  1.3455
 8091TIP3    H245689   3.091   3.759   1.230 -0.3088 -0.4618 -0.3582
 8092TIP3   OH245690   5.160   6.763   2.656 -0.2462  0.1812  0.1016
 8092TIP3    H145691   5.136   6.735   2.744 -0.3288  1.3567  0.4801
 8092TIP3    H245692   5.208   6.689   2.618 -0.1524 -0.3073  1.1590
 8093TIP3   OH245693   0.109   3.464   1.433 -0.2564  0.0337  0.0215
 8093TIP3    H145694   0.171   3.465   1.506  1.1963  1.1064 -1.1483
 8093TIP3    H245695   0.056   3.543   1.446 -0.9493 -0.5285  0.6622
 8094TIP3   OH245696   5.590   0.445   1.363  0.2590  0.6042  0.2102
 8094TIP3    H145697   5.616   0.369   1.311  0.9416  1.2532 -0.4375
 8094TIP3    H245698   5.645   0.441   1.441  0.3882  0.5101  0.1142
 8095TIP3   OH245699   6.324   3.765  16.396  0.6028  0.2623  0.2378
 8095TIP3    H145700   6.248   3.709  16.413 -0.3931  1.2128 -0.8881
 8095TIP3    H245701   6.399   3.712  16.422 -0.2685 -1.6972 -0.9672
 8096TIP3   OH245702   4.998   1.614   2.475 -0.4330  0.2115  0.3992
 8096TIP3    H145703   4.922   1.591   2.528  1.1657 -0.2287  2.6321
 8096TIP3    H245704   5.008   1.540   2.415 -0.9530 -0.4057  1.0535
 8097TIP3   OH245705   0.192   0.273  13.781  0.3747  0.0620 -0.5830
 8097TIP3    H145706   0.109   0.228  13.794  0.0378  0.7519 -0.3393
 8097TIP3    H245707   0.222   0.294  13.870 -0.7178  2.5754 -0.7431
 8098TIP3   OH245708   0.580   0.555  17.059 -0.2390 -0.2059  0.5098
 8098TIP3    H145709   0.549   0.560  17.149 -1.2743  1.9721  0.0972
 8098TIP3    H245710   0.674   0.575  17.065 -0.5136  1.0642  1.0476
 8099TIP3   OH245711   2.938   0.438   5.779 -0.2076  0.0764 -0.0147
 8099TIP3    H145712   2.896   0.363   5.821 -0.2920  0.6031  0.8902
 8099TIP3    H245713   2.969   0.492   5.852 -1.3336  1.5901 -0.5797
 8100TIP3   OH245714   5.127   4.350  16.837 -0.1359  0.2339  0.4567
 8100TIP3    H145715   5.057   4.295  16.805 -0.7860  1.4286 -0.2464
 8100TIP3    H245716   5.083   4.427  16.873  0.7577  0.4899  1.0527
 8101TIP3   OH245717   1.944   6.565  12.873  0.3265  0.0342  0.0870
 8101TIP3    H145718   1.959   6.522  12.789 -1.3560 -1.5360  0.5313
 8101TIP3    H245719   1.967   6.498  12.938 -2.0103 -0.1476  0.8034
 8102TIP3   OH245720   1.131   1.922   1.988 -0.3513  0.6955 -0.4561
 8102TIP3    H145721   1.153   1.929   1.895  0.0667  1.5495 -0.3023
 8102TIP3    H245722   1.111   1.829   2.001 -0.3687  0.5591 -1.3870
 8103TIP3   OH245723   5.314   5.718   6.371  0.1415 -0.3679  0.1908
 8103TIP3    H145724   5.378   5.789   6.359  0.8135 -1.0088 -0.0912
 8103TIP3    H245725   5.231   5.763   6.387  0.8811  0.5087  1.8734
 8104TIP3   OH245726   1.386   3.493   1.812  0.6344 -0.4433  0.6292
 8104TIP3    H145727   1.378   3.566   1.873 -0.8562  1.0418 -1.2002
 8104TIP3    H245728   1.448   3.524   1.746  1.0733 -1.4108  0.5726
 8105TIP3   OH245729   6.010   2.004   2.817  0.0858 -0.3246  0.1706
 8105TIP3    H145730   6.099   1.973   2.835  0.6688  0.5678 -1.0229
 8105TIP3    H245731   6.009   2.094   2.850 -0.6539 -0.6091  0.9432
 8106TIP3   OH245732   4.015   6.268   6.385 -0.3033 -0.4430  0.6948
 8106TIP3    H145733   4.048   6.358   6.391  1.1473 -0.9803  1.2203
 8106TIP3    H245734   3.926   6.273   6.419 -1.2318  1.2594 -1.6976
 8107TIP3   OH245735   4.983   1.859  11.505 -0.7344 -0.0221  0.3275
 8107TIP3    H145736   5.014   1.774  11.537  2.5632  1.3950  1.3521
 8107TIP3    H245737   5.019   1.866  11.417 -1.3390  0.1668  0.0926
 8108TIP3   OH245738   5.060   2.332  15.957 -0.3425 -0.4293 -0.3476
 8108TIP3    H145739   5.143   2.379  15.968 -1.1041  1.3715 -1.8914
 8108TIP3    H245740   5.083   2.254  15.907  0.2957  0.5847 -1.6894
 8109TIP3   OH245741   0.726   4.542   3.849 -0.0483  0.1351 -0.3854
 8109TIP3    H145742   0.732   4.529   3.755 -1.6836 -0.3265 -0.4613
 8109TIP3    H245743   0.788   4.479   3.886  0.1047 -0.1608 -1.1325
 8110TIP3   OH245744   5.857   5.507   4.482  0.3176  0.1310 -1.1625
 8110TIP3    H145745   5.882   5.526   4.391  0.0879 -0.2521 -1.3092
 8110TIP3    H245746   5.810   5.424   4.477 -1.5490  1.1103 -0.9913
 8111TIP3   OH245747   6.027   2.446   2.290  0.4256 -0.3230 -0.3312
 8111TIP3    H145748   6.078   2.365   2.281 -0.6530 -0.8629 -2.0467
 8111TIP3    H245749   5.944   2.418   2.329 -0.0460 -0.0863 -1.1542
 8112TIP3   OH245750   0.740   2.635  16.015 -0.1994 -0.3211  0.8836
 8112TIP3    H145751   0.726   2.543  15.993 -0.9618 -0.5116  2.0548
 8112TIP3    H245752   0.686   2.649  16.093 -1.1863  1.4689 -0.0544
 8113TIP3   OH245753   1.178   3.991   2.286 -0.9998  0.0422 -0.1539
 8113TIP3    H145754   1.172   3.897   2.270 -2.3365  0.5204 -3.1069
 8113TIP3    H245755   1.123   4.006   2.363 -2.6636 -1.3357 -0.9945
 8114TIP3   OH245756   3.418   2.788  11.851  0.2436 -0.1161  1.1594
 8114TIP3    H145757   3.345   2.849  11.837  0.6915  0.0069 -1.0449
 8114TIP3    H245758   3.495   2.836  11.819  0.7807 -1.4214  0.4554
 8115TIP3   OH245759   4.892   5.239   0.332  0.1127 -0.1074 -0.3006
 8115TIP3    H145760   4.920   5.310   0.390 -0.7978  0.6262 -0.7375
 8115TIP3    H245761   4.970   5.186   0.319  0.2353 -0.5616  1.9711
 8116TIP3   OH245762   4.809   6.311  16.776  0.3608  0.1842  0.4209
 8116TIP3    H145763   4.726   6.334  16.733 -0.2804 -0.3924  1.3066
 8116TIP3    H245764   4.830   6.223  16.744  0.6962  0.3791  0.1035
 8117TIP3   OH245765   0.069   1.455   4.372 -0.1970 -0.4506  0.4503
 8117TIP3    H145766   0.013   1.523   4.408  0.1943 -0.7287  1.6090
 8117TIP3    H245767   0.110   1.413   4.448  1.3102 -0.4961 -0.3309
 8118TIP3   OH245768   5.302   4.146  16.965 -0.7270  0.4214  0.2200
 8118TIP3    H145769   5.256   4.219  16.923  0.4155  0.1313 -1.6326
 8118TIP3    H245770   5.332   4.091  16.892  2.1503  0.3640  1.3349
 8119TIP3   OH245771   1.718   5.053   1.261 -0.0622 -0.4747 -0.0349
 8119TIP3    H145772   1.707   5.045   1.356 -0.2004  0.5009  0.0401
 8119TIP3    H245773   1.778   4.982   1.238 -0.3941 -1.0142  0.7114
 8120TIP3   OH245774   4.222   0.428  13.105 -0.5987 -0.2928  0.4007
 8120TIP3    H145775   4.263   0.369  13.042 -0.4214 -0.0885  0.3206
 8120TIP3    H245776   4.282   0.503  13.110 -1.8333  0.8537 -1.0786
 8121TIP3   OH245777   5.392   4.462   5.750  0.2193 -0.1170  0.3019
 8121TIP3    H145778   5.335   4.406   5.803  1.8905 -0.8543  1.3979
 8121TIP3    H245779   5.373   4.436   5.659  0.0216 -1.5570  0.7300
 8122TIP3   OH245780   3.843   0.202   5.838 -0.3014  0.3198 -0.1543
 8122TIP3    H145781   3.923   0.150   5.847 -1.2717 -1.3092 -0.4210
 8122TIP3    H245782   3.858   0.279   5.893  0.8834 -0.6469  0.9623
 8123TIP3   OH245783   5.730   3.481   5.961 -0.2050  0.2049 -0.0138
 8123TIP3    H145784   5.707   3.565   6.000  1.5090  0.2592  0.9423
 8123TIP3    H245785   5.764   3.429   6.033 -2.1728 -1.7387 -0.3716
 8124TIP3   OH245786   4.392   2.997  16.374 -0.3795 -0.4629 -0.1829
 8124TIP3    H145787   4.399   2.996  16.278 -1.3534  0.2541 -0.2641
 8124TIP3    H245788   4.476   2.961  16.403  0.5095  0.6170 -1.2739
 8125TIP3   OH245789   4.645   2.604   6.366 -0.0406 -0.8558 -0.1671
 8125TIP3    H145790   4.601   2.668   6.422  0.3658  0.0132 -0.8141
 8125TIP3    H245791   4.578   2.575   6.305 -0.2788 -1.2108  0.2563
 8126TIP3   OH245792   1.731   5.211   1.598  0.0106 -0.3038  0.5556
 8126TIP3    H145793   1.669   5.174   1.535  0.6635 -0.3076 -0.0941
 8126TIP3    H245794   1.738   5.145   1.666  1.6817 -1.7422 -0.9211
 8127TIP3   OH245795   0.722   4.474  11.846  0.0508  0.4001  0.7587
 8127TIP3    H145796   0.785   4.401  11.847 -0.1375  0.2402  1.6309
 8127TIP3    H245797   0.757   4.534  11.780 -0.8710 -1.3952 -1.4706
 8128TIP3   OH245798   4.162   3.243  12.902 -0.0609 -0.3322 -0.0631
 8128TIP3    H145799   4.126   3.261  12.816  0.3862 -0.2299 -0.2284
 8128TIP3    H245800   4.193   3.152  12.897  2.6441  0.5576 -0.9574
 8129TIP3   OH245801   0.271   6.267   4.303 -0.6918 -0.2167  0.0419
 8129TIP3    H145802   0.225   6.338   4.259 -0.1145  0.3342  0.3252
 8129TIP3    H245803   0.307   6.306   4.383  2.9533  0.2333 -1.6254
 8130TIP3   OH245804   5.511   6.150   3.642 -0.0746  0.7912 -0.2833
 8130TIP3    H145805   5.448   6.089   3.605  0.3572 -0.0846  0.3883
 8130TIP3    H245806   5.596   6.113   3.618  0.2678 -0.4048  2.3777
 8131TIP3   OH245807   5.170   5.223   1.990  0.3060 -0.2044 -0.3701
 8131TIP3    H145808   5.109   5.288   1.956  0.6406  0.5999  0.5279
 8131TIP3    H245809   5.220   5.269   2.057  0.5225 -1.3916  0.3231
 8132TIP3   OH245810   6.768   3.081  15.178  0.0504  0.2730 -0.0994
 8132TIP3    H145811   6.678   3.069  15.147 -0.5196  0.1086  1.5286
 8132TIP3    H245812   6.794   3.167  15.145 -1.4184  1.1891  1.0050
 8133TIP3   OH245813   6.609   6.757  11.496  0.4789  0.1437  0.1366
 8133TIP3    H145814   6.546   6.787  11.430  0.5615 -0.4058 -0.2026
 8133TIP3    H245815   6.570   6.784  11.580  1.2838  2.5208 -0.1886
 8134TIP3   OH245816   4.740   4.721  12.631 -0.0834 -0.3609  0.1858
 8134TIP3    H145817   4.665   4.667  12.655 -0.1003 -0.2113  0.4667
 8134TIP3    H245818   4.816   4.672  12.661 -0.1003 -0.2086  0.4718
 8135TIP3   OH245819   3.507   1.458   4.965 -0.2930  0.1222  0.0438
 8135TIP3    H145820   3.419   1.422   4.973 -0.0977 -0.1327  1.3117
 8135TIP3    H245821   3.543   1.453   5.054  0.2243  2.2317  0.0072
 8136TIP3   OH245822   2.199   5.907  15.045 -0.2545 -0.8553  0.2256
 8136TIP3    H145823   2.231   5.883  15.132 -1.3111  0.2754  0.9561
 8136TIP3    H245824   2.131   5.843  15.026 -0.9410 -0.3162  0.8264
 8137TIP3   OH245825   0.866   2.602  15.227  0.0074 -0.2715 -0.6839
 8137TIP3    H145826   0.955   2.603  15.262  0.7376  0.9569 -2.3734
 8137TIP3    H245827   0.811   2.574  15.300  1.5255  1.0275  1.0575
 8138TIP3   OH245828   3.060   5.686   5.870 -0.3569  0.2751 -0.0489
 8138TIP3    H145829   3.154   5.705   5.860 -0.1841 -1.1702 -1.5410
 8138TIP3    H245830   3.026   5.760   5.919  1.5554  0.8789  0.4596
 8139TIP3   OH245831   2.387   2.314   0.788 -0.2166  0.4577  0.8477
 8139TIP3    H145832   2.359   2.225   0.807 -1.2335  0.4301 -0.6572
 8139TIP3    H245833   2.478   2.317   0.818  0.5947 -1.7803 -1.0605
 8140TIP3   OH245834   6.255   4.065  13.525  0.4852 -0.2616 -0.0108
 8140TIP3    H145835   6.210   4.043  13.607  2.0981 -1.0926  0.7059
 8140TIP3    H245836   6.228   4.156  13.507 -1.7007 -0.8090  0.1568
 8141TIP3   OH245837   0.728   5.791   4.127 -0.1190 -0.1894  0.4974
 8141TIP3    H145838   0.687   5.877   4.139  0.8361  0.4339 -0.5641
 8141TIP3    H245839   0.781   5.800   4.048  1.7817 -1.0768  1.6019
 8142TIP3   OH245840   3.759   3.497   5.681  0.2803 -0.6120  0.4975
 8142TIP3    H145841   3.779   3.562   5.749 -1.3905 -0.2793  0.7129
 8142TIP3    H245842   3.679   3.455   5.711 -1.6865  0.9253 -2.1886
 8143TIP3   OH245843   4.173   2.773  12.590  0.1450 -0.0382 -0.7184
 8143TIP3    H145844   4.215   2.730  12.516 -0.0849  0.9337 -1.4286
 8143TIP3    H245845   4.188   2.713  12.664  0.6927 -0.8404 -1.4591
 8144TIP3   OH245846   1.069   0.864  14.885 -0.2055  0.1163  0.0013
 8144TIP3    H145847   1.082   0.922  14.959  1.1393  1.4137 -1.1791
 8144TIP3    H245848   1.153   0.863  14.840 -0.5840 -1.7175 -0.7662
 8145TIP3   OH245849   6.422   0.664   0.250 -0.2988  0.2580 -0.2533
 8145TIP3    H145850   6.441   0.651   0.157  0.5041 -0.2237 -0.0331
 8145TIP3    H245851   6.508   0.664   0.292 -0.6293  0.8343  0.4503
 8146TIP3   OH245852   4.909   3.922  13.736 -0.5528 -0.3141  0.1781
 8146TIP3    H145853   4.923   4.016  13.728 -0.6719 -0.2737  0.4343
 8146TIP3    H245854   4.907   3.890  13.645 -1.6912  0.1025  0.0365
 8147TIP3   OH245855   2.718   5.529  15.035 -0.6274 -0.1900  0.1664
 8147TIP3    H145856   2.741   5.501  14.946 -0.7508  0.2608 -0.0103
 8147TIP3    H245857   2.633   5.573  15.025 -0.8627 -0.5520  0.5812
 8148TIP3   OH245858   6.708   2.372   4.937 -0.1241 -0.1360 -0.3307
 8148TIP3    H145859   6.638   2.307   4.944 -0.2871  0.1546  0.9961
 8148TIP3    H245860   6.716   2.408   5.025  2.3072 -0.7890 -0.2124
 8149TIP3   OH245861   5.190   0.739  12.416  0.3520  0.0269 -0.4067
 8149TIP3    H145862   5.239   0.820  12.428 -0.3724  0.3161  0.8269
 8149TIP3    H245863   5.195   0.696  12.501 -0.5389 -0.4922 -0.6073
 8150TIP3   OH245864   3.408   6.691  15.056  0.2779  0.1664  0.1713
 8150TIP3    H145865   3.374   6.620  15.109  0.0653  0.5366  0.5406
 8150TIP3    H245866   3.479   6.729  15.109  0.6843 -0.0537 -0.2155
 8151TIP3   OH245867   0.198   6.745  15.786  0.6638  0.0300  0.1580
 8151TIP3    H145868   0.121   6.692  15.808  0.4742 -0.8588 -2.3458
 8151TIP3    H245869   0.167   6.836  15.794 -0.5973 -0.3101 -0.5967
 8152TIP3   OH245870   3.198   6.044   5.896  0.0048 -0.1875  0.2371
 8152TIP3    H145871   3.144   5.998   5.960  1.7192 -0.4545  1.5739
 8152TIP3    H245872   3.158   6.131   5.889  0.0458  0.0146  2.0770
 8153TIP3   OH245873   1.595   6.578   3.119 -0.1165  0.5556 -0.9944
 8153TIP3    H145874   1.603   6.652   3.180  0.9364  0.6102 -1.1770
 8153TIP3    H245875   1.502   6.555   3.121 -0.1509  0.7250  0.4260
 8154TIP3   OH245876   4.799   1.923  14.455 -0.0931  0.0932 -0.4276
 8154TIP3    H145877   4.720   1.955  14.412  0.9976  0.2439 -2.4212
 8154TIP3    H245878   4.768   1.855  14.514 -1.8607  1.1902 -0.0376
 8155TIP3   OH245879   5.911   3.246  15.878  0.5261  0.7899  0.3157
 8155TIP3    H145880   5.974   3.193  15.828  0.0969  1.8286 -1.4361
 8155TIP3    H245881   5.960   3.274  15.955  1.7626  0.4239 -0.2979
 8156TIP3   OH245882   0.390   0.438   2.964 -0.3544 -0.1063  0.2513
 8156TIP3    H145883   0.484   0.436   2.981 -0.2446  1.2748 -0.0339
 8156TIP3    H245884   0.376   0.519   2.915 -1.4838 -1.0550 -1.0926
 8157TIP3   OH245885   1.751   0.232   4.751 -0.6344  0.0376  0.0348
 8157TIP3    H145886   1.675   0.252   4.805 -0.8404 -0.3070 -0.1229
 8157TIP3    H245887   1.818   0.294   4.780 -1.3322  1.1422 -0.6497
 8158TIP3   OH245888   5.104   2.424  12.334  0.0750 -0.1859 -0.1527
 8158TIP3    H145889   5.023   2.388  12.297  0.5027 -0.8154 -0.5000
 8158TIP3    H245890   5.146   2.470  12.262  0.8432 -1.2987 -0.4493
 8159TIP3   OH245891   1.600   2.949   0.939  0.1652  0.3805 -0.0759
 8159TIP3    H145892   1.599   2.893   1.016  1.9078  0.4073 -0.0048
 8159TIP3    H245893   1.686   2.989   0.939 -0.6862  2.3209 -0.6858
 8160TIP3   OH245894   2.269   2.133   2.153  0.0321  0.4608 -0.3868
 8160TIP3    H145895   2.294   2.052   2.197 -1.3131  0.0983 -0.2557
 8160TIP3    H245896   2.343   2.153   2.096  1.2070  0.1844  0.9943
 8161TIP3   OH245897   4.816   3.822   4.960 -0.1553 -0.1000  0.2214
 8161TIP3    H145898   4.818   3.843   4.867  1.2968 -0.2899  0.1900
 8161TIP3    H245899   4.723   3.824   4.983 -0.4135  2.1630 -0.7131
 8162TIP3   OH245900   5.110   2.101  11.640  0.1424  0.0302  0.1411
 8162TIP3    H145901   5.085   2.051  11.562 -0.7404  2.2018 -1.0404
 8162TIP3    H245902   5.028   2.136  11.673  0.8052  1.4378  0.3720
 8163TIP3   OH245903   2.614   3.300   1.870  0.7789  0.1752  0.1733
 8163TIP3    H145904   2.565   3.381   1.885  1.0600  0.8229 -2.0109
 8163TIP3    H245905   2.638   3.304   1.777  1.8038 -1.8758  0.3028
 8164TIP3   OH245906   2.455   3.318  15.297  0.3422  0.1829 -0.3105
 8164TIP3    H145907   2.473   3.387  15.361 -1.3672  1.2352 -0.8864
 8164TIP3    H245908   2.409   3.250  15.347  2.3621 -0.7869  0.3405
 8165TIP3   OH245909   6.579   3.025  11.887 -0.0621  0.1377 -0.0788
 8165TIP3    H145910   6.548   2.950  11.837  0.9588  0.9463 -2.0342
 8165TIP3    H245911   6.503   3.083  11.894 -0.3793 -0.2710 -0.1306
 8166TIP3   OH245912   5.770   3.971  11.899  0.3317  0.6238  0.1341
 8166TIP3    H145913   5.743   3.928  11.817  0.3234 -0.3393  0.6345
 8166TIP3    H245914   5.835   4.036  11.872 -1.1198  1.7198 -0.8840
 8167TIP3   OH245915   2.212   2.173   4.053 -0.2079 -0.0864  0.1891
 8167TIP3    H145916   2.203   2.265   4.077  0.5200 -0.1625  0.7707
 8167TIP3    H245917   2.170   2.125   4.124  1.1351 -0.2732  0.8810
 8168TIP3   OH245918   6.790   1.577  12.391 -0.6595  0.4884 -0.2057
 8168TIP3    H145919   6.714   1.537  12.348 -0.1974 -1.0719  0.3829
 8168TIP3    H245920   6.862   1.517  12.375 -0.3190  0.1664  2.1869
 8169TIP3   OH245921   0.957   6.540   3.876  0.2901  0.2543 -0.4552
 8169TIP3    H145922   1.050   6.542   3.856  0.1274 -0.6855 -1.4125
 8169TIP3    H245923   0.923   6.466   3.825 -1.1637  1.2543 -1.0166
 8170TIP3   OH245924   5.182   4.516   2.948 -0.0130 -0.4280 -0.4484
 8170TIP3    H145925   5.135   4.572   3.009  0.9200 -1.4972  1.3455
 8170TIP3    H245926   5.123   4.442   2.933  0.6035 -1.2480  0.9638
 8171TIP3   OH245927   2.979   0.061  12.006 -0.1599  0.0120 -0.6387
 8171TIP3    H145928   3.004   0.010  11.929 -1.7015  1.4015 -2.1376
 8171TIP3    H245929   2.884   0.058  12.007 -0.1803 -1.0117  2.0135
 8172TIP3   OH245930   5.741   2.046   2.428  0.2551  0.7226  0.2735
 8172TIP3    H145931   5.775   1.960   2.404  1.5626  2.1043 -3.7021
 8172TIP3    H245932   5.646   2.034   2.436  0.6101 -1.4277  2.1577
 8173TIP3   OH245933   3.665   6.037   5.490 -0.2396 -0.3094  0.0207
 8173TIP3    H145934   3.724   6.035   5.416 -1.1833  1.0372 -0.8149
 8173TIP3    H245935   3.604   5.965   5.475  1.5155 -2.1688  1.2539
 8174TIP3   OH245936   2.801   2.867   4.892 -0.0093  0.0474  0.4142
 8174TIP3    H145937   2.756   2.783   4.886  1.2868 -0.6828  0.5967
 8174TIP3    H245938   2.748   2.926   4.838  0.3453 -1.4582 -1.6996
 8175TIP3   OH245939   1.647   6.568  14.862  0.4717  0.0007 -0.5921
 8175TIP3    H145940   1.595   6.597  14.788  2.0969  1.0227 -1.3860
 8175TIP3    H245941   1.617   6.621  14.936 -0.2852 -0.1280 -0.8053
 8176TIP3   OH245942   5.427   2.441  16.577  0.5168 -0.0048  0.0078
 8176TIP3    H145943   5.355   2.391  16.615  0.9908  0.1311  1.1101
 8176TIP3    H245944   5.479   2.376  16.530  0.6870 -0.4239  0.7614
 8177TIP3   OH245945   5.485   3.430  16.399  0.2292 -0.2573 -0.2940
 8177TIP3    H145946   5.443   3.484  16.332 -1.7013  1.3103  2.0303
 8177TIP3    H245947   5.439   3.346  16.395  0.1882 -0.2129 -0.9267
 8178TIP3   OH245948   5.910   1.549  15.279  0.1557  0.0028 -0.1420
 8178TIP3    H145949   5.869   1.622  15.232  0.0406  0.0608  0.0460
 8178TIP3    H245950   5.838   1.488  15.294 -0.0628  0.5088  0.9823
 8179TIP3   OH245951   3.093   1.814  15.449 -0.4406  0.0592  0.2109
 8179TIP3    H145952   3.140   1.878  15.395  1.0807 -0.6151  0.6714
 8179TIP3    H245953   3.160   1.751  15.475 -1.4173 -0.4074  1.7330
 8180TIP3   OH245954   5.663   5.005   1.756 -0.4909  0.3124 -0.2729
 8180TIP3    H145955   5.654   4.911   1.774 -1.6541  0.2522 -1.0795
 8180TIP3    H245956   5.713   5.039   1.830  0.9251 -1.1241 -0.5021
 8181TIP3   OH245957   4.501   1.412  15.161  0.1476  0.0550 -0.3480
 8181TIP3    H145958   4.579   1.401  15.217  0.4521 -0.7825 -0.9168
 8181TIP3    H245959   4.507   1.341  15.098 -1.1470 -0.0808 -0.3435
 8182TIP3   OH245960   3.574   1.072   5.152  0.0715  0.0781 -0.0748
 8182TIP3    H145961   3.654   1.033   5.188 -0.3437 -1.2520 -0.5383
 8182TIP3    H245962   3.589   1.167   5.159  0.7188 -0.1227  1.9678
 8183TIP3   OH245963   3.762   2.942   0.792 -0.6506 -0.2960  0.0961
 8183TIP3    H145964   3.761   2.859   0.746  0.2179 -0.4597  0.3445
 8183TIP3    H245965   3.832   2.933   0.857 -0.4700  0.6588  0.0571
 8184TIP3   OH245966   3.121   1.350   1.957 -0.1162 -0.0470  0.7443
 8184TIP3    H145967   3.067   1.275   1.932 -0.2656 -0.2145  1.5410
 8184TIP3    H245968   3.069   1.426   1.930 -0.1356 -0.2179  0.2800
 8185TIP3   OH245969   4.952   6.327  12.039  0.0568 -0.4385 -0.5152
 8185TIP3    H145970   4.913   6.251  11.996 -1.4390  0.1622 -0.2796
 8185TIP3    H245971   4.999   6.291  12.114 -0.2101 -1.1762 -0.7002
 8186TIP3   OH245972   0.202   4.799  11.128  0.3487 -0.2414  0.2110
 8186TIP3    H145973   0.222   4.890  11.150 -0.3752  0.7457 -2.6615
 8186TIP3    H245974   0.106   4.795  11.129  0.3594 -0.7493 -0.3950
 8187TIP3   OH245975   5.015   2.764   4.814  0.0107  0.7653  0.1686
 8187TIP3    H145976   4.949   2.805   4.869  0.6674  1.5212  0.4149
 8187TIP3    H245977   4.967   2.700   4.762 -0.9386  1.4333  0.2054
 8188TIP3   OH245978   3.579   1.536   1.795  0.2046  0.0076 -0.3035
 8188TIP3    H145979   3.523   1.548   1.872  1.1777  2.2224  0.1413
 8188TIP3    H245980   3.520   1.505   1.727 -1.2514  0.7585  0.5771
 8189TIP3   OH245981   5.213   1.812   3.195  0.5534 -0.0841  0.6378
 8189TIP3    H145982   5.121   1.837   3.200  0.4460 -0.4265  0.4021
 8189TIP3    H245983   5.235   1.819   3.102  0.5955 -0.6053  0.6062
 8190TIP3   OH245984   3.719   1.028   0.063  0.7859  0.1936 -0.6147
 8190TIP3    H145985   3.750   1.102   0.011  1.4328  0.3472 -0.0328
 8190TIP3    H245986   3.691   1.067   0.146  0.4399 -0.1291 -0.5771
 8191TIP3   OH245987   4.709   5.289  14.693 -0.2594 -0.2042  0.7086
 8191TIP3    H145988   4.692   5.304  14.600 -0.3782 -0.9348  0.6112
 8191TIP3    H245989   4.716   5.194  14.701 -0.2336 -0.1412  1.4459
 8192TIP3   OH245990   0.894   0.072  17.079  0.4876  0.1448 -0.5017
 8192TIP3    H145991   0.842   0.067  16.999 -1.3539 -0.8079  0.6855
 8192TIP3    H245992   0.942   0.155  17.071 -0.3469  0.5264 -2.1486
 8193TIP3   OH245993   6.053   6.402   5.658  0.1708 -0.2241  0.3007
 8193TIP3    H145994   6.127   6.461   5.650  0.2468  0.0317  2.3451
 8193TIP3    H245995   5.976   6.459   5.658  0.0454 -0.3851 -0.5962
 8194TIP3   OH245996   4.640   5.283  13.851  0.3540 -0.0043  0.2276
 8194TIP3    H145997   4.708   5.284  13.784  1.6233  1.3708  1.4744
 8194TIP3    H245998   4.657   5.203  13.901 -0.6190 -1.0517 -1.0606
 8195TIP3   OH245999   6.797   6.673   3.971  0.4131 -0.7801 -0.0955
 8195TIP3    H146000   6.794   6.578   3.958 -0.6054 -0.8017  0.1767
 8195TIP3    H246001   6.708   6.702   3.950  1.1068  0.3306 -1.6564
 8196TIP3   OH246002   5.250   5.651  14.301 -0.2456  0.0861 -0.2602
 8196TIP3    H146003   5.324   5.654  14.362  0.6894  0.2659 -1.3706
 8196TIP3    H246004   5.177   5.619  14.354 -0.1264  2.6287  1.5907
 8197TIP3   OH246005   4.577   5.351  14.944  0.0058 -0.7821  0.4487
 8197TIP3    H146006   4.625   5.313  14.871 -0.8547  0.1807 -0.6454
 8197TIP3    H246007   4.508   5.288  14.964 -2.2387  0.6200 -2.2078
 8198TIP3   OH246008   0.038   5.477  10.376 -0.0678 -0.2273  0.3591
 8198TIP3    H146009   0.109   5.476  10.311 -0.5774  0.0157 -0.2085
 8198TIP3    H246010  -0.015   5.552  10.352 -2.1871 -2.0549 -1.0538
 8199TIP3   OH246011   4.343   2.034   2.022  1.1268 -0.0813  0.3355
 8199TIP3    H146012   4.375   2.098   2.085 -0.8315  1.1257  0.1769
 8199TIP3    H246013   4.299   1.968   2.075  0.3877  0.3861  0.3124
 8200TIP3   OH246014   4.828   5.396   4.279  0.7167  0.0557 -0.0363
 8200TIP3    H146015   4.849   5.422   4.189 -0.2566 -0.9317 -0.5667
 8200TIP3    H246016   4.802   5.477   4.322 -2.8039  0.0181 -1.8039
 8201TIP3   OH246017   4.776   3.592  11.685 -0.5785  0.2190 -0.3854
 8201TIP3    H146018   4.815   3.648  11.618  0.6370  1.6495  1.3922
 8201TIP3    H246019   4.770   3.506  11.644 -0.7464  1.2234 -2.5988
 8202TIP3   OH246020   5.291   3.614   4.002  0.0284  0.0775 -0.2721
 8202TIP3    H146021   5.209   3.641   3.961 -0.2575  0.2846  0.4149
 8202TIP3    H246022   5.335   3.560   3.936 -0.7592 -0.2138 -0.5664
 8203TIP3   OH246023   5.147   0.055   5.509 -0.0927 -0.1588  0.2373
 8203TIP3    H146024   5.236   0.024   5.491  0.7269  0.9691  2.1163
 8203TIP3    H246025   5.157   0.117   5.581 -2.3320  0.5248  0.0279
 8204TIP3   OH246026   3.711   3.380  12.840 -0.6514  0.1919  0.1337
 8204TIP3    H146027   3.778   3.394  12.773  2.5431 -1.1714  2.7945
 8204TIP3    H246028   3.709   3.285  12.852 -1.5613  0.3759  1.5835
 8205TIP3   OH246029   5.613   5.393   5.508 -0.5238 -0.0635  0.4114
 8205TIP3    H146030   5.528   5.352   5.492 -1.3915 -0.4517  4.7648
 8205TIP3    H246031   5.595   5.487   5.509 -0.4230 -0.0228 -0.7349
 8206TIP3   OH246032   0.429   4.710   2.649 -0.1603 -0.1751 -0.1594
 8206TIP3    H146033   0.444   4.713   2.743 -0.3469 -2.7842  0.0218
 8206TIP3    H246034   0.375   4.787   2.631 -0.0311  0.4396  1.8165
 8207TIP3   OH246035   2.367   1.924  11.579 -0.3143 -0.2436  0.0969
 8207TIP3    H146036   2.294   1.869  11.549 -0.7869  0.0435  0.7032
 8207TIP3    H246037   2.418   1.942  11.500 -1.5326  0.5098 -0.5433
 8208TIP3   OH246038   5.422   1.602   6.694  0.2498  0.2890 -0.0246
 8208TIP3    H146039   5.500   1.592   6.748 -0.7078 -0.4877  1.2957
 8208TIP3    H246040   5.358   1.542   6.734 -1.7187  2.4357  0.3092
 8209TIP3   OH246041   3.221   4.095   0.308 -0.1787  0.3369  0.4204
 8209TIP3    H146042   3.283   4.091   0.381 -0.7468 -0.9574  0.8412
 8209TIP3    H246043   3.262   4.044   0.239 -0.1118  0.7138  0.1764
 8210TIP3   OH246044   6.767   1.997  15.723  0.2345  0.8508 -0.0843
 8210TIP3    H146045   6.681   2.037  15.728  0.1672  0.6967  0.0166
 8210TIP3    H246046   6.784   1.988  15.629 -0.2931 -0.0293 -0.1060
 8211TIP3   OH246047   5.996   3.619   4.066 -0.0734 -0.0211 -0.3191
 8211TIP3    H146048   6.043   3.673   4.131 -1.7995 -0.4302  1.3753
 8211TIP3    H246049   6.065   3.570   4.022  1.1986  0.0864  1.4094
 8212TIP3   OH246050   3.596   2.000   2.550  0.1834 -0.4444  0.3561
 8212TIP3    H146051   3.536   2.008   2.624  1.5923 -0.1011  1.5077
 8212TIP3    H246052   3.673   1.957   2.587  0.2929 -1.7608 -1.3069
 8213TIP3   OH246053   4.158   0.251   1.731 -0.2508  0.0732 -0.0427
 8213TIP3    H146054   4.100   0.216   1.663 -0.5057  0.9988 -0.3268
 8213TIP3    H246055   4.246   0.227   1.703 -0.3618  0.3864 -0.6741
 8214TIP3   OH246056   5.458   3.031   2.386 -0.2623 -0.4860 -0.3662
 8214TIP3    H146057   5.528   2.969   2.406  0.6683  0.5754 -0.1698
 8214TIP3    H246058   5.501   3.117   2.388 -1.3065  0.1029 -1.5197
 8215TIP3   OH246059   3.296   3.121   0.020  0.4278 -0.0456 -0.1105
 8215TIP3    H146060   3.376   3.167  -0.006  1.6885 -2.5940 -1.0927
 8215TIP3    H246061   3.323   3.063   0.091 -0.2737 -1.5992 -1.0506
 8216TIP3   OH246062   4.397   5.753   1.829  0.8674  0.1999 -0.2849
 8216TIP3    H146063   4.480   5.802   1.835  0.3840  0.8826  1.5918
 8216TIP3    H246064   4.331   5.816   1.858 -0.6179  0.2359 -3.4027
 8217TIP3   OH246065   0.642   3.987  13.516  0.2895  0.1828  0.0445
 8217TIP3    H146066   0.691   3.937  13.451  1.9846 -0.9557  2.0690
 8217TIP3    H246067   0.625   3.925  13.586 -3.3853  0.7782 -0.1127
 8218TIP3   OH246068   1.737   0.640  16.812 -0.1861 -0.3262 -0.3136
 8218TIP3    H146069   1.760   0.681  16.896  2.8635  0.3728 -1.3545
 8218TIP3    H246070   1.731   0.547  16.831 -1.9018  0.0208  1.0817
 8219TIP3   OH246071   4.343   0.898  11.131  0.5641  0.2348  0.0996
 8219TIP3    H146072   4.398   0.890  11.208 -2.3800  0.4950  2.4115
 8219TIP3    H246073   4.289   0.819  11.132  1.2638 -0.3603 -2.4586
 8220TIP3   OH246074   3.182   2.599   0.328  0.4486 -0.0131  0.7004
 8220TIP3    H146075   3.201   2.506   0.334  1.4611  0.1164 -0.1990
 8220TIP3    H246076   3.216   2.626   0.243 -2.1922  0.6609 -0.2422
 8221TIP3   OH246077   4.148   5.255   5.381 -0.9110 -0.5784  0.0660
 8221TIP3    H146078   4.121   5.183   5.324  0.0155 -0.3351 -0.6962
 8221TIP3    H246079   4.158   5.330   5.322 -0.6648 -0.1315  0.6633
 8222TIP3   OH246080   0.972   0.098  14.898  0.6407 -0.3209 -0.4251
 8222TIP3    H146081   0.883   0.069  14.878  0.7270  0.4283 -2.0641
 8222TIP3    H246082   1.020   0.017  14.918 -0.1933 -0.8116 -0.3636
 8223TIP3   OH246083   6.482   5.033   3.777  0.3365  0.4254  0.0313
 8223TIP3    H146084   6.519   5.121   3.773  0.6027  0.2729 -1.0403
 8223TIP3    H246085   6.557   4.977   3.795  0.5221  0.2070 -1.3204
 8224TIP3   OH246086   5.392   1.884   6.230 -0.1928  0.4553 -0.1793
 8224TIP3    H146087   5.416   1.853   6.317 -1.1869 -0.7143 -0.2976
 8224TIP3    H246088   5.394   1.979   6.238 -1.2613  0.3917  1.4303
 8225TIP3   OH246089   5.005   3.572   0.846  0.5663  0.0786 -0.3413
 8225TIP3    H146090   4.986   3.665   0.858 -1.7832 -0.3739 -0.1697
 8225TIP3    H246091   5.044   3.544   0.929 -0.6345  0.4777  0.3722
 8226TIP3   OH246092   4.036   4.156  16.626 -0.7719  0.0676  0.5875
 8226TIP3    H146093   4.073   4.141  16.539 -0.1082  1.2071  0.6466
 8226TIP3    H246094   3.975   4.229  16.614 -1.0157 -0.0664  0.9910
 8227TIP3   OH246095   0.817   5.174   2.245  0.1179  0.0443 -0.0570
 8227TIP3    H146096   0.752   5.233   2.208 -0.0570 -0.1823 -0.1131
 8227TIP3    H246097   0.802   5.178   2.340  0.4716  0.5134 -0.0193
 8228TIP3   OH246098   2.061   4.935  10.730  0.4382  0.6464  0.0552
 8228TIP3    H146099   2.108   4.934  10.646  0.8986  1.2134  0.2986
 8228TIP3    H246100   2.109   4.872  10.784 -1.1740 -1.4184 -0.7752
 8229TIP3   OH246101   2.410   5.584  10.514  0.5364 -0.0780 -0.0418
 8229TIP3    H146102   2.492   5.611  10.556 -0.5921 -1.5241  3.4033
 8229TIP3    H246103   2.424   5.492  10.492 -0.1068 -0.3146  0.5079
 8230TIP3   OH246104   6.814   3.191  13.250  0.1737 -0.1931 -0.1711
 8230TIP3    H146105   6.863   3.260  13.295 -0.0085 -0.4767  0.4716
 8230TIP3    H246106   6.726   3.196  13.288  0.3598 -1.2641  0.4122
 8231TIP3   OH246107   6.079   5.497  14.610  0.4162  0.0004  0.3455
 8231TIP3    H146108   6.065   5.538  14.525 -0.1484  0.6751  0.7520
 8231TIP3    H246109   6.054   5.565  14.674 -1.2347 -1.1780  1.0345
 8232TIP3   OH246110   3.809   2.737   1.046 -0.0580  0.7707 -0.1133
 8232TIP3    H146111   3.827   2.721   1.139 -1.2800  0.6071  0.1051
 8232TIP3    H246112   3.721   2.775   1.045 -1.2458 -1.7793 -1.3915
 8233TIP3   OH246113   5.587   2.622   5.436  0.1760 -0.5075  0.7783
 8233TIP3    H146114   5.518   2.555   5.436  0.5905 -0.9394  0.4963
 8233TIP3    H246115   5.637   2.607   5.516  1.2508 -1.5705 -0.0684
 8234TIP3   OH246116   3.180   2.064  14.003 -0.3195 -0.2419  0.1623
 8234TIP3    H146117   3.146   2.147  14.038 -1.2443 -0.2817 -0.6028
 8234TIP3    H246118   3.162   2.000  14.072 -3.3847 -0.5943 -0.7976
 8235TIP3   OH246119   0.341   4.369  15.205  0.1351 -0.0063 -0.4545
 8235TIP3    H146120   0.402   4.409  15.267 -2.9518 -0.5988  3.3489
 8235TIP3    H246121   0.373   4.280  15.192 -0.2275 -0.5678  2.1088
 8236TIP3   OH246122   5.310   4.813  13.114 -0.4720  0.3738  0.2334
 8236TIP3    H146123   5.378   4.819  13.181 -0.0127  1.0678 -0.2749
 8236TIP3    H246124   5.357   4.824  13.031 -1.4194  2.9544 -0.0434
 8237TIP3   OH246125   4.232   2.165  16.046 -0.9395  0.4648 -0.6122
 8237TIP3    H146126   4.302   2.101  16.051  0.0633  1.5841  0.4592
 8237TIP3    H246127   4.162   2.130  16.102  0.4268  1.2092  1.7181
 8238TIP3   OH246128   5.810   1.821  11.146 -0.3113 -0.5708  0.4150
 8238TIP3    H146129   5.775   1.818  11.235 -2.0908 -0.0782 -0.2174
 8238TIP3    H246130   5.900   1.852  11.156 -0.8330  0.5744  1.9698
 8239TIP3   OH246131   6.406   5.520  11.258 -0.1850 -0.3692  0.1463
 8239TIP3    H146132   6.311   5.526  11.261 -0.2452 -1.3220  0.6554
 8239TIP3    H246133   6.427   5.507  11.166 -0.6345 -1.1963  0.1509
 8240TIP3   OH246134   3.709   3.062  14.001 -0.3809  0.8116  0.6150
 8240TIP3    H146135   3.792   3.060  14.049 -0.2413  2.1468  0.4650
 8240TIP3    H246136   3.716   3.138  13.944 -1.2753  0.2888 -0.2174
 8241TIP3   OH246137   0.631   5.689   2.014 -0.3120  1.1596  0.4848
 8241TIP3    H146138   0.559   5.668   2.074 -0.7237  2.0430  0.3163
 8241TIP3    H246139   0.708   5.646   2.052 -0.9340  0.1866  0.6521
 8242TIP3   OH246140   2.594   2.965   4.693  0.1398 -0.1562  0.3142
 8242TIP3    H146141   2.524   3.022   4.726  0.2450  0.4535 -0.4885
 8242TIP3    H246142   2.667   3.025   4.673  0.2170 -0.5444 -0.6363
 8243TIP3   OH246143   1.948   4.274   3.631  0.1661  0.1527  0.3563
 8243TIP3    H146144   2.027   4.239   3.673  0.1788 -1.4182 -0.9219
 8243TIP3    H246145   1.981   4.343   3.573  0.8850 -1.7854 -1.6338
 8244TIP3   OH246146   3.337   0.755   2.102 -0.2704  0.1997 -0.0190
 8244TIP3    H146147   3.370   0.788   2.018 -0.1194  1.9174  0.6719
 8244TIP3    H246148   3.268   0.818   2.126 -0.3522 -0.3062  1.1087
 8245TIP3   OH246149   6.514   4.573  13.480 -0.1465  0.2173 -0.3914
 8245TIP3    H146150   6.522   4.551  13.387  2.5851 -1.2712  0.1079
 8245TIP3    H246151   6.594   4.621  13.500 -1.0141  1.1153  1.0953
 8246TIP3   OH246152   1.573   2.197  12.930  0.3120 -0.1457 -0.5643
 8246TIP3    H146153   1.590   2.103  12.936  0.2685 -0.1010  0.3602
 8246TIP3    H246154   1.640   2.238  12.986  0.4080  0.3835 -1.0547
 8247TIP3   OH246155   6.783   2.960   4.451 -0.5655  0.5383  0.0736
 8247TIP3    H146156   6.859   2.922   4.407 -0.2730 -0.7953  1.6393
 8247TIP3    H246157   6.802   2.950   4.544 -1.7016  2.1717  0.5251
 8248TIP3   OH246158   4.703   6.785   1.857  0.0917  0.4384 -0.2384
 8248TIP3    H146159   4.775   6.798   1.795 -0.3138  1.1397 -0.5795
 8248TIP3    H246160   4.711   6.859   1.918  0.9145 -0.6286  0.9908
 8249TIP3   OH246161   4.788   2.998  15.290 -0.7379 -0.4285  0.3115
 8249TIP3    H146162   4.879   2.976  15.272 -0.5436 -0.1992  0.9604
 8249TIP3    H246163   4.738   2.952  15.223 -0.0790  0.2330 -0.6462
 8250TIP3   OH246164   3.015   1.244   3.365 -0.4383  0.4109 -0.3631
 8250TIP3    H146165   2.996   1.278   3.452 -0.3809 -1.1889  0.3255
 8250TIP3    H246166   3.035   1.151   3.380 -0.0970  0.1788 -2.0427
 8251TIP3   OH246167   5.946   1.903  10.562  0.4974 -0.2336  0.0452
 8251TIP3    H146168   5.898   1.822  10.580  1.0970 -0.4439  0.7522
 8251TIP3    H246169   6.035   1.885  10.593  1.1963 -0.0582 -1.7415
 8252TIP3   OH246170   4.829   1.363   1.978  0.1566  0.2236 -0.0749
 8252TIP3    H146171   4.789   1.415   1.908 -0.9933  0.7461  0.9404
 8252TIP3    H246172   4.909   1.329   1.939  2.5751  4.9982 -0.1073
 8253TIP3   OH246173   2.839   3.364  12.714 -0.3600  0.1421  0.4475
 8253TIP3    H146174   2.820   3.286  12.766  1.3648 -0.7225 -0.1586
 8253TIP3    H246175   2.898   3.334  12.645  0.0542  1.9126 -0.0275
 8254TIP3   OH246176   0.752   4.241   1.257  0.4018  0.3179 -0.3440
 8254TIP3    H146177   0.821   4.201   1.204 -0.1958 -1.3331  0.0493
 8254TIP3    H246178   0.755   4.193   1.340 -0.8408  0.6059 -0.1047
 8255TIP3   OH246179   4.818   0.989   3.302  0.2615  0.3836  0.0087
 8255TIP3    H146180   4.860   1.054   3.359 -1.0830  0.0634  1.4303
 8255TIP3    H246181   4.869   0.992   3.221  2.1433  0.9848  1.1466
 8256TIP3   OH246182   4.343   6.181   1.597 -0.5986 -0.0486 -0.4982
 8256TIP3    H146183   4.333   6.169   1.502  1.3822  1.5407 -0.9583
 8256TIP3    H246184   4.358   6.275   1.608 -1.1270 -0.1524  1.4494
 8257TIP3   OH246185   0.354   4.306  14.573  0.2627 -0.0870  0.0635
 8257TIP3    H146186   0.324   4.388  14.613  1.7342  0.2879  0.4820
 8257TIP3    H246187   0.444   4.325  14.546  0.1091 -1.1038 -1.2333
 8258TIP3   OH246188   4.684   6.395   3.766 -0.2166  0.2674  0.0870
 8258TIP3    H146189   4.617   6.449   3.723 -1.5224 -2.4906 -1.6106
 8258TIP3    H246190   4.661   6.397   3.859 -4.2246 -2.2723 -0.6029
 8259TIP3   OH246191   3.247   1.897   2.786  0.0496 -0.2416 -0.2386
 8259TIP3    H146192   3.263   1.815   2.835  0.3745  0.7930  1.4783
 8259TIP3    H246193   3.155   1.916   2.803  0.3631  0.5329  0.6639
 8260TIP3   OH246194   0.656   4.446   0.821 -0.3299  0.5026 -0.1618
 8260TIP3    H146195   0.573   4.403   0.842  0.3893 -1.7207 -1.5676
 8260TIP3    H246196   0.722   4.377   0.830  1.1530  1.7687 -0.8228
 8261TIP3   OH246197   1.267   3.540   3.694  0.0264 -0.4905 -0.6871
 8261TIP3    H146198   1.216   3.561   3.772  0.0036 -0.7656 -0.6270
 8261TIP3    H246199   1.262   3.619   3.640 -1.0106 -0.7412 -0.9755
 8262TIP3   OH246200   4.197   1.562  12.724  0.3128 -0.3996 -0.6234
 8262TIP3    H146201   4.169   1.588  12.636  0.0527 -0.2040 -0.4858
 8262TIP3    H246202   4.121   1.518  12.761  0.1603  0.1895 -0.2227
 8263TIP3   OH246203   0.366   1.773  15.864 -0.2970  0.0364  0.1330
 8263TIP3    H146204   0.444   1.722  15.843  0.0550  0.9152 -0.7306
 8263TIP3    H246205   0.400   1.854  15.903 -0.8548 -0.4199  1.6570
 8264TIP3   OH246206   3.967   6.280   1.956  0.3428 -0.8954  0.0160
 8264TIP3    H146207   4.036   6.343   1.978 -0.7798  1.4894 -2.6628
 8264TIP3    H246208   3.929   6.256   2.040  2.0791  0.5122  1.2848
 8265TIP3   OH246209   0.792   6.408   0.900  0.1204  0.7653  0.4480
 8265TIP3    H146210   0.733   6.398   0.974  0.6728  1.6353  1.0359
 8265TIP3    H246211   0.870   6.359   0.925  0.1351  0.6833  0.2412
 8266TIP3   OH246212   5.962   0.020  12.061  0.2597  0.1214 -0.2281
 8266TIP3    H146213   5.933   0.102  12.022  0.5744 -0.1143 -0.9847
 8266TIP3    H246214   6.028  -0.014  11.999  0.8244 -0.2265  0.5474
 8267TIP3   OH246215   3.299   5.104   4.967 -0.1513  0.0277  0.0952
 8267TIP3    H146216   3.265   5.155   5.040  0.1380 -0.6891  0.7498
 8267TIP3    H246217   3.329   5.022   5.007 -1.1254 -0.8931 -1.0049
 8268TIP3   OH246218   4.637   5.553  13.060  0.1787 -0.2577 -0.5469
 8268TIP3    H146219   4.666   5.559  13.151  1.1036 -0.0160 -0.8447
 8268TIP3    H246220   4.565   5.491  13.062  1.7080 -2.1134 -0.0016
 8269TIP3   OH246221   2.372   2.432  10.756 -0.2751 -0.2923 -0.5813
 8269TIP3    H146222   2.432   2.507  10.755  0.6132 -0.9786  0.0785
 8269TIP3    H246223   2.298   2.461  10.703  0.4550  0.7175 -1.0941
 8270TIP3   OH246224   6.365   2.173  15.511 -0.2946 -0.0601 -0.0790
 8270TIP3    H146225   6.413   2.090  15.503 -2.0253 -1.1595  0.3078
 8270TIP3    H246226   6.283   2.149  15.555 -1.1554  1.7434 -0.5926
 8271TIP3   OH246227   0.802   5.223   6.583  0.3089  0.2733 -0.3366
 8271TIP3    H146228   0.857   5.149   6.607  0.5958  0.8063  0.7522
 8271TIP3    H246229   0.862   5.290   6.551  0.2578  0.6450  0.3091
 8272TIP3   OH246230   2.190   2.190  12.751 -0.3075 -0.0618 -0.1547
 8272TIP3    H146231   2.213   2.114  12.697  2.0811 -0.0082  0.6451
 8272TIP3    H246232   2.143   2.153  12.826 -1.3264 -0.4297 -0.9514
 8273TIP3   OH246233   5.960   4.385  16.776 -0.1470 -0.5934  0.0405
 8273TIP3    H146234   5.875   4.407  16.814 -0.1153 -0.9808  0.3352
 8273TIP3    H246235   5.976   4.455  16.712 -0.1223  0.1615  0.8443
 8274TIP3   OH246236   6.086   1.118  14.844  0.7904 -0.4351 -0.2875
 8274TIP3    H146237   6.143   1.194  14.833  0.6317 -0.4640 -1.3876
 8274TIP3    H246238   6.028   1.142  14.916  1.3607  0.0994  0.0081
 8275TIP3   OH246239   4.383   4.153  12.677  0.2184 -0.0859 -0.0420
 8275TIP3    H146240   4.456   4.141  12.737 -1.5068 -0.4570  2.1460
 8275TIP3    H246241   4.413   4.219  12.615  1.6187  1.4658  2.1508
 8276TIP3   OH246242   6.043   2.312  14.997  0.0983 -0.0025 -0.2569
 8276TIP3    H146243   5.962   2.322  14.947 -0.2863  1.7960  0.6068
 8276TIP3    H246244   6.113   2.312  14.932 -0.5661 -1.1288 -0.9822
 8277TIP3   OH246245   5.224   1.215  15.529 -0.0695 -0.0053 -0.1357
 8277TIP3    H146246   5.312   1.233  15.498  0.3996  1.1998  1.6991
 8277TIP3    H246247   5.174   1.293  15.506  0.2163  0.7785  1.7322
 8278TIP3   OH246248   2.358   6.722  15.188 -0.1464  0.2391  0.0862
 8278TIP3    H146249   2.412   6.678  15.254  0.4255  0.3406 -0.2976
 8278TIP3    H246250   2.392   6.688  15.104 -1.7338 -0.9094 -0.1434
 8279TIP3   OH246251   0.689   4.597   1.895  0.3559  0.1419  0.2514
 8279TIP3    H146252   0.727   4.524   1.945  0.8809  0.6344  0.5798
 8279TIP3    H246253   0.717   4.675   1.942  2.7510  0.7730 -1.9699
 8280TIP3   OH246254   5.064   5.705   5.074  0.0019  0.1033 -0.6427
 8280TIP3    H146255   4.977   5.689   5.111  1.0132 -0.5012  1.6277
 8280TIP3    H246256   5.055   5.681   4.982 -2.0355 -0.6654 -0.2989
 8281TIP3   OH246257   0.672   3.866  15.387  0.0158  0.2006 -0.1075
 8281TIP3    H146258   0.684   3.781  15.346  0.6303  1.1787 -2.0555
 8281TIP3    H246259   0.760   3.901  15.397 -0.2357  0.6646  0.5864
 8282TIP3   OH246260   4.233   2.451   1.790 -0.8531  0.2780 -0.3244
 8282TIP3    H146261   4.296   2.522   1.778 -0.1316 -0.6328 -2.4388
 8282TIP3    H246262   4.220   2.415   1.702 -2.6511 -1.0002  0.3921
 8283TIP3   OH246263   6.529   0.115  10.708 -0.1487  0.2998  0.7340
 8283TIP3    H146264   6.473   0.052  10.663  0.6412 -0.7500  1.1887
 8283TIP3    H246265   6.618   0.082  10.694  0.1654  0.2918  2.5243
 8284TIP3   OH246266   2.336   2.625   3.088  0.3617  0.3399 -0.2048
 8284TIP3    H146267   2.428   2.646   3.105 -0.1342  1.5682  1.1494
 8284TIP3    H246268   2.303   2.699   3.038 -0.4540  1.0600  1.3330
 8285TIP3   OH246269   6.151   1.517   0.399  0.8996  0.4223 -0.0688
 8285TIP3    H146270   6.060   1.541   0.384  0.9845  0.0063 -1.3661
 8285TIP3    H246271   6.190   1.595   0.439 -0.4225 -0.0352  2.2417
 8286TIP3   OH246272   1.474   5.965   3.390 -0.1971  0.7958  0.5350
 8286TIP3    H146273   1.388   5.931   3.364 -0.9051  2.3197  0.7762
 8286TIP3    H246274   1.474   5.959   3.486 -0.2188  1.2132  0.5626
 8287TIP3   OH246275   3.379   4.198   2.679 -0.0416  0.1022 -0.0751
 8287TIP3    H146276   3.372   4.293   2.673  3.8135  0.4935 -1.0314
 8287TIP3    H246277   3.333   4.165   2.602  0.4948  1.3598 -0.9472
 8288TIP3   OH246278   3.124   6.162   2.466  0.3247  0.0451  0.0741
 8288TIP3    H146279   3.149   6.086   2.519 -0.0618  0.7747  1.3308
 8288TIP3    H246280   3.060   6.127   2.404 -1.5612 -0.2733  2.0818
 8289TIP3   OH246281   0.188   0.604  12.892  0.3895  0.1557  0.4337
 8289TIP3    H146282   0.236   0.526  12.868 -0.4650 -0.4266  0.5613
 8289TIP3    H246283   0.196   0.662  12.816  0.8364 -0.1426  0.2507
 8290TIP3   OH246284   6.757   6.393   4.689 -0.1648 -0.0647  0.5703
 8290TIP3    H146285   6.815   6.330   4.649 -0.1012  1.0753 -1.2330
 8290TIP3    H246286   6.669   6.360   4.670 -0.1434 -0.8010  1.6648
 8291TIP3   OH246287   0.453   3.518   1.764 -0.0361 -0.0089 -0.1952
 8291TIP3    H146288   0.468   3.443   1.821 -0.7335 -0.1017 -0.1219
 8291TIP3    H246289   0.376   3.562   1.801  0.3641  0.7421 -0.2365
 8292TIP3   OH246290   5.550   0.837   0.830 -0.0920 -0.1904  0.2991
 8292TIP3    H146291   5.642   0.813   0.824  0.1613  0.6945  0.4897
 8292TIP3    H246292   5.535   0.893   0.754 -0.2740  0.3001  0.6971
 8293TIP3   OH246293   3.794   1.922   1.881  0.2941  0.4530  0.0400
 8293TIP3    H146294   3.857   1.967   1.938 -0.6523  2.8947 -0.7371
 8293TIP3    H246295   3.770   1.987   1.816 -2.2833 -0.7249 -0.2916
 8294TIP3   OH246296   2.089   2.444  15.858  0.4611  0.1175 -0.0943
 8294TIP3    H146297   2.062   2.507  15.791 -0.7642  0.0811  0.3410
 8294TIP3    H246298   2.169   2.483  15.896  1.2016  0.1162 -1.5666
 8295TIP3   OH246299   5.617   1.671   0.125  0.3448 -0.1750 -0.2221
 8295TIP3    H146300   5.710   1.662   0.108  0.6615 -2.9797  2.2023
 8295TIP3    H246301   5.612   1.736   0.195  0.1982  1.5685 -1.7743
 8296TIP3   OH246302   0.926   4.705   3.731 -0.6406 -0.1898 -0.3338
 8296TIP3    H146303   1.001   4.691   3.788 -1.2523  1.7342  1.0476
 8296TIP3    H246304   0.850   4.680   3.784 -1.2292  1.7698 -0.1674
 8297TIP3   OH246305   3.369   2.047  13.799 -0.2890 -0.5656  0.0483
 8297TIP3    H146306   3.310   2.023  13.871 -0.5783 -0.0828 -0.0271
 8297TIP3    H246307   3.422   2.118  13.834  0.3401 -1.0760  0.1551
 8298TIP3   OH246308   4.035   2.284  11.620  0.6504  0.3343  0.2454
 8298TIP3    H146309   4.072   2.358  11.572  0.2258 -0.4058 -1.2855
 8298TIP3    H246310   3.954   2.264  11.573 -0.0093 -0.1470  1.5576
 8299TIP3   OH246311   3.002   4.474  13.696  0.3871  0.3028 -0.3511
 8299TIP3    H146312   3.007   4.533  13.771  0.0161 -0.5880  0.3864
 8299TIP3    H246313   2.941   4.405  13.723  1.9477 -1.2373 -0.6166
 8300TIP3   OH246314   6.029   6.568  16.805  0.1877  0.5503 -0.2847
 8300TIP3    H146315   5.955   6.581  16.745  0.1957 -0.3676 -0.5171
 8300TIP3    H246316   6.092   6.518  16.753  0.5208  0.4136  0.2467
 8301TIP3   OH246317   2.136   2.484   3.257  0.2885  0.4885  0.6055
 8301TIP3    H146318   2.187   2.530   3.191  0.8099  0.2032  0.8039
 8301TIP3    H246319   2.047   2.517   3.246  0.7410  1.9794  1.1283
 8302TIP3   OH246320   3.398   4.694  13.234 -0.2893 -0.6309 -0.0217
 8302TIP3    H146321   3.367   4.764  13.177  1.1511 -0.8655 -1.1440
 8302TIP3    H246322   3.494   4.698  13.227 -0.1271 -1.6171  1.2498
 8303TIP3   OH246323   6.131   3.014  15.515 -0.1900 -0.2670  0.2429
 8303TIP3    H146324   6.180   2.934  15.492  0.3086 -0.1855  0.9807
 8303TIP3    H246325   6.152   3.029  15.608 -1.6145 -0.2231  0.5801
 8304TIP3   OH246326   0.753   5.555  12.874  0.1195 -0.0208 -0.4737
 8304TIP3    H146327   0.761   5.512  12.959 -1.4695  1.2011  0.3509
 8304TIP3    H246328   0.831   5.610  12.868 -0.6159  1.2811  1.0804
 8305TIP3   OH246329   4.835   0.553   0.146  0.0287 -0.6491  0.0727
 8305TIP3    H146330   4.880   0.510   0.073 -0.3301 -1.5222  0.3521
 8305TIP3    H246331   4.793   0.630   0.106 -1.7015 -2.0879 -1.0513
 8306TIP3   OH246332   3.080   3.285  12.042 -0.1017 -0.8218 -0.5132
 8306TIP3    H146333   3.147   3.217  12.047  0.2401 -0.3931  1.1308
 8306TIP3    H246334   3.058   3.305  12.133  0.2462  1.7016 -0.9072
 8307TIP3   OH246335   5.580   0.707   2.773  0.1259  0.0865 -0.1148
 8307TIP3    H146336   5.498   0.666   2.800 -0.1545  0.3681 -0.5272
 8307TIP3    H246337   5.642   0.684   2.842 -0.5043  0.5416  0.6234
 8308TIP3   OH246338   6.418   0.059  13.269 -0.5585  0.2179 -0.0816
 8308TIP3    H146339   6.373   0.033  13.350 -0.4852  2.3469  0.6975
 8308TIP3    H246340   6.358   0.033  13.199 -1.4233 -0.1054  0.7555
 8309TIP3   OH246341   2.452   4.340  12.521  0.0371  0.4983 -0.3632
 8309TIP3    H146342   2.385   4.272  12.527 -0.0729  0.6021 -0.4154
 8309TIP3    H246343   2.491   4.328  12.434 -0.2965  0.7936 -0.5581
 8310TIP3   OH246344   4.222   5.256   5.639 -0.0956 -0.0668  0.6809
 8310TIP3    H146345   4.270   5.179   5.608  1.9749  1.1506  0.6528
 8310TIP3    H246346   4.175   5.288   5.562 -1.1720 -1.3991  0.7527
 8311TIP3   OH246347   5.615   2.295   1.614  0.8223  0.0210 -0.1481
 8311TIP3    H146348   5.559   2.224   1.582  0.3349  1.2808 -2.2221
 8311TIP3    H246349   5.697   2.285   1.565  1.1964  0.2063  0.4205
 8312TIP3   OH246350   4.803   4.735   3.019  0.2538  0.3279  0.1636
 8312TIP3    H146351   4.848   4.774   3.094  0.1482 -1.0423  0.9769
 8312TIP3    H246352   4.713   4.721   3.050  0.4044 -0.9549  0.0677
 8313TIP3   OH246353   2.986   5.993   4.968 -0.2503  0.2508  0.1082
 8313TIP3    H146354   3.081   5.984   4.966 -0.1457  0.5989  1.6489
 8313TIP3    H246355   2.965   6.046   4.891  0.7078 -0.4453 -0.6532
 8314TIP3   OH246356   5.789   1.574  12.295  0.0148  0.5409 -0.1684
 8314TIP3    H146357   5.765   1.547  12.207  1.2042 -0.4951 -0.2067
 8314TIP3    H246358   5.880   1.603  12.288  0.4171 -0.3870  0.8605
 8315TIP3   OH246359   5.248   4.681  14.983 -0.2897  0.3815  0.0378
 8315TIP3    H146360   5.174   4.651  14.931  0.5655 -2.1230  0.1195
 8315TIP3    H246361   5.273   4.764  14.944 -0.4061 -0.8407 -2.8514
 8316TIP3   OH246362   5.870   3.793  12.271 -0.2385  0.1911  0.1425
 8316TIP3    H146363   5.939   3.756  12.326  2.6076  1.5014 -2.2452
 8316TIP3    H246364   5.852   3.879  12.309 -0.5046 -0.1164  0.7184
 8317TIP3   OH246365   4.749   0.859  12.247  0.6021  0.4297  0.2369
 8317TIP3    H146366   4.745   0.774  12.291 -1.0765  0.1783 -0.3110
 8317TIP3    H246367   4.836   0.863  12.209  1.3707 -0.2257  1.8505
 8318TIP3   OH246368   5.913   1.041  15.271  0.1831  0.7399  0.0843
 8318TIP3    H146369   5.908   1.128  15.311  1.2921  0.3918  1.0392
 8318TIP3    H246370   5.964   0.989  15.333  1.1347 -0.0970 -1.3386
 8319TIP3   OH246371   5.568   3.608   3.175  0.6172 -0.3396 -0.1582
 8319TIP3    H146372   5.600   3.524   3.209 -0.4721 -1.2838 -1.3635
 8319TIP3    H246373   5.496   3.632   3.234 -2.7624 -3.0733 -2.7310
 8320TIP3   OH246374   3.185   1.958  14.827  0.5020  0.6419  0.2148
 8320TIP3    H146375   3.204   1.942  14.735 -2.4330 -1.0052 -0.2611
 8320TIP3    H246376   3.180   2.053  14.835  0.8648  0.8072 -1.3101
 8321TIP3   OH246377   4.868   5.952  11.302 -0.0073  0.0012 -0.1095
 8321TIP3    H146378   4.773   5.947  11.307  0.0033 -1.5082 -0.7682
 8321TIP3    H246379   4.899   5.887  11.365  0.5088 -1.2474 -1.5763
 8322TIP3   OH246380   4.166   1.413   2.638 -0.1679 -0.1001 -0.2135
 8322TIP3    H146381   4.096   1.369   2.588  0.5381  0.2332 -1.5604
 8322TIP3    H246382   4.189   1.351   2.707 -1.8001 -0.2034  0.2675
 8323TIP3   OH246383   2.829   6.726  15.573  0.6531 -0.6333 -0.2050
 8323TIP3    H146384   2.842   6.740  15.666 -1.8419  0.0222  0.1130
 8323TIP3    H246385   2.761   6.789  15.548  1.1336 -0.8922 -2.4411
 8324TIP3   OH246386   1.243   1.134  16.225 -0.6719  0.7137  0.2847
 8324TIP3    H146387   1.270   1.166  16.311 -1.5018 -0.5400  1.0429
 8324TIP3    H246388   1.148   1.127  16.231 -0.6698 -0.0847 -0.4688
 8325TIP3   OH246389   0.053   2.701   6.197  0.2219  0.2737 -0.1527
 8325TIP3    H146390  -0.033   2.742   6.209 -0.7666 -0.7048 -3.0271
 8325TIP3    H246391   0.078   2.724   6.107  2.6995 -0.0364  0.3763
 8326TIP3   OH246392   2.391   2.060   3.619 -0.1393 -0.5947 -0.4337
 8326TIP3    H146393   2.311   2.049   3.568  0.0871 -0.5458 -0.8080
 8326TIP3    H246394   2.361   2.084   3.706 -0.5392  2.5598 -1.3080
 8327TIP3   OH246395   1.023   5.248   1.343  0.1929  0.5798  0.2448
 8327TIP3    H146396   0.971   5.281   1.270 -1.2608 -0.3892  0.7851
 8327TIP3    H246397   1.114   5.259   1.316 -0.3162  0.3519 -1.6583
 8328TIP3   OH246398   1.121   3.937   5.072 -0.5232  0.1444 -0.0521
 8328TIP3    H146399   1.181   3.869   5.100  0.9762  1.4229 -0.0118
 8328TIP3    H246400   1.086   3.906   4.989 -1.0767 -1.3521  0.7122
 8329TIP3   OH246401   1.104   2.358   2.236 -0.8697 -0.2047  0.0294
 8329TIP3    H146402   1.187   2.385   2.275 -1.4237  3.0400 -0.7587
 8329TIP3    H246403   1.111   2.382   2.144 -1.0439 -4.1689 -1.2116
 8330TIP3   OH246404   1.570   5.936  12.149  0.2937  0.8541  0.8854
 8330TIP3    H146405   1.480   5.941  12.181  0.6085 -0.0270  1.9609
 8330TIP3    H246406   1.623   5.925  12.228  1.1466 -0.8677  0.1216
 8331TIP3   OH246407   0.931   1.472  11.381 -0.4085  0.3641  0.0187
 8331TIP3    H146408   0.880   1.422  11.444 -0.7716 -1.0338 -1.3257
 8331TIP3    H246409   0.961   1.549  11.430 -0.5874 -0.7061  1.8984
 8332TIP3   OH246410   3.832   4.757  15.578  0.3080  0.1235 -0.1793
 8332TIP3    H146411   3.902   4.823  15.578  1.7180 -1.3134  0.2087
 8332TIP3    H246412   3.820   4.735  15.486 -1.0402  1.7461 -0.4431
 8333TIP3   OH246413   5.717   4.500  16.894  0.1081 -0.0895  0.1895
 8333TIP3    H146414   5.685   4.437  16.958 -1.0495  1.1361  0.8856
 8333TIP3    H246415   5.652   4.498  16.823  1.7769 -2.0028 -1.4237
 8334TIP3   OH246416   3.791   4.159  11.846  0.1026  0.3732 -0.1972
 8334TIP3    H146417   3.778   4.202  11.930 -0.7779 -1.0889  0.4408
 8334TIP3    H246418   3.823   4.072  11.868  1.5227  0.5289 -1.4510
 8335TIP3   OH246419   0.570   3.130   5.485  0.2515 -0.0387  0.5170
 8335TIP3    H146420   0.598   3.221   5.472  1.6948 -0.6290 -0.7511
 8335TIP3    H246421   0.640   3.078   5.448 -2.0742 -1.6632 -1.9881
 8336TIP3   OH246422   6.543   2.944  15.066 -0.1617  0.3367  0.5536
 8336TIP3    H146423   6.457   2.979  15.090 -0.1027  1.8668 -1.2229
 8336TIP3    H246424   6.526   2.855  15.038 -0.8022 -0.1343  2.2698
 8337TIP3   OH246425   1.450   2.353  14.585 -0.0412  0.4906  0.1153
 8337TIP3    H146426   1.407   2.389  14.507  0.1634  0.5423  0.0265
 8337TIP3    H246427   1.531   2.315  14.553 -0.0292  0.3747  0.2810
 8338TIP3   OH246428   6.356   3.225   3.591 -0.0948 -0.2161 -0.2283
 8338TIP3    H146429   6.278   3.271   3.561  2.0407  1.6505 -3.4618
 8338TIP3    H246430   6.420   3.294   3.608  1.7525 -1.7627 -0.5275
 8339TIP3   OH246431   0.817   4.801   2.757 -0.6484 -0.4045  0.0700
 8339TIP3    H146432   0.820   4.872   2.693 -1.4945  0.1663  0.6249
 8339TIP3    H246433   0.756   4.833   2.824  0.2448 -0.9501  1.1858
 8340TIP3   OH246434   1.220   5.194   4.044 -0.1505  0.1134 -0.3771
 8340TIP3    H146435   1.199   5.172   4.135  0.2906 -0.7901 -0.4892
 8340TIP3    H246436   1.189   5.285   4.034 -0.2326  0.2104  0.6559
 8341TIP3   OH246437   5.102   5.346  10.596  0.0039 -0.0801  0.2120
 8341TIP3    H146438   5.149   5.264  10.580 -1.3368 -0.8049 -0.1231
 8341TIP3    H246439   5.155   5.412  10.552  1.8902 -0.5172  1.7220
 8342TIP3   OH246440   5.706   4.303   3.400  0.1528  0.1211  0.3161
 8342TIP3    H146441   5.684   4.248   3.324  3.0126  0.0152 -0.5627
 8342TIP3    H246442   5.634   4.289   3.461 -0.1841 -3.1511 -0.6399
 8343TIP3   OH246443   0.080   3.753   0.159 -0.3202 -0.1898  0.0698
 8343TIP3    H146444   0.025   3.831   0.148  1.0113  1.2868  2.9583
 8343TIP3    H246445   0.157   3.770   0.106 -0.6878 -0.2521 -0.4920
 8344TIP3   OH246446   5.926   1.376   4.854 -0.4760 -0.4084 -0.2618
 8344TIP3    H146447   5.998   1.313   4.863 -1.0727 -1.1897 -0.8370
 8344TIP3    H246448   5.875   1.365   4.934  0.6008  0.9179  0.6673
 8345TIP3   OH246449   5.885   5.835   0.892 -0.0020 -0.0181  0.5451
 8345TIP3    H146450   5.910   5.744   0.911  1.2696  0.1015 -0.4826
 8345TIP3    H246451   5.846   5.831   0.805 -1.3271  0.2180  1.0947
 8346TIP3   OH246452   2.600   5.853   5.257  0.5950 -0.0818 -0.1110
 8346TIP3    H146453   2.672   5.911   5.229 -0.4339  1.4209  0.2433
 8346TIP3    H246454   2.623   5.768   5.219  3.4342 -0.1218  1.3749
 8347TIP3   OH246455   5.239   4.642   2.515  0.2034  0.2563 -0.4198
 8347TIP3    H146456   5.305   4.632   2.583  0.9726 -0.2349 -1.2104
 8347TIP3    H246457   5.249   4.565   2.459  0.5468  1.2968 -1.8752
 8348TIP3   OH246458   6.013   6.298  10.231 -0.1326  0.0068 -0.7020
 8348TIP3    H146459   5.975   6.215  10.259 -1.5942  0.6487 -0.6877
 8348TIP3    H246460   5.999   6.357  10.305  2.9080 -0.2432  0.2260
 8349TIP3   OH246461   5.082   1.890  16.671  0.2721 -0.0765 -0.3153
 8349TIP3    H146462   5.068   1.963  16.610 -0.7631 -0.1040 -0.1202
 8349TIP3    H246463   5.048   1.921  16.754  0.7333 -0.4306  0.0129
 8350TIP3   OH246464   2.092   4.050  15.443  0.1842 -0.3289 -0.3124
 8350TIP3    H146465   2.060   3.964  15.414 -0.6695 -0.7342  1.6366
 8350TIP3    H246466   2.164   4.030  15.503 -1.0318  0.1729  1.4010
 8351TIP3   OH246467   6.359   3.356  14.474  0.4877  0.0453  0.1929
 8351TIP3    H146468   6.273   3.377  14.438  0.5484  0.3364  0.2151
 8351TIP3    H246469   6.340   3.303  14.551  0.4064 -2.4955 -1.4483
 8352TIP3   OH246470   1.366   1.247  15.989 -0.2108 -0.1074  0.0873
 8352TIP3    H146471   1.307   1.197  16.045  0.9803 -1.0472  0.5685
 8352TIP3    H246472   1.319   1.327  15.969 -2.3098 -1.4800 -0.8745
 8353TIP3   OH246473   5.252   3.987  10.862  0.2226  0.0818 -0.7444
 8353TIP3    H146474   5.226   3.964  10.772 -0.6059  3.0447 -1.3665
 8353TIP3    H246475   5.308   4.064  10.852 -0.1253  0.6662  1.2909
 8354TIP3   OH246476   4.110   2.362  11.359  0.5671 -0.0942  0.0071
 8354TIP3    H146477   4.020   2.392  11.374  1.6269  2.6658  1.5789
 8354TIP3    H246478   4.109   2.329  11.269 -2.1664 -0.9957  0.2530
 8355TIP3   OH246479   6.387   0.943   2.534  0.0554 -0.0940  0.3753
 8355TIP3    H146480   6.304   0.970   2.575 -0.9097 -0.2518 -1.3614
 8355TIP3    H246481   6.365   0.863   2.487  1.2167 -0.1542 -0.0857
 8356TIP3   OH246482   2.351   2.333   2.445 -0.1945  0.2044  0.6621
 8356TIP3    H146483   2.361   2.251   2.396 -0.5280  0.5882 -0.0750
 8356TIP3    H246484   2.299   2.309   2.521  0.9617 -0.5528  1.2427
 8357TIP3   OH246485   2.936   4.547  15.527  0.2667 -0.7620 -0.1390
 8357TIP3    H146486   2.868   4.513  15.470  0.9778  1.4355 -2.4836
 8357TIP3    H246487   2.889   4.591  15.598 -0.6576 -1.8128 -0.0822
 8358TIP3   OH246488   5.100   0.906   1.263  0.6770 -0.0544 -0.9222
 8358TIP3    H146489   5.139   0.827   1.225  1.3303  0.1589 -0.7204
 8358TIP3    H246490   5.166   0.974   1.248  0.9369  0.0534  0.5280
 8359TIP3   OH246491   6.663   2.623  15.665 -0.1973  0.1735  0.2636
 8359TIP3    H146492   6.741   2.675  15.646 -0.9275  1.3106  0.2770
 8359TIP3    H246493   6.592   2.687  15.671 -1.5853 -1.0195 -2.0484
 8360TIP3   OH246494   3.779   6.167  16.887  0.0229 -0.2775 -0.2711
 8360TIP3    H146495   3.780   6.190  16.794 -0.7674  3.3002  0.4694
 8360TIP3    H246496   3.686   6.159  16.909  0.1934 -0.5453  0.3653
 8361TIP3   OH246497   2.152   1.133  15.653 -0.3503 -0.3334 -0.3126
 8361TIP3    H146498   2.166   1.211  15.706 -0.3166 -0.8546  0.4584
 8361TIP3    H246499   2.197   1.063  15.701 -0.5058 -0.8553 -0.9152
 8362TIP3   OH246500   4.446   6.646  12.783 -0.4573 -0.4369 -0.4269
 8362TIP3    H146501   4.416   6.557  12.803 -0.4124 -0.5537 -0.8717
 8362TIP3    H246502   4.530   6.633  12.739 -0.7257 -0.1972 -1.0144
 8363TIP3   OH246503   5.418   5.372   0.849 -0.0339  0.6121  0.4233
 8363TIP3    H146504   5.383   5.297   0.898 -1.4781  0.3762 -0.9002
 8363TIP3    H246505   5.456   5.334   0.770  0.4404  1.1600  0.3812
 8364TIP3   OH246506   6.146   6.163  14.146 -0.5121  0.1055 -0.0849
 8364TIP3    H146507   6.088   6.138  14.217 -0.8692 -0.7206 -0.6586
 8364TIP3    H246508   6.154   6.258  14.154 -0.5568  0.0244  1.0382
 8365TIP3   OH246509   6.679   1.830   5.491  0.6555 -0.1471  0.8911
 8365TIP3    H146510   6.625   1.887   5.546  0.3589 -0.5788  1.0505
 8365TIP3    H246511   6.755   1.808   5.545 -0.1416 -1.4283  1.5403
 8366TIP3   OH246512   3.867   0.882   1.102  0.0694  0.4513 -0.6856
 8366TIP3    H146513   3.817   0.885   1.184 -0.8429 -0.4211 -1.1777
 8366TIP3    H246514   3.936   0.817   1.118  0.2056  0.6540 -0.4465
 8367TIP3   OH246515   2.462   4.519  15.011  0.1578  0.6585 -0.1921
 8367TIP3    H146516   2.436   4.535  14.920  2.2585  0.1821 -0.9413
 8367TIP3    H246517   2.520   4.593  15.033  1.2481 -0.2322  0.0416
 8368TIP3   OH246518   6.418   1.024   5.301  0.0951  0.5180 -0.0817
 8368TIP3    H146519   6.410   0.973   5.381  1.3579 -0.6882 -0.6817
 8368TIP3    H246520   6.404   1.115   5.329 -0.5642  0.0215  1.2930
 8369TIP3   OH246521   1.979   0.136   5.509  0.5463 -0.0377 -0.4375
 8369TIP3    H146522   2.029   0.068   5.555 -0.0756 -0.0029  0.2990
 8369TIP3    H246523   1.890   0.102   5.505 -0.0866  1.3317  1.2076
 8370TIP3   OH246524   1.955   0.885  12.763 -0.5945 -0.3310  0.0065
 8370TIP3    H146525   2.042   0.925  12.771  1.0361 -3.5084 -0.0989
 8370TIP3    H246526   1.926   0.873  12.854 -0.4172 -0.2508  0.0746
 8371TIP3   OH246527   2.484   4.594  15.391 -0.2240 -0.4019 -0.1729
 8371TIP3    H146528   2.439   4.528  15.337  0.7611 -0.4556 -0.9551
 8371TIP3    H246529   2.533   4.544  15.456 -1.7792 -0.3243  1.1183
 8372TIP3   OH246530   1.922   0.400   4.876  0.2198 -0.4362  0.3956
 8372TIP3    H146531   1.989   0.434   4.816  0.1136 -1.5905 -0.4043
 8372TIP3    H246532   1.918   0.465   4.946 -0.8144  1.8052 -1.6154
 8373TIP3   OH246533   2.235   5.235   3.861 -0.1726  0.3027  0.3769
 8373TIP3    H146534   2.193   5.161   3.906 -1.6888  0.4512 -0.7063
 8373TIP3    H246535   2.251   5.202   3.772 -1.8036  1.5537 -0.4269
 8374TIP3   OH246536   5.058   1.738   3.878 -0.1987  0.4110  0.1436
 8374TIP3    H146537   5.032   1.798   3.808 -1.0595 -0.9280 -0.7393
 8374TIP3    H246538   5.101   1.794   3.942 -2.4322  2.2509  0.1876
 8375TIP3   OH246539   5.176   4.756  12.791  0.7539  0.5124 -0.5290
 8375TIP3    H146540   5.087   4.723  12.778 -0.1130  2.4672  0.0355
 8375TIP3    H246541   5.191   4.813  12.715  0.9817  1.2625  0.0692
 8376TIP3   OH246542   3.084   4.944   1.390  0.3540  0.2118  0.0481
 8376TIP3    H146543   3.081   4.894   1.309 -0.4240 -1.8783  1.2967
 8376TIP3    H246544   3.099   4.879   1.458 -1.0558  1.6235  1.8048
 8377TIP3   OH246545   4.450   1.344   5.728 -0.1831 -0.5573  0.2474
 8377TIP3    H146546   4.425   1.435   5.713  0.6475 -0.1104  1.3999
 8377TIP3    H246547   4.374   1.293   5.698  0.0110  0.3813 -2.0263
 8378TIP3   OH246548   6.216   4.198   2.760  0.2203 -0.3408  0.2573
 8378TIP3    H146549   6.254   4.152   2.835  1.2306  1.3888  0.8446
 8378TIP3    H246550   6.230   4.290   2.777 -2.2496  0.3048 -0.6272
 8379TIP3   OH246551   0.686   0.177   1.249  0.2305  0.0009  0.1279
 8379TIP3    H146552   0.592   0.160   1.256 -0.0288  0.2401 -2.0542
 8379TIP3    H246553   0.693   0.272   1.243  0.5126 -0.0623 -0.6337
 8380TIP3   OH246554   2.208   6.176  15.076 -0.3407 -0.0386 -0.3305
 8380TIP3    H146555   2.234   6.190  14.985 -0.6695 -1.0821 -0.5963
 8380TIP3    H246556   2.199   6.081  15.085 -1.5029  0.1238  0.4597
 8381TIP3   OH246557   1.673   2.050   5.528  0.2203  0.2464 -0.5914
 8381TIP3    H146558   1.619   2.117   5.571 -1.3773 -0.6375 -1.1464
 8381TIP3    H246559   1.752   2.045   5.583 -1.3884 -0.2772  1.8463
 8382TIP3   OH246560   6.060   5.618  13.211 -0.1413  0.3606 -0.5699
 8382TIP3    H146561   5.967   5.643  13.208 -0.1067  0.4707 -0.7292
 8382TIP3    H246562   6.106   5.699  13.234  0.0915  0.7574 -2.3333
 8383TIP3   OH246563   2.665   2.191   5.881  0.3344  0.6390  0.1543
 8383TIP3    H146564   2.750   2.215   5.843 -0.4070 -1.7754 -3.6046
 8383TIP3    H246565   2.681   2.107   5.924 -0.0513  0.3467 -0.2641
 8384TIP3   OH246566   1.194   3.727  13.442 -0.0439  0.1844 -0.6603
 8384TIP3    H146567   1.279   3.710  13.484 -0.2162  1.6529  0.3745
 8384TIP3    H246568   1.130   3.711  13.511 -0.6297 -0.9341 -1.4422
 8385TIP3   OH246569   3.379   5.210   3.783 -0.6549  0.2650  0.3815
 8385TIP3    H146570   3.473   5.227   3.771 -0.2065 -1.9273  0.5053
 8385TIP3    H246571   3.336   5.282   3.736  1.0467  2.0789  1.4092
 8386TIP3   OH246572   3.830   6.701  14.331 -0.1906  0.0704  0.1145
 8386TIP3    H146573   3.842   6.796  14.324 -0.5847  0.0681 -0.7040
 8386TIP3    H246574   3.791   6.689  14.418  0.8511  0.5416  0.6842
 8387TIP3   OH246575   3.480   6.281   2.330 -0.1587 -0.0833  1.1036
 8387TIP3    H146576   3.563   6.239   2.352  0.0256 -0.1701  0.2698
 8387TIP3    H246577   3.435   6.218   2.274  0.2480  0.9154 -0.4027
 8388TIP3   OH246578   5.991   2.248   4.631  0.3950 -0.1263 -0.0058
 8388TIP3    H146579   6.086   2.245   4.619  0.5820  0.9713  1.0536
 8388TIP3    H246580   5.966   2.334   4.598  0.2327  0.8952  2.6161
 8389TIP3   OH246581   0.603   3.374  15.471  0.4559 -0.0238  0.0191
 8389TIP3    H146582   0.651   3.307  15.520 -2.3973 -1.3824  1.2499
 8389TIP3    H246583   0.557   3.324  15.403  0.1752  1.0500 -0.5937
 8390TIP3   OH246584   0.536   2.518   4.594 -0.0196  0.0478  0.4948
 8390TIP3    H146585   0.594   2.456   4.638 -0.9483  0.0091  1.7197
 8390TIP3    H246586   0.463   2.465   4.563 -0.6057  0.4433  1.1624
 8391TIP3   OH246587   2.800   6.045   5.169 -0.4638 -0.0753 -0.0737
 8391TIP3    H146588   2.893   6.064   5.170 -0.2652 -0.9705  0.9478
 8391TIP3    H246589   2.761   6.113   5.114  0.4816  1.7172  1.3821
 8392TIP3   OH246590   1.031   3.848  12.071  0.0181 -0.0524  0.4670
 8392TIP3    H146591   1.034   3.837  12.166  0.3853 -0.6454  0.3918
 8392TIP3    H246592   1.116   3.887  12.049  0.4352 -1.0528  0.2508
 8393TIP3   OH246593   4.951   3.437   3.234  0.4073  0.7050  0.1315
 8393TIP3    H146594   4.860   3.409   3.226  0.0214  2.1334 -0.9178
 8393TIP3    H246595   4.999   3.357   3.255 -1.0914 -0.0558  0.7927
 8394TIP3   OH246596   1.307   6.467   1.004 -0.2799 -0.1920  0.5414
 8394TIP3    H146597   1.303   6.546   0.949 -0.8698 -0.6552 -0.0898
 8394TIP3    H246598   1.319   6.395   0.943 -0.3079 -0.6612  1.0769
 8395TIP3   OH246599   5.736   0.871   6.184  0.1197 -0.9286 -0.1107
 8395TIP3    H146600   5.743   0.901   6.275 -1.3504 -0.1616 -0.2296
 8395TIP3    H246601   5.693   0.785   6.190 -3.4085  0.6661 -0.2122
 8396TIP3   OH246602   3.259   3.220   2.474  0.1267 -0.0441 -0.6317
 8396TIP3    H146603   3.313   3.198   2.550 -1.2178 -2.7004 -0.3307
 8396TIP3    H246604   3.239   3.313   2.486  0.6248 -0.1717  1.8467
 8397TIP3   OH246605   5.375   4.760  10.387 -0.2185 -0.0247  0.3918
 8397TIP3    H146606   5.283   4.741  10.407 -0.5277  0.5470 -0.4090
 8397TIP3    H246607   5.425   4.696  10.437 -1.0962 -0.8820  0.1973
 8398TIP3   OH246608   5.496   3.891  13.724  0.4967 -0.1608  0.1454
 8398TIP3    H146609   5.420   3.840  13.753 -0.4064 -1.9445 -4.3946
 8398TIP3    H246610   5.568   3.861  13.779 -1.4176 -0.7355  2.5307
 8399TIP3   OH246611   4.307   0.261   2.857  0.0061 -0.2495 -0.2123
 8399TIP3    H146612   4.272   0.348   2.836  0.2423  0.0459  0.5829
 8399TIP3    H246613   4.373   0.277   2.925 -0.8772 -1.1716  0.9150
 8400TIP3   OH246614   4.952   1.317   5.566  1.0755 -0.0204 -0.1786
 8400TIP3    H146615   5.044   1.292   5.573  0.5604 -2.1101 -0.4211
 8400TIP3    H246616   4.947   1.401   5.612  3.0072 -0.0565  0.1908
 8401TIP3   OH246617   0.077   6.412  13.887  0.5364  0.0447 -0.6935
 8401TIP3    H146618   0.042   6.323  13.886  0.0476  0.1682  1.0974
 8401TIP3    H246619  -0.001   6.468  13.891  0.8136  0.3665  2.1389
 8402TIP3   OH246620   3.255   2.076   5.569 -0.0856  0.0876  0.0905
 8402TIP3    H146621   3.323   2.025   5.614  0.4511  0.8182  0.1178
 8402TIP3    H246622   3.184   2.084   5.632  1.2736  2.4531  1.4544
 8403TIP3   OH246623   5.262   0.231   0.656  0.5635 -0.5338 -0.2256
 8403TIP3    H146624   5.343   0.233   0.605  0.8995  1.1891  0.3110
 8403TIP3    H246625   5.291   0.247   0.746 -0.4981  2.5755 -0.3079
 8404TIP3   OH246626   2.689   3.044  14.733 -0.5691  0.0511  0.0658
 8404TIP3    H146627   2.606   3.040  14.781 -1.0443  0.4621 -0.6959
 8404TIP3    H246628   2.728   2.958  14.745 -0.2611  0.4179  1.8903
 8405TIP3   OH246629   6.126   5.931  15.090  0.3215  0.2927  0.2582
 8405TIP3    H146630   6.183   5.855  15.103  1.3230  0.9627 -0.1234
 8405TIP3    H246631   6.111   5.934  14.996  1.2629  1.2424  0.1205
 8406TIP3   OH246632   2.204   2.735  15.888 -0.3614 -0.3543  0.2124
 8406TIP3    H146633   2.295   2.759  15.905 -0.4449  0.6003 -0.5788
 8406TIP3    H246634   2.163   2.736  15.975  0.1543  0.2230  0.4623
 8407TIP3   OH246635   2.897   2.846  13.033  0.1918  0.0580  0.8214
 8407TIP3    H146636   2.972   2.902  13.012 -0.0787 -0.1549 -0.8989
 8407TIP3    H246637   2.925   2.797  13.110  1.3548  0.8359  0.9349
 8408TIP3   OH246638   2.430   1.687  11.305 -0.0752 -0.3108  0.2166
 8408TIP3    H146639   2.451   1.781  11.307  0.3508 -0.4154  1.8403
 8408TIP3    H246640   2.440   1.663  11.213 -3.2733  1.8824 -0.8925
 8409TIP3   OH246641   4.027   3.742   2.308  0.1726  0.2138 -0.4639
 8409TIP3    H146642   4.099   3.723   2.247  1.3135 -2.7350  1.5732
 8409TIP3    H246643   4.059   3.814   2.362  0.8648  0.0889 -0.6996
 8410TIP3   OH246644   1.103   3.048   1.036 -0.2747  0.3233  0.2034
 8410TIP3    H146645   1.050   3.060   0.957  1.5377  1.2709 -0.9405
 8410TIP3    H246646   1.132   2.957   1.032 -1.8054 -0.2274  0.8798
 8411TIP3   OH246647   6.748   1.081  10.658  0.3901  0.3858 -0.0613
 8411TIP3    H146648   6.727   1.155  10.715  0.0978 -0.2737  0.7150
 8411TIP3    H246649   6.816   1.114  10.599  0.5097  1.1627  0.4944
 8412TIP3   OH246650   3.979   3.106  15.771  0.2663  0.8435  0.2896
 8412TIP3    H146651   3.914   3.083  15.705 -0.8967  0.7725  1.4182
 8412TIP3    H246652   3.930   3.153  15.839  1.2939  0.4018  1.3933
 8413TIP3   OH246653   0.638   5.674   1.509 -0.1720 -0.0490  0.2147
 8413TIP3    H146654   0.651   5.580   1.519 -1.7987 -0.4063 -0.6710
 8413TIP3    H246655   0.596   5.684   1.424  0.0847  1.5066  0.2250
 8414TIP3   OH246656   2.346   2.896  15.274  0.7611 -0.8755  0.0036
 8414TIP3    H146657   2.423   2.866  15.227  0.5320 -2.9984  0.8714
 8414TIP3    H246658   2.307   2.817  15.310 -0.1667  0.4222  2.0964
 8415TIP3   OH246659   0.806   6.432   1.800  0.5607  0.8298  0.0706
 8415TIP3    H146660   0.886   6.380   1.809 -0.6229 -0.9696  0.7220
 8415TIP3    H246661   0.804   6.486   1.878 -0.0261 -0.8806  1.3032
 8416TIP3   OH246662   0.830   5.348  11.904 -0.1794  0.1388 -0.2908
 8416TIP3    H146663   0.926   5.355  11.900  0.0607 -2.2339 -0.2111
 8416TIP3    H246664   0.814   5.255  11.919 -2.5168  0.5314 -0.0510
 8417TIP3   OH246665   1.968   4.876  16.542  0.3260  0.2291 -0.5327
 8417TIP3    H146666   1.997   4.813  16.476  1.0418 -0.0900  0.0841
 8417TIP3    H246667   1.916   4.824  16.603 -1.0034  0.6647 -1.2402
 8418TIP3   OH246668   1.092   0.861   2.885 -0.2847  0.3783 -0.4528
 8418TIP3    H146669   1.008   0.816   2.878  0.2464 -0.5607 -0.9797
 8418TIP3    H246670   1.156   0.791   2.894  0.6886  0.9336 -2.4597
 8419TIP3   OH246671   3.291   2.048   4.766  0.0960  0.9173 -0.1616
 8419TIP3    H146672   3.210   2.006   4.737 -0.7704  1.6203  1.1485
 8419TIP3    H246673   3.312   2.006   4.849  2.3904 -0.8739 -1.4920
 8420TIP3   OH246674   2.885   0.593   3.540 -0.0824  0.4621 -0.0408
 8420TIP3    H146675   2.894   0.688   3.551  0.5751  0.3031  0.7941
 8420TIP3    H246676   2.916   0.556   3.622 -0.9707 -0.4557 -0.1018
 8421TIP3   OH246677   6.497   1.045   1.768 -0.6422 -0.1472  0.3840
 8421TIP3    H146678   6.444   1.124   1.777 -0.5938 -0.0595 -0.0820
 8421TIP3    H246679   6.435   0.978   1.740 -0.6660 -0.2572  0.6932
 8422TIP3   OH246680   3.854   4.530  10.898  0.4325  0.3714  0.2780
 8422TIP3    H146681   3.838   4.488  10.982 -1.7868  1.5766  0.5302
 8422TIP3    H246682   3.922   4.476  10.857  1.0859 -0.6274  2.5282
 8423TIP3   OH246683   4.064   4.697   0.712 -0.1022  0.2403 -0.5151
 8423TIP3    H146684   4.017   4.630   0.663  0.4767  0.0922 -0.8870
 8423TIP3    H246685   4.009   4.716   0.788 -0.3422 -0.5442 -0.4889
 8424TIP3   OH246686   1.815   1.401  17.011  0.1970 -0.0860  0.4588
 8424TIP3    H146687   1.858   1.428  16.930 -1.8620  1.0067 -0.3480
 8424TIP3    H246688   1.840   1.468  17.075  2.6997 -1.5259  1.1136
 8425TIP3   OH246689   4.626   1.312  14.317 -0.1313  0.2949  0.2325
 8425TIP3    H146690   4.596   1.222  14.331 -0.9277  0.5246  0.0032
 8425TIP3    H246691   4.601   1.333  14.228  1.2676  0.2856 -0.1959
 8426TIP3   OH246692   2.495   5.035   1.591 -0.3268 -0.1863 -0.8020
 8426TIP3    H146693   2.587   5.014   1.572 -0.5206 -2.2032  0.2329
 8426TIP3    H246694   2.496   5.129   1.611  1.4655 -0.1044 -1.1102
 8427TIP3   OH246695   3.885   0.228  10.239 -0.5400  0.3601 -0.0441
 8427TIP3    H146696   3.961   0.239  10.181  0.2210 -0.6075  0.7319
 8427TIP3    H246697   3.875   0.313  10.281  0.2431  0.4452 -0.0093
 8428TIP3   OH246698   4.554   3.831  15.762 -0.2724  0.2430 -0.2978
 8428TIP3    H146699   4.483   3.826  15.698 -0.4442 -0.6182 -0.0511
 8428TIP3    H246700   4.596   3.916  15.745 -2.3060  1.5010  0.5623
 8429TIP3   OH246701   6.216   3.865  14.227 -0.2040 -0.0815  0.4764
 8429TIP3    H146702   6.231   3.773  14.205  3.2676  0.5304 -0.3133
 8429TIP3    H246703   6.276   3.882  14.300 -1.0948  1.4678  0.8965
 8430TIP3   OH246704   6.011   4.630  13.651 -0.0691  0.0494  0.2251
 8430TIP3    H146705   6.008   4.538  13.676 -1.3092 -0.0042 -0.0689
 8430TIP3    H246706   6.103   4.645  13.627  0.3049 -0.9077  0.9580
 8431TIP3   OH246707   0.470   1.766  15.480 -0.5434  0.5753  0.2483
 8431TIP3    H146708   0.412   1.843  15.473 -1.3330  0.0315  0.6677
 8431TIP3    H246709   0.428   1.700  15.426  0.8665  0.8423 -1.2534
 8432TIP3   OH246710   1.300   2.042   4.671  0.1111  0.2547  0.0954
 8432TIP3    H146711   1.278   2.126   4.712  0.5082  1.1003 -1.3450
 8432TIP3    H246712   1.218   2.012   4.631 -0.8894 -1.7200  3.2853
 8433TIP3   OH246713   3.413   4.478   2.750  0.1692 -0.3715 -0.5528
 8433TIP3    H146714   3.396   4.569   2.725  0.2923 -0.3385 -0.5174
 8433TIP3    H246715   3.349   4.459   2.818 -1.9769 -1.2998 -2.7073
 8434TIP3   OH246716   4.615   6.017   0.509  0.2011 -0.1131 -0.3123
 8434TIP3    H146717   4.642   5.927   0.525  1.0917  0.2253  0.1535
 8434TIP3    H246718   4.580   6.016   0.420 -0.9203 -1.1592  0.1100
 8435TIP3   OH246719   2.240   2.759  11.212  0.0587  0.1075  0.5211
 8435TIP3    H146720   2.293   2.708  11.151 -0.2427 -2.0145  1.9321
 8435TIP3    H246721   2.164   2.705  11.230 -0.0569  0.8174  2.4489
 8436TIP3   OH246722   1.247   6.004   1.841 -0.5202 -0.1370  0.4010
 8436TIP3    H146723   1.321   5.969   1.793  1.1167  2.2788  0.9953
 8436TIP3    H246724   1.170   5.973   1.793  0.9076 -1.0114 -1.4372
 8437TIP3   OH246725   6.011   5.595  11.857  0.1553 -0.0680 -0.2175
 8437TIP3    H146726   5.940   5.591  11.793 -1.7771  2.3412  1.5907
 8437TIP3    H246727   6.029   5.688  11.868  3.5609 -0.5722 -0.4374
 8438TIP3   OH246728   0.871   0.401  16.809 -0.1296 -0.5147 -0.0173
 8438TIP3    H146729   0.912   0.477  16.768 -1.3393 -0.3579 -0.9876
 8438TIP3    H246730   0.899   0.327  16.756  1.1496 -0.8063  1.0009
 8439TIP3   OH246731   4.633   5.544   0.003 -0.2062 -0.4557 -0.7015
 8439TIP3    H146732   4.619   5.518  -0.088  0.0276 -2.9940 -0.0958
 8439TIP3    H246733   4.719   5.587   0.003  0.2147 -1.2617 -1.5618
 8440TIP3   OH246734   1.323   3.535  14.181  0.0800 -0.2493  0.4573
 8440TIP3    H146735   1.356   3.590  14.252 -2.2133  1.9491 -0.0892
 8440TIP3    H246736   1.402   3.505  14.136  1.4744  3.0172  0.4889
 8441TIP3   OH246737   3.573   6.453   3.519 -0.0974  0.4458 -0.4363
 8441TIP3    H146738   3.547   6.493   3.436 -1.5622 -1.1687 -0.7931
 8441TIP3    H246739   3.537   6.511   3.586  0.5646  1.4274 -0.9039
 8442TIP3   OH246740   2.855   2.799  14.764  0.3701  0.6470  0.0495
 8442TIP3    H146741   2.813   2.796  14.678 -2.4455  0.9333  1.3006
 8442TIP3    H246742   2.937   2.844  14.749  0.3477 -0.0067 -2.6131
 8443TIP3   OH246743   3.063   0.724   4.420  0.2945 -0.6402 -0.0731
 8443TIP3    H146744   2.975   0.742   4.389 -0.2557 -0.6358  1.4186
 8443TIP3    H246745   3.064   0.755   4.510  1.4470 -1.7617  0.3354
 8444TIP3   OH246746   0.466   1.274  16.498 -0.3770  0.5553  0.4184
 8444TIP3    H146747   0.459   1.285  16.403  1.7920  0.4289  0.1902
 8444TIP3    H246748   0.461   1.180  16.511 -0.1332  0.5313  0.3548
 8445TIP3   OH246749   0.548   6.667   0.259  0.0640 -0.2830  0.2658
 8445TIP3    H146750   0.641   6.666   0.234 -0.5071 -1.5797 -2.1082
 8445TIP3    H246751   0.529   6.576   0.282 -0.1046  0.4002  3.2613
 8446TIP3   OH246752   0.372   6.091  13.094  0.6447  0.3974  0.1078
 8446TIP3    H146753   0.323   6.166  13.060  1.8801  1.7575  1.1723
 8446TIP3    H246754   0.314   6.052  13.160  0.5309  1.2789  0.5396
 8447TIP3   OH246755   4.024   4.738   4.411 -0.1312  0.1137 -0.1778
 8447TIP3    H146756   3.994   4.690   4.489 -0.3519 -2.1763 -1.5871
 8447TIP3    H246757   3.944   4.774   4.373 -0.1284  0.4733  0.1444
 8448TIP3   OH246758   5.337   5.456  12.550  0.4914  0.0892  0.2938
 8448TIP3    H146759   5.253   5.491  12.520  1.1531  0.3106 -1.4854
 8448TIP3    H246760   5.329   5.361  12.539  1.0228  0.2160 -1.6117
 8449TIP3   OH246761   0.787   6.209  14.847 -0.8927 -0.1860  0.2180
 8449TIP3    H146762   0.835   6.241  14.771 -2.2116  0.2493 -0.4422
 8449TIP3    H246763   0.823   6.122  14.863 -1.0221 -0.5201 -1.2625
 8450TIP3   OH246764   6.622   0.685   2.294 -0.1186 -0.2019  0.2004
 8450TIP3    H146765   6.713   0.656   2.295  0.0637  0.2226 -1.1844
 8450TIP3    H246766   6.625   0.770   2.249 -1.4097 -1.0462 -1.5940
 8451TIP3   OH246767   0.202   4.648  12.582  0.4464 -0.5111 -0.0889
 8451TIP3    H146768   0.146   4.575  12.556  0.0962 -0.0678 -0.6059
 8451TIP3    H246769   0.271   4.650  12.515  0.0717  0.0504 -0.4678
 8452TIP3   OH246770   5.104   0.027  15.411 -0.4892 -0.0023 -0.2491
 8452TIP3    H146771   5.106  -0.067  15.428  0.5485  0.2973  1.4630
 8452TIP3    H246772   5.020   0.056  15.447 -0.0581 -0.0195  0.7951
 8453TIP3   OH246773   6.536   1.489   1.294 -0.4415 -0.0179  0.1202
 8453TIP3    H146774   6.538   1.393   1.301 -0.5704 -0.2256 -1.9114
 8453TIP3    H246775   6.508   1.519   1.380 -2.3836 -1.9299  0.2651
 8454TIP3   OH246776   4.224   1.891  15.046 -0.1403  0.0164 -0.1080
 8454TIP3    H146777   4.198   1.979  15.018  2.5534  1.7839  2.4159
 8454TIP3    H246778   4.303   1.873  14.995 -0.5037 -0.8539 -0.3794
 8455TIP3   OH246779   5.632   4.775   5.957  0.2602  0.4868 -0.4226
 8455TIP3    H146780   5.572   4.711   5.996  0.7962 -0.4018 -1.0155
 8455TIP3    H246781   5.624   4.852   6.013  0.1916 -0.3654  0.7910
 8456TIP3   OH246782   3.962   5.171  11.929  0.0901 -0.2925 -0.1735
 8456TIP3    H146783   4.032   5.107  11.922  1.4862  0.3257  4.7184
 8456TIP3    H246784   3.894   5.127  11.980 -1.3087  0.4914 -1.2716
 8457TIP3   OH246785   5.875   2.350   0.538  0.5199 -0.2432  0.0301
 8457TIP3    H146786   5.954   2.303   0.565 -0.1228 -1.0702  0.5176
 8457TIP3    H246787   5.879   2.351   0.442  1.0252 -0.4517  0.0501
 8458TIP3   OH246788   3.933   0.300   3.658  0.0510 -0.0733 -0.1931
 8458TIP3    H146789   3.858   0.352   3.628 -0.2121  0.0872  0.7124
 8458TIP3    H246790   4.010   0.350   3.630 -0.1956  0.6915  0.4404
 8459TIP3   OH246791   1.477   5.265  11.722 -0.1159  0.4110  0.2782
 8459TIP3    H146792   1.384   5.286  11.732 -0.1845  0.8288 -1.0293
 8459TIP3    H246793   1.492   5.266  11.628  0.0371 -4.6073 -0.0579
 8460TIP3   OH246794   4.241   1.623   5.297  0.5620  0.1544  0.3252
 8460TIP3    H146795   4.241   1.680   5.220  1.0041 -0.2000  0.0617
 8460TIP3    H246796   4.330   1.588   5.302  0.8289  0.9398  1.5770
 8461TIP3   OH246797   4.477   2.280   3.693 -0.4532  0.8656  0.1342
 8461TIP3    H146798   4.411   2.262   3.626 -0.7815  1.5142  0.2702
 8461TIP3    H246799   4.519   2.196   3.710  1.1460  1.0642 -2.4433
 8462TIP3   OH246800   4.996   6.703  13.832  0.2189 -0.2997  0.0233
 8462TIP3    H146801   5.019   6.794  13.854 -0.9781  0.3396 -1.2162
 8462TIP3    H246802   5.053   6.682  13.758 -1.0511  0.2729 -1.1649
 8463TIP3   OH246803   3.730   6.027   0.518 -0.0631  0.0376  0.0117
 8463TIP3    H146804   3.743   5.999   0.427  0.4509 -1.9892  0.6703
 8463TIP3    H246805   3.638   6.006   0.537  0.1085 -0.4721  0.2733
 8464TIP3   OH246806   1.706   3.011  16.080  0.2838 -0.1517  0.1004
 8464TIP3    H146807   1.747   3.050  16.002  1.5446 -0.6105  0.5044
 8464TIP3    H246808   1.656   2.937  16.047  1.2528 -0.6756 -0.2439
 8465TIP3   OH246809   1.548   6.731   6.307  0.1987  0.4584 -0.0423
 8465TIP3    H146810   1.511   6.723   6.394 -0.1454  2.9681  0.1207
 8465TIP3    H246811   1.494   6.673   6.252 -0.1743 -0.4247  1.2297
 8466TIP3   OH246812   0.317   4.582   5.381 -0.1373 -0.4812 -0.3457
 8466TIP3    H146813   0.398   4.633   5.380  0.1992 -1.0160 -0.6499
 8466TIP3    H246814   0.298   4.564   5.289 -0.8979  0.0913 -0.3158
 8467TIP3   OH246815   2.811   6.576   1.938  0.0464  0.2393 -0.9372
 8467TIP3    H146816   2.763   6.494   1.926  1.7434 -1.1952  1.3844
 8467TIP3    H246817   2.898   6.560   1.901  0.5141  0.8729 -0.1513
 8468TIP3   OH246818   2.922   3.098   2.781 -0.4748 -0.3647 -0.2076
 8468TIP3    H146819   2.836   3.056   2.785 -0.0770 -1.2701 -0.7296
 8468TIP3    H246820   2.938   3.130   2.869 -1.6063  0.3510 -0.2446
 8469TIP3   OH246821   5.080   1.372   5.927  0.1355  0.3555  0.1322
 8469TIP3    H146822   5.093   1.466   5.937  0.9633  0.4278 -1.2769
 8469TIP3    H246823   5.144   1.333   5.986  0.5205  0.6973 -0.0466
 8470TIP3   OH246824   3.159   2.375   1.089 -0.1389  0.3303 -0.3478
 8470TIP3    H146825   3.175   2.372   0.994 -1.6677 -0.0390 -0.6242
 8470TIP3    H246826   3.065   2.391   1.097 -0.2442 -0.7841  1.1007
 8471TIP3   OH246827   0.299   3.283  12.634  0.2633  0.2554 -0.4368
 8471TIP3    H146828   0.294   3.349  12.564 -0.4012 -1.2708 -1.8802
 8471TIP3    H246829   0.379   3.234  12.615 -1.0595 -1.6054 -1.5224
 8472TIP3   OH246830   4.939   5.998   5.052  0.4858  0.5173 -0.2124
 8472TIP3    H146831   4.892   5.996   4.969 -0.0659  0.7198  0.0878
 8472TIP3    H246832   4.873   5.970   5.117  1.0115 -0.0064  0.1072
 8473TIP3   OH246833   6.654   2.519  14.279  0.1186 -0.1066 -0.3497
 8473TIP3    H146834   6.719   2.515  14.350 -1.2664 -0.1812  0.9557
 8473TIP3    H246835   6.612   2.433  14.281  0.5924 -0.3996 -1.8189
 8474TIP3   OH246836   0.792   1.804   1.752  0.6238  0.6343 -0.3492
 8474TIP3    H146837   0.707   1.766   1.774  0.2566  1.5871 -0.0725
 8474TIP3    H246838   0.772   1.870   1.686  1.0008  1.6111  0.4987
 8475TIP3   OH246839   4.836   3.140  16.398 -0.6320  0.0039  0.2072
 8475TIP3    H146840   4.790   3.219  16.428 -0.4661  0.0954  0.2202
 8475TIP3    H246841   4.908   3.129  16.459  0.2336  0.6883 -0.6496
 8476TIP3   OH246842   4.092   4.223   0.104  0.0278 -0.7240  0.0201
 8476TIP3    H146843   4.081   4.174   0.022 -1.3866 -0.3809 -0.0301
 8476TIP3    H246844   4.186   4.228   0.117  0.2715 -1.0002 -1.4622
 8477TIP3   OH246845   3.391   5.099  16.133  0.8103 -0.2142 -0.3240
 8477TIP3    H146846   3.396   5.141  16.219  1.6946 -1.8431  0.4732
 8477TIP3    H246847   3.368   5.170  16.073 -0.5179  0.8465  1.3368
 8478TIP3   OH246848   3.072   0.570  16.395  0.2062  0.3699  0.3800
 8478TIP3    H146849   3.117   0.590  16.477  0.3623  0.1854  0.3426
 8478TIP3    H246850   3.012   0.499  16.417  0.9078 -0.3170  0.1460
 8479TIP3   OH246851   0.610   3.454  13.680  0.4795 -0.6403  1.1254
 8479TIP3    H146852   0.524   3.488  13.657 -0.2036  0.9294  5.1197
 8479TIP3    H246853   0.671   3.521  13.650  0.0009 -0.3075  0.8815
 8480TIP3   OH246854   0.644   2.124  15.607  0.2201 -0.4351 -0.5606
 8480TIP3    H146855   0.657   2.178  15.529 -0.8648 -0.8082 -1.0262
 8480TIP3    H246856   0.671   2.036  15.581 -2.3409 -1.0760 -1.3319
 8481TIP3   OH246857   5.600   4.600   4.185  0.0522 -0.2776 -0.4457
 8481TIP3    H146858   5.604   4.560   4.098 -1.2492 -1.5395  0.0479
 8481TIP3    H246859   5.525   4.659   4.182 -0.1264 -0.4856 -0.1076
 8482TIP3   OH246860   2.836   6.261   0.988 -0.0811 -0.4030 -0.2388
 8482TIP3    H146861   2.899   6.191   0.971 -0.4477 -0.8087  0.0385
 8482TIP3    H246862   2.826   6.262   1.083  0.5014  0.5522 -0.1733
 8483TIP3   OH246863   0.222   1.037  16.304 -0.4057  0.0718  1.0238
 8483TIP3    H146864   0.270   1.023  16.386  0.7699 -1.7915  0.0952
 8483TIP3    H246865   0.134   1.060  16.331  0.6093  2.2379  2.8162
 8484TIP3   OH246866   5.678   3.186  14.172 -0.1916 -0.3878  0.1718
 8484TIP3    H146867   5.602   3.190  14.114 -0.6309 -0.4214  0.7395
 8484TIP3    H246868   5.750   3.222  14.119 -0.9800  1.3677  0.2308
 8485TIP3   OH246869   0.991   0.634   4.394  0.2948  0.1713  0.1737
 8485TIP3    H146870   0.923   0.600   4.336  0.5278  0.0101 -0.0060
 8485TIP3    H246871   1.065   0.575   4.382  1.2159  1.5397 -1.2359
 8486TIP3   OH246872   3.288   5.157  14.245 -0.2520 -0.0124  0.1318
 8486TIP3    H146873   3.318   5.153  14.154 -0.7854  1.0974 -0.1082
 8486TIP3    H246874   3.211   5.214  14.242 -0.4725 -0.2313  1.2365
 8487TIP3   OH246875   2.579   0.647   2.852  0.0735 -0.3292  0.6781
 8487TIP3    H146876   2.661   0.688   2.824 -0.5148  0.0453 -0.5299
 8487TIP3    H246877   2.566   0.679   2.942  1.6000 -0.9593  1.1595
 8488TIP3   OH246878   0.387   5.346  10.257 -0.0371 -0.5106  0.7561
 8488TIP3    H146879   0.355   5.430  10.225 -1.8973 -1.7106 -0.7469
 8488TIP3    H246880   0.461   5.368  10.313 -0.3545  2.0965  0.2564
 8489TIP3   OH246881   6.322   5.210  12.248 -0.5076 -0.0887  0.6614
 8489TIP3    H146882   6.335   5.126  12.292 -0.6186  0.0813  1.0246
 8489TIP3    H246883   6.263   5.258  12.306 -0.4846  0.2206  0.4301
 8490TIP3   OH246884   2.438   2.659   5.998  0.3039  0.2659 -0.7695
 8490TIP3    H146885   2.429   2.732   5.937 -0.9994  0.4086 -0.4300
 8490TIP3    H246886   2.428   2.698   6.084  3.2353  0.2541 -0.3163
 8491TIP3   OH246887   4.311   4.969  14.326 -0.5926  0.0871 -0.2351
 8491TIP3    H146888   4.344   5.019  14.400 -0.9213  1.8677 -1.2255
 8491TIP3    H246889   4.233   4.925  14.360 -1.2452  1.5669  0.3011
 8492TIP3   OH246890   0.335   0.339   0.007  0.8599  0.0520 -0.2002
 8492TIP3    H146891   0.417   0.342  -0.041  1.6940 -2.1398  0.9603
 8492TIP3    H246892   0.307   0.248   0.003 -0.7408  0.4503  0.7128
 8493TIP3   OH246893   4.376   4.053   1.309 -0.3333 -0.2713 -0.5852
 8493TIP3    H146894   4.347   4.123   1.368 -3.2567 -0.4042 -1.7021
 8493TIP3    H246895   4.467   4.077   1.287 -0.3568  1.6974  1.1237
 8494TIP3   OH246896   3.733   2.986   4.952  0.6815 -0.1627 -0.0484
 8494TIP3    H146897   3.686   3.048   5.008  1.6120 -0.9711  1.6894
 8494TIP3    H246898   3.825   3.009   4.961  0.9478 -1.0744 -0.2844
 8495TIP3   OH246899   2.236   4.952   0.428  0.0862  0.1081 -0.3427
 8495TIP3    H146900   2.264   4.861   0.429  0.8247  0.2495  2.5331
 8495TIP3    H246901   2.292   4.994   0.364  1.3992 -1.0271  0.0167
 8496TIP3   OH246902   4.204   1.183  12.627  0.7561 -0.5651  0.3371
 8496TIP3    H146903   4.211   1.241  12.703 -1.0313  1.4963 -0.9623
 8496TIP3    H246904   4.289   1.190  12.584  0.5397  1.2421  0.1444
 8497TIP3   OH246905   1.942   1.140  11.628  0.0327 -0.4918 -0.6381
 8497TIP3    H146906   1.953   1.109  11.718  0.3762 -0.7769 -0.7772
 8497TIP3    H246907   1.903   1.227  11.637  1.8899  0.3183 -0.1518
 8498TIP3   OH246908   0.721   0.872   0.627 -0.0039 -0.0823 -0.0306
 8498TIP3    H146909   0.789   0.897   0.688  0.2378 -1.0749  0.1236
 8498TIP3    H246910   0.759   0.887   0.540  0.8052 -1.5518  0.0359
 8499TIP3   OH246911   4.129   5.354   1.930  0.3550 -0.0486 -0.0110
 8499TIP3    H146912   4.183   5.277   1.916  1.7170  1.0801 -1.1978
 8499TIP3    H246913   4.190   5.421   1.964 -0.9967  0.2239  2.0946
 8500TIP3   OH246914   6.144   0.237   5.934 -0.2795  0.5983  0.0148
 8500TIP3    H146915   6.195   0.169   5.890 -0.7628  1.1529 -1.4644
 8500TIP3    H246916   6.077   0.188   5.982  0.9209 -0.0754  1.0744
 8501TIP3   OH246917   3.598   1.332   0.761 -0.1143 -0.0317  0.1519
 8501TIP3    H146918   3.654   1.404   0.731 -1.0309  1.1985  1.3443
 8501TIP3    H246919   3.634   1.255   0.715  2.6402  0.6544  0.9419
 8502TIP3   OH246920   4.227   1.573   4.228  0.2268 -0.0534 -0.1135
 8502TIP3    H146921   4.270   1.514   4.290  0.6961  0.1439 -0.2473
 8502TIP3    H246922   4.280   1.567   4.148 -0.2368 -0.1265 -0.4224
 8503TIP3   OH246923   5.448   1.844   1.743  0.3067  0.2234 -0.4454
 8503TIP3    H146924   5.507   1.851   1.818  0.5792 -1.0889 -0.5082
 8503TIP3    H246925   5.505   1.852   1.667  0.5482 -1.6746 -0.5137
 8504TIP3   OH246926   5.784   4.248   3.692  0.2192 -0.0042 -0.1102
 8504TIP3    H146927   5.802   4.314   3.759 -3.2791  0.2716  0.7420
 8504TIP3    H246928   5.792   4.295   3.609  0.2083  0.8574  0.3628
 8505TIP3   OH246929   3.986   2.771  11.118  0.7335  0.1744  0.4172
 8505TIP3    H146930   4.046   2.840  11.090 -0.4883  1.4554  0.8388
 8505TIP3    H246931   3.939   2.746  11.039  3.1254 -2.3150 -0.3931
 8506TIP3   OH246932   6.745   1.218   1.799  0.6431 -0.2973  0.3528
 8506TIP3    H146933   6.711   1.296   1.844  1.1589 -0.0260  0.2884
 8506TIP3    H246934   6.668   1.174   1.764  0.4382  1.0788 -1.0525
 8507TIP3   OH246935   3.351   2.657  16.054 -0.6301 -0.3163  0.0653
 8507TIP3    H146936   3.279   2.658  15.991  0.5130 -3.1349 -1.4845
 8507TIP3    H246937   3.423   2.699  16.009 -0.6525  0.5189  0.7746
 8508TIP3   OH246938   4.246   5.885   4.661  0.2142  0.2561  0.3109
 8508TIP3    H146939   4.300   5.953   4.622 -0.3826  1.1191  0.9543
 8508TIP3    H246940   4.301   5.847   4.730  0.7270 -0.2585 -0.3754
 8509TIP3   OH246941   6.575   0.898   3.522 -0.2062  0.2059  0.1418
 8509TIP3    H146942   6.534   0.840   3.586  2.9154 -1.3099  0.9472
 8509TIP3    H246943   6.664   0.910   3.554  0.6911  1.5776 -2.5588
 8510TIP3   OH246944   0.714   1.102   5.430  0.3578  0.0271 -0.0634
 8510TIP3    H146945   0.677   1.014   5.438 -0.4111  0.2336 -1.0962
 8510TIP3    H246946   0.714   1.120   5.336  1.2058  0.8449  0.0701
 8511TIP3   OH246947   1.200   4.624  13.625  0.1094 -0.2716  0.4622
 8511TIP3    H146948   1.272   4.674  13.584 -1.2926  0.6591 -1.0034
 8511TIP3    H246949   1.184   4.552  13.564 -0.1761 -0.5107  0.8197
 8512TIP3   OH246950   5.284   3.598   4.258  0.0507 -0.0324 -0.0027
 8512TIP3    H146951   5.286   3.690   4.284  1.4371  0.0116 -0.2069
 8512TIP3    H246952   5.287   3.600   4.162  0.0321 -0.3027 -0.0106
 8513TIP3   OH246953   4.898   5.088  15.006  0.2473  0.7232  0.4151
 8513TIP3    H146954   4.826   5.049  14.956  1.5467 -0.2739 -0.7267
 8513TIP3    H246955   4.973   5.086  14.947  1.7848 -0.2517  2.2922
 8514TIP3   OH246956   4.796   1.643   6.531  0.5479 -0.2208 -0.3437
 8514TIP3    H146957   4.877   1.594   6.546 -0.9776 -2.6161  0.7322
 8514TIP3    H246958   4.755   1.599   6.457 -0.5722 -0.1940  0.2367
 8515TIP3   OH246959   6.355   6.063  17.025 -0.4675 -0.6908 -0.0791
 8515TIP3    H146960   6.386   6.069  16.934  0.4591  0.2254  0.2718
 8515TIP3    H246961   6.427   6.020  17.071  0.6196  1.9506  0.8614
 8516TIP3   OH246962   0.582   4.668   1.117 -0.3293  0.3273  0.4204
 8516TIP3    H146963   0.547   4.579   1.107  0.6611 -0.1279  0.9077
 8516TIP3    H246964   0.504   4.724   1.118 -0.9991 -0.5798  0.6560
 8517TIP3   OH246965   6.149   2.706  11.665 -0.6489 -0.3138  0.7906
 8517TIP3    H146966   6.169   2.680  11.575  0.9734  0.2362  0.9522
 8517TIP3    H246967   6.100   2.788  11.657  0.3924  0.2808  0.4144
 8518TIP3   OH246968   4.860   6.079  15.716 -0.0071  0.1044 -0.1050
 8518TIP3    H146969   4.816   6.151  15.670  1.3526  0.7898 -0.3870
 8518TIP3    H246970   4.948   6.112  15.733  0.7082 -1.5647 -0.3808
 8519TIP3   OH246971   2.337   6.236   4.721 -0.5610  0.2606 -0.1190
 8519TIP3    H146972   2.407   6.185   4.683  0.4449  1.1308  0.5025
 8519TIP3    H246973   2.263   6.175   4.728  0.1559 -0.6928 -0.6903
 8520TIP3   OH246974   3.578   6.185  11.833 -0.1972 -0.0606  0.1000
 8520TIP3    H146975   3.664   6.226  11.822 -0.3459  0.1475 -0.2848
 8520TIP3    H246976   3.543   6.225  11.912 -0.5022  0.8419 -0.4853
 8521TIP3   OH246977   1.914   1.857  11.145 -0.4679 -1.4342 -0.3512
 8521TIP3    H146978   1.863   1.885  11.221  0.9702  0.8210 -0.1113
 8521TIP3    H246979   1.905   1.929  11.083  1.1848 -1.6562 -0.8890
 8522TIP3   OH246980   0.868   4.680  13.761  0.2018  0.2884 -0.4854
 8522TIP3    H146981   0.910   4.693  13.676  2.2188  1.6201  0.6309
 8522TIP3    H246982   0.935   4.706  13.824 -1.6664  0.5429  1.4748
 8523TIP3   OH246983   0.950   6.747  14.032  0.4870  0.3575 -0.4112
 8523TIP3    H146984   1.030   6.800  14.033  0.0221  1.1084 -1.3394
 8523TIP3    H246985   0.963   6.685  13.961 -0.3182  1.4239 -1.5293
 8524TIP3   OH246986   2.822   5.365   4.057  0.1280 -0.3744  0.0971
 8524TIP3    H146987   2.728   5.346   4.049  0.0607  0.5801 -2.1630
 8524TIP3    H246988   2.843   5.343   4.148 -1.7799 -2.7374  0.0762
 8525TIP3   OH246989   5.254   3.211  13.215  0.0259  0.2704  0.7690
 8525TIP3    H146990   5.317   3.281  13.229 -2.1053  2.6288 -0.5871
 8525TIP3    H246991   5.226   3.222  13.124 -1.0109 -1.8259  0.7782
 8526TIP3   OH246992   3.539   1.417  10.986 -0.4185 -0.0585  0.0119
 8526TIP3    H146993   3.617   1.440  11.036 -1.7572  0.6273  1.9095
 8526TIP3    H246994   3.500   1.501  10.962  0.2257 -0.3716 -2.3373
 8527TIP3   OH246995   0.359   1.803   0.679 -0.1568  0.3614 -0.5624
 8527TIP3    H146996   0.351   1.722   0.629  0.8710  0.0577 -0.2623
 8527TIP3    H246997   0.269   1.830   0.695 -0.6149 -1.8967  1.2111
 8528TIP3   OH246998   0.028   3.524  10.984 -0.2682 -0.3325 -0.6501
 8528TIP3    H146999   0.045   3.607  10.940 -1.2159  0.1010 -0.2363
 8528TIP3    H247000   0.090   3.462  10.945  0.6036  0.6196 -0.7948
 8529TIP3   OH247001   0.790   5.284   0.609 -0.6084  0.0845 -0.2035
 8529TIP3    H147002   0.696   5.294   0.626 -0.7900 -0.7450 -0.6867
 8529TIP3    H247003   0.795   5.241   0.524  0.2411  1.1309 -0.7026
 8530TIP3   OH247004   3.054   5.642   1.310 -0.1068  0.1375 -0.3474
 8530TIP3    H147005   3.076   5.595   1.390 -0.2328  2.0805  0.8808
 8530TIP3    H247006   3.136   5.648   1.262  0.1349 -0.3643 -0.0094
 8531TIP3   OH247007   0.223   2.959   4.910 -0.7394  0.5537  0.4281
 8531TIP3    H147008   0.302   3.013   4.903 -1.4049  1.5383  0.4234
 8531TIP3    H247009   0.242   2.900   4.984  1.3306 -1.5409 -1.5854
 8532TIP3   OH247010   2.828   3.768   0.962  0.1378 -0.5241 -0.3120
 8532TIP3    H147011   2.883   3.773   1.040 -0.1722 -0.9286 -0.0667
 8532TIP3    H247012   2.770   3.845   0.968  0.2889 -0.4129 -0.2793
 8533TIP3   OH247013   0.561   4.260  15.445  0.3949 -0.2892  0.4470
 8533TIP3    H147014   0.625   4.193  15.470 -1.1912 -2.0976 -0.0587
 8533TIP3    H247015   0.564   4.262  15.349  1.5066  1.5479  0.4688
 8534TIP3   OH247016   2.499   6.339  15.861  0.2550 -0.3853 -0.2333
 8534TIP3    H147017   2.517   6.363  15.952  0.7048 -0.1193 -0.3868
 8534TIP3    H247018   2.411   6.301  15.863  0.0986 -0.0115  0.2485
 8535TIP3   OH247019   0.645   2.376  15.064 -0.0409 -0.4326 -0.1920
 8535TIP3    H147020   0.589   2.323  15.007  0.2939 -0.8175 -0.1669
 8535TIP3    H247021   0.686   2.440  15.005 -1.5426  0.7605 -0.0095
 8536TIP3   OH247022   3.118   6.298   4.407  0.4376  0.5584 -0.0108
 8536TIP3    H147023   3.150   6.273   4.494  0.6457  1.0142  0.0440
 8536TIP3    H247024   3.038   6.247   4.395  0.5400  0.3104  0.3457
 8537TIP3   OH247025   2.527   6.129   1.974 -0.1867  0.1590 -0.1611
 8537TIP3    H147026   2.501   6.067   2.041  0.0139 -0.0536 -0.2781
 8537TIP3    H247027   2.518   6.081   1.892  1.9655 -0.4266 -0.1120
 8538TIP3   OH247028   1.077   0.849  13.006 -0.4044 -0.5144 -0.6202
 8538TIP3    H147029   1.056   0.874  13.095 -2.5174 -3.8162 -0.0209
 8538TIP3    H247030   1.018   0.902  12.951 -0.6449 -0.0335  0.0969
 8539TIP3   OH247031   4.504   1.946   4.124 -0.7118 -0.4139  0.4002
 8539TIP3    H147032   4.502   1.867   4.178 -0.3020 -0.9691 -0.3920
 8539TIP3    H247033   4.486   2.017   4.186  0.9979 -0.9047  1.5310
 8540TIP3   OH247034   2.410   0.192   0.881 -0.1122 -0.4316  0.2450
 8540TIP3    H147035   2.415   0.286   0.860  0.0456 -1.1017 -3.3405
 8540TIP3    H247036   2.488   0.175   0.933  0.2375  1.2828  0.3599
 8541TIP3   OH247037   0.469   4.364  12.128 -0.4120  0.3510  0.6619
 8541TIP3    H147038   0.551   4.350  12.082  0.0894  1.8666  1.0487
 8541TIP3    H247039   0.479   4.317  12.211 -0.1386  0.0867  0.4781
 8542TIP3   OH247040   4.904   4.121  11.561  0.0513  0.1376 -0.2510
 8542TIP3    H147041   4.941   4.098  11.647 -0.5872 -0.7068 -0.1827
 8542TIP3    H247042   4.889   4.215  11.566  1.5375  0.3907 -0.0406
 8543TIP3   OH247043   4.741   0.098  15.027  0.0805  0.3741  0.1274
 8543TIP3    H147044   4.757   0.041  14.951 -0.7262  0.6950 -0.2923
 8543TIP3    H247045   4.786   0.179  15.005 -0.5090  0.6153 -0.2043
 8544TIP3   OH247046   6.649   4.606  14.000  0.3710 -0.3430  0.1203
 8544TIP3    H147047   6.696   4.563  14.072 -2.4667 -0.3843  2.0952
 8544TIP3    H247048   6.610   4.534  13.950  0.9642 -0.2462 -0.4984
 8545TIP3   OH247049   2.023   2.802   2.488 -0.0161 -0.1816  0.2502
 8545TIP3    H147050   1.974   2.720   2.488  0.8632 -0.7174  0.6219
 8545TIP3    H247051   2.105   2.782   2.534  0.6963  0.6110 -0.6301
 8546TIP3   OH247052   2.948   5.766  14.948 -0.4568  0.2918 -0.4016
 8546TIP3    H147053   2.960   5.849  14.994 -1.6683  0.4444 -0.3128
 8546TIP3    H247054   2.981   5.700  15.009  2.0115  0.7835 -1.1146
 8547TIP3   OH247055   6.822   5.025   0.905 -0.0639 -0.4150  0.1875
 8547TIP3    H147056   6.867   5.085   0.965 -0.1054  1.4718 -1.5284
 8547TIP3    H247057   6.871   5.032   0.823 -2.3883  0.4197 -1.2601
 8548TIP3   OH247058   2.089   2.538  10.932 -0.6862 -0.0485  0.1731
 8548TIP3    H147059   2.116   2.626  10.906  0.1283 -0.1527  0.6366
 8548TIP3    H247060   2.041   2.504  10.857 -1.8999  1.1667  0.3550
 8549TIP3   OH247061   1.152   3.939  10.344 -0.1457 -0.2690  0.0277
 8549TIP3    H147062   1.232   3.886  10.346  0.2014  0.2433 -0.1630
 8549TIP3    H247063   1.183   4.030  10.346 -0.7400 -0.0682  0.5484
 8550TIP3   OH247064   4.378   2.927   5.787 -0.0572  0.6515 -0.7098
 8550TIP3    H147065   4.321   2.856   5.759 -2.6756  1.9298  1.0096
 8550TIP3    H247066   4.320   3.003   5.797  2.3559  2.6872 -1.0652
 8551TIP3   OH247067   2.593   2.599   1.024 -0.0273 -0.3941  1.1390
 8551TIP3    H147068   2.621   2.606   0.932 -1.8646  1.7246  0.6344
 8551TIP3    H247069   2.615   2.509   1.049  0.6074 -1.0231 -1.3517
 8552TIP3   OH247070   5.849   2.282   1.471 -0.2575  0.8810 -0.6579
 8552TIP3    H147071   5.936   2.321   1.465  0.5714 -0.5736  1.0442
 8552TIP3    H247072   5.849   2.213   1.403 -0.0916  0.8969 -0.6740
 8553TIP3   OH247073   0.794   2.584  14.841 -0.2722  0.1143  0.3547
 8553TIP3    H147074   0.713   2.613  14.798  0.0640 -0.0224 -0.3914
 8553TIP3    H247075   0.821   2.507  14.791  1.3940  1.3143 -0.6967
 8554TIP3   OH247076   6.534   6.762   0.403 -0.6599 -0.5402  0.5469
 8554TIP3    H147077   6.518   6.854   0.385  0.5429 -0.3502  0.4012
 8554TIP3    H247078   6.499   6.749   0.491  0.9366  0.5691  1.4095
 8555TIP3   OH247079   4.182   5.298   1.606  0.2168  0.0235  0.7772
 8555TIP3    H147080   4.259   5.328   1.655 -0.0521  0.3849  0.9961
 8555TIP3    H247081   4.141   5.234   1.664  0.8852 -0.9030  0.2344
 8556TIP3   OH247082   1.435   3.343  13.037  0.5759  0.0502 -0.4392
 8556TIP3    H147083   1.370   3.332  13.106  0.6938  1.0620 -0.1497
 8556TIP3    H247084   1.384   3.344  12.956  0.2542  0.4996 -0.2392
 8557TIP3   OH247085   2.946   1.224   0.715  0.3580  0.1274  0.3204
 8557TIP3    H147086   3.018   1.284   0.692  0.6002  0.1318  1.0508
 8557TIP3    H247087   2.969   1.142   0.672  0.9161  0.0694  0.7116
 8558TIP3   OH247088   5.007   6.049   1.628 -0.2055  0.6235  0.0718
 8558TIP3    H147089   4.969   6.095   1.553  1.6970  1.5655 -0.3627
 8558TIP3    H247090   5.030   6.118   1.690  1.2441  0.1680  0.0908
 8559TIP3   OH247091   5.974   3.396   5.811  0.6604 -0.1988  0.1731
 8559TIP3    H147092   6.025   3.469   5.847 -1.4376  2.1637 -1.3229
 8559TIP3    H247093   5.884   3.414   5.838  0.2208 -3.0853  0.9611
 8560TIP3   OH247094   5.167   6.244   2.695 -0.2175  0.3807  0.1762
 8560TIP3    H147095   5.114   6.268   2.619 -1.7889 -0.5305  0.9355
 8560TIP3    H247096   5.167   6.148   2.695  1.5280  0.3542  0.1655
 8561TIP3   OH247097   0.117   5.131  12.056 -0.0555  0.2443 -0.2887
 8561TIP3    H147098   0.050   5.173  12.110  0.4366  0.0980  0.4561
 8561TIP3    H247099   0.077   5.124  11.969 -2.2243 -2.6566  0.7894
 8562TIP3   OH247100   4.416   5.934  15.313  0.2514 -0.2244  0.6679
 8562TIP3    H147101   4.431   5.942  15.407  0.2442 -1.1139  0.7488
 8562TIP3    H247102   4.462   5.854  15.287 -1.3073 -1.0361  0.2618
 8563TIP3   OH247103   0.153   3.389  13.379  0.1138  0.4163  0.6565
 8563TIP3    H147104   0.213   3.316  13.392 -0.6756 -0.1377  1.3679
 8563TIP3    H247105   0.147   3.430  13.466  1.0818  1.7699  0.1133
 8564TIP3   OH247106   4.752   3.286  16.851  0.4208  0.4877  0.4957
 8564TIP3    H147107   4.789   3.228  16.918 -0.5050  0.8374  1.3510
 8564TIP3    H247108   4.820   3.351  16.835  2.1317 -1.7115 -1.7011
 8565TIP3   OH247109   1.430   0.081  13.274 -0.6412 -0.1021  0.6882
 8565TIP3    H147110   1.445  -0.012  13.255 -1.3632  0.0167 -0.5405
 8565TIP3    H247111   1.491   0.101  13.345  1.3403 -0.8916 -0.7141
 8566TIP3   OH247112   0.261   6.185   3.820  0.2996  0.3218 -0.4317
 8566TIP3    H147113   0.342   6.177   3.870 -0.5435  1.3442  1.2326
 8566TIP3    H247114   0.196   6.137   3.872 -0.4427  0.7044 -0.9779
 8567TIP3   OH247115   2.828   6.115   2.023 -1.2317  0.9418 -0.0417
 8567TIP3    H147116   2.788   6.086   2.104 -0.2647  0.0186  0.1181
 8567TIP3    H247117   2.793   6.203   2.009 -2.8646  0.3845  0.3684
 8568TIP3   OH247118   6.030   2.117   1.856 -0.0804 -0.1008 -0.5662
 8568TIP3    H147119   5.938   2.144   1.862 -0.5407 -1.8442  0.7008
 8568TIP3    H247120   6.077   2.199   1.845 -1.6627  0.9782  0.2244
 8569TIP3   OH247121   3.474   4.683  16.252  0.5757  0.0941  0.1838
 8569TIP3    H147122   3.397   4.739  16.242  1.0784  1.1614  1.8479
 8569TIP3    H247123   3.491   4.650  16.164 -1.4408  0.2655 -0.3262
 8570TIP3   OH247124   4.696   3.174  14.675 -0.0593  1.0045  0.5212
 8570TIP3    H147125   4.783   3.172  14.713  0.4996  0.9333 -0.7124
 8570TIP3    H247126   4.686   3.089  14.632  0.7502  2.2473 -2.4233
 8571TIP3   OH247127   2.076   0.139   4.685 -0.4840 -0.0445  0.1883
 8571TIP3    H147128   2.124   0.124   4.603 -0.0464  0.8015  0.2804
 8571TIP3    H247129   2.100   0.228   4.711 -0.1594 -0.5159  1.5576
 8572TIP3   OH247130   0.954   1.214  14.727  0.2406 -0.4488 -0.5076
 8572TIP3    H147131   0.965   1.295  14.677 -0.3931  1.3516  2.0388
 8572TIP3    H247132   1.041   1.195  14.761 -0.0508  0.8307  1.1202
 8573TIP3   OH247133   6.740   1.580  14.473 -0.3885  0.2096  0.0900
 8573TIP3    H147134   6.791   1.502  14.450 -0.2881 -0.2110  1.6406
 8573TIP3    H247135   6.805   1.646  14.494 -0.4790  0.3972 -0.2188
 8574TIP3   OH247136   2.371   5.949   1.808  0.1278  0.7249 -0.2064
 8574TIP3    H147137   2.283   5.947   1.845 -0.1585 -1.6269 -0.8515
 8574TIP3    H247138   2.358   5.971   1.716  0.3244  1.2486 -0.1153
 8575TIP3   OH247139   6.302   4.667  15.424  0.3787  0.2893  0.1843
 8575TIP3    H147140   6.336   4.747  15.383  0.7332  0.1779  0.2597
 8575TIP3    H247141   6.228   4.698  15.477  0.0607  0.4635 -0.3490
 8576TIP3   OH247142   1.225   0.692   1.650 -0.4655  0.1830 -0.4970
 8576TIP3    H147143   1.204   0.602   1.629  0.6263 -0.3556  0.5569
 8576TIP3    H247144   1.194   0.743   1.575 -1.5639 -0.9952 -0.8689
 8577TIP3   OH247145   5.884   4.636  11.882 -0.2713 -0.0003 -0.0059
 8577TIP3    H147146   5.943   4.704  11.915  1.3227 -1.1314 -0.3671
 8577TIP3    H247147   5.809   4.639  11.940 -0.9002  2.9179 -0.7763
 8578TIP3   OH247148   1.336   0.549  15.729 -0.0253 -0.1717 -0.0342
 8578TIP3    H147149   1.269   0.560  15.661 -0.1086  1.0553  0.2165
 8578TIP3    H247150   1.323   0.460  15.761 -4.2606  1.1641  2.7613
 8579TIP3   OH247151   3.289   6.236   3.377 -0.0734 -0.0121  0.0685
 8579TIP3    H147152   3.305   6.268   3.466  0.7470 -0.7395  0.1949
 8579TIP3    H247153   3.376   6.222   3.341 -0.3837  0.8629 -1.0808
 8580TIP3   OH247154   0.100   2.631   1.263  0.4978 -0.1204 -0.3658
 8580TIP3    H147155   0.059   2.709   1.299  0.0747 -0.2223 -0.6236
 8580TIP3    H247156   0.033   2.592   1.206  1.5655  0.6975 -2.2486
 8581TIP3   OH247157   3.363   2.733  10.704  0.0250 -0.7378  0.8203
 8581TIP3    H147158   3.390   2.702  10.618  1.2956 -1.1108  1.3262
 8581TIP3    H247159   3.301   2.804  10.687  0.5533 -0.5591 -0.3966
 8582TIP3   OH247160   5.382   1.515   5.697 -1.0362  0.2302 -0.1003
 8582TIP3    H147161   5.457   1.465   5.732 -1.6979 -0.7971 -0.1013
 8582TIP3    H247162   5.419   1.599   5.672  0.5682 -0.9628 -2.0533
 8583TIP3   OH247163   0.421   5.062   6.057  0.2586  0.2516 -0.5675
 8583TIP3    H147164   0.335   5.091   6.030  0.7354  1.3208 -0.9760
 8583TIP3    H247165   0.420   4.967   6.045 -1.4169  0.0154  1.0246
 8584TIP3   OH247166   0.161   3.263   0.552 -0.1726 -0.1371 -0.0059
 8584TIP3    H147167   0.183   3.176   0.517 -1.7449 -0.7042  0.3540
 8584TIP3    H247168   0.070   3.256   0.580 -0.9997  2.1708 -1.7146
 8585TIP3   OH247169   0.140   2.893   4.657  0.2482 -0.0011 -0.4434
 8585TIP3    H147170   0.165   2.886   4.749  0.4219 -1.7072 -0.5824
 8585TIP3    H247171   0.175   2.814   4.617 -1.2970 -0.1377 -1.6264
 8586TIP3   OH247172   1.069   4.268   5.422 -0.1387  0.2776 -0.1357
 8586TIP3    H147173   1.069   4.247   5.515  0.0137 -0.5643 -0.3096
 8586TIP3    H247174   1.027   4.192   5.381  1.5086 -0.2423 -0.9227
 8587TIP3   OH247175   6.192   0.702   5.755  0.2555  0.0657 -0.8947
 8587TIP3    H147176   6.175   0.779   5.809 -2.0972 -0.3397 -0.9544
 8587TIP3    H247177   6.203   0.631   5.818 -0.9632 -0.1335 -0.8913
 8588TIP3   OH247178   5.838   1.990  10.821 -0.5453 -0.1076  0.2793
 8588TIP3    H147179   5.933   1.982  10.826 -0.5389 -0.4604 -0.3216
 8588TIP3    H247180   5.820   2.016  10.730 -0.9946  0.4237  0.5093
 8589TIP3   OH247181   1.683   2.268   2.067 -0.6094 -0.3166 -0.4478
 8589TIP3    H147182   1.744   2.338   2.086 -2.5828  1.1519  0.8807
 8589TIP3    H247183   1.724   2.218   1.997  1.5521  1.2416 -0.3750
 8590TIP3   OH247184   0.943   3.798  13.163  0.0500  0.0009  0.5003
 8590TIP3    H147185   0.986   3.712  13.166 -1.3425 -0.8576 -1.8602
 8590TIP3    H247186   1.013   3.858  13.136  0.2677 -1.0457 -1.4360
 8591TIP3   OH247187   3.781   5.904   2.479 -0.5095 -0.0581  0.4642
 8591TIP3    H147188   3.725   5.866   2.411 -0.2172 -1.4732  0.9748
 8591TIP3    H247189   3.804   5.990   2.446  0.7196 -1.1972 -1.8871
 8592TIP3   OH247190   3.443   6.406   1.689  0.8879 -0.0160  0.0888
 8592TIP3    H147191   3.396   6.339   1.739  0.6036  0.3999  0.3897
 8592TIP3    H247192   3.457   6.366   1.603  1.9621 -0.9932  0.6805
 8593TIP3   OH247193   6.357   1.119   2.335  0.3500 -0.4170  0.1877
 8593TIP3    H147194   6.348   1.058   2.409 -0.9697 -1.5883 -0.8709
 8593TIP3    H247195   6.276   1.107   2.285  0.7895  1.0527 -0.9353
 8594TIP3   OH247196   2.542   0.118   2.507 -0.1570 -0.6060  0.0653
 8594TIP3    H147197   2.572   0.096   2.418  1.6871 -2.7525  1.1157
 8594TIP3    H247198   2.548   0.214   2.511 -0.8049 -0.4020 -2.2563
 8595TIP3   OH247199   4.514   3.879   2.813 -0.1380  0.6600  0.0567
 8595TIP3    H147200   4.460   3.835   2.879 -0.3843 -0.0514 -0.6004
 8595TIP3    H247201   4.561   3.808   2.770  0.7976  1.2097  0.1363
 8596TIP3   OH247202   2.413   4.188  15.562 -0.2642 -0.5171 -0.0228
 8596TIP3    H147203   2.344   4.123  15.545  0.5497 -1.4946  0.3131
 8596TIP3    H247204   2.491   4.152  15.519  0.1497  0.3566 -0.0244
 8597TIP3   OH247205   4.963   3.075  16.669  0.2857  0.0203 -0.2816
 8597TIP3    H147206   5.006   3.003  16.716  0.4873 -0.0008 -0.5007
 8597TIP3    H247207   4.881   3.088  16.717 -0.2321 -1.0326 -0.8416
 8598TIP3   OH247208   2.271   1.317  15.282  0.2716 -0.0046  0.1160
 8598TIP3    H147209   2.275   1.376  15.207 -0.2943 -0.8109 -0.5702
 8598TIP3    H247210   2.288   1.373  15.358 -1.7564  1.3581 -0.3630
 8599TIP3   OH247211   1.354   3.693   3.063  0.3706 -0.2834 -0.5606
 8599TIP3    H147212   1.400   3.677   3.145 -0.0726 -1.6785 -0.5576
 8599TIP3    H247213   1.261   3.697   3.088  0.4034  1.9391 -0.6420
 8600TIP3   OH247214   1.435   2.377  15.600 -0.4364 -0.0071  0.3974
 8600TIP3    H147215   1.485   2.332  15.532 -0.7244 -0.4261  0.4547
 8600TIP3    H247216   1.351   2.397  15.559 -0.2818  0.5647  0.3471
 8601TIP3   OH247217   3.985   5.936   5.425  0.6808  0.5317  0.0633
 8601TIP3    H147218   3.949   5.958   5.339  0.4129 -0.7074 -0.1630
 8601TIP3    H247219   4.068   5.983   5.429  0.8708  0.3194 -1.0319
 8602TIP3   OH247220   3.771   1.131  14.783 -0.2608 -0.3191 -0.1659
 8602TIP3    H147221   3.773   1.221  14.750 -1.5418 -0.2740 -0.1687
 8602TIP3    H247222   3.688   1.096  14.751  0.9748 -2.0830 -1.6439
 8603TIP3   OH247223   0.041   5.520   3.759  0.9161  0.2675 -0.0194
 8603TIP3    H147224   0.066   5.430   3.780  1.4023  0.0585 -1.4351
 8603TIP3    H247225   0.015   5.518   3.667 -1.4514  1.1000  0.5324
 8604TIP3   OH247226   0.677   4.873   0.594 -0.1058  0.3869 -0.1588
 8604TIP3    H147227   0.629   4.953   0.614  0.4117  1.0875 -1.5689
 8604TIP3    H247228   0.681   4.826   0.677 -0.7956  1.6133  0.6004
 8605TIP3   OH247229   5.105   2.939  13.108  0.2500 -0.0697 -0.3729
 8605TIP3    H147230   5.196   2.959  13.131 -0.1181  1.6587 -0.2423
 8605TIP3    H247231   5.107   2.921  13.015  0.6991  0.2643 -0.4322
 8606TIP3   OH247232   4.259   0.980  16.413 -0.2391  0.1179  0.3350
 8606TIP3    H147233   4.330   1.011  16.357 -0.7764  1.9250  0.6066
 8606TIP3    H247234   4.221   0.906  16.364  0.3667  0.5941 -0.8927
 8607TIP3   OH247235   5.265   0.616  15.768  0.0912  0.0312  0.7952
 8607TIP3    H147236   5.238   0.532  15.805  2.1363 -0.3066  1.6305
 8607TIP3    H247237   5.240   0.681  15.834 -0.8937  0.0415  0.4363
 8608TIP3   OH247238   4.069   2.494   2.949  0.1782  0.2258 -0.4670
 8608TIP3    H147239   3.989   2.489   3.001 -0.7695  0.9084 -1.8112
 8608TIP3    H247240   4.059   2.426   2.883  0.5743  0.5132 -0.8278
 8609TIP3   OH247241   2.422   2.893   3.463 -0.1560  0.2188 -0.2058
 8609TIP3    H147242   2.329   2.904   3.485  0.0175  1.0546  0.1036
 8609TIP3    H247243   2.443   2.969   3.410 -0.2465 -1.1314 -2.3190
 8610TIP3   OH247244   0.338   3.497  12.462  0.3683 -0.2441 -0.0203
 8610TIP3    H147245   0.433   3.507  12.468  0.3383  0.9574 -1.1966
 8610TIP3    H247246   0.303   3.555  12.529  0.4448 -0.5330  0.2748
 8611TIP3   OH247247   0.479   1.915  16.733  0.0193  0.7363  0.1706
 8611TIP3    H147248   0.431   1.992  16.704 -0.4243  1.2890  2.2492
 8611TIP3    H247249   0.514   1.939  16.819  2.4767 -0.3105 -0.4255
 8612TIP3   OH247250   2.950   0.628   5.999 -0.0367 -0.2391  0.0550
 8612TIP3    H147251   2.869   0.676   5.980  0.3446 -0.0983 -1.2897
 8612TIP3    H247252   3.011   0.695   6.031  0.6807  0.3395 -2.3659
 8613TIP3   OH247253   6.564   5.939   1.249 -0.3521 -0.1362 -0.3992
 8613TIP3    H147254   6.484   5.902   1.285 -0.2764  1.7287  1.9274
 8613TIP3    H247255   6.535   6.016   1.200 -0.1599 -0.8594 -1.6865
 8614TIP3   OH247256   2.623   6.669  12.132  0.1275 -0.0999  0.1888
 8614TIP3    H147257   2.578   6.644  12.212  1.7771 -0.8206  0.9534
 8614TIP3    H247258   2.698   6.609  12.127 -0.1048 -0.2867 -2.0727
 8615TIP3   OH247259   3.084   1.742   3.090  0.2075  0.0824  0.2993
 8615TIP3    H147260   3.080   1.832   3.123 -0.2735 -0.6847  2.4876
 8615TIP3    H247261   2.993   1.712   3.091  0.2627 -0.2204 -1.1604
 8616TIP3   OH247262   3.333   3.662  13.035 -0.5130 -0.4706 -0.2893
 8616TIP3    H147263   3.377   3.578  13.025 -0.5880 -0.5088 -0.3006
 8616TIP3    H247264   3.400   3.727  13.014 -0.5816 -0.5415 -0.7374
 8617TIP3   OH247265   3.695   0.062   6.184 -0.2627 -0.2491 -0.3975
 8617TIP3    H147266   3.602   0.046   6.197 -0.5331 -0.2251 -2.0831
 8617TIP3    H247267   3.731  -0.025   6.164  0.3368 -0.4744  1.5261
 8618TIP3   OH247268   2.443   4.179   4.367 -0.2310  0.1066 -0.1358
 8618TIP3    H147269   2.349   4.159   4.360 -0.0276 -1.2476  0.7266
 8618TIP3    H247270   2.447   4.247   4.435 -0.8084  2.4343 -2.2521
 8619TIP3   OH247271   4.189   5.898   1.948  0.5092 -0.3143 -0.3601
 8619TIP3    H147272   4.162   5.965   2.011 -0.2245  0.8610 -1.8852
 8619TIP3    H247273   4.128   5.826   1.963  0.4424 -0.1158  0.3753
 8620TIP3   OH247274   4.912   0.576  13.278  0.4275 -0.1112 -0.1550
 8620TIP3    H147275   4.929   0.546  13.189 -0.3235  2.2439 -1.1930
 8620TIP3    H247276   4.945   0.666  13.279 -1.2055  0.5212  1.3562
 8621TIP3   OH247277   5.207   2.729   2.764 -0.0563  0.0396 -0.0789
 8621TIP3    H147278   5.250   2.760   2.684  0.4115 -2.6388 -0.9828
 8621TIP3    H247279   5.121   2.698   2.734  0.1662 -1.0960  0.4072
 8622TIP3   OH247280   4.935   6.733  16.945  0.2630  0.2014 -0.0984
 8622TIP3    H147281   4.929   6.751  16.852 -1.4480 -0.8877 -0.2451
 8622TIP3    H247282   4.879   6.657  16.958  0.7379  0.1236  1.7721
 8623TIP3   OH247283   3.991   5.659   4.091  0.2149  0.0774 -0.0349
 8623TIP3    H147284   3.974   5.729   4.029  1.5049 -0.1423 -0.6661
 8623TIP3    H247285   4.064   5.691   4.144 -3.3972  2.1350  4.3409
 8624TIP3   OH247286   2.285   4.004  13.326 -0.1680  0.4059  0.5557
 8624TIP3    H147287   2.314   3.914  13.312 -2.6961 -0.4194  0.3117
 8624TIP3    H247288   2.336   4.033  13.402 -0.3900 -1.7601  1.6062
 8625TIP3   OH247289   0.294   3.455   5.318  0.1360  0.2644  0.3052
 8625TIP3    H147290   0.252   3.424   5.237 -0.0549  0.4646  0.3247
 8625TIP3    H247291   0.220   3.471   5.377  0.2254  0.8157  0.2728
 8626TIP3   OH247292   5.620   6.115  11.906 -0.2534  0.0658  0.1277
 8626TIP3    H147293   5.549   6.093  11.846 -0.6615  1.0648  0.2334
 8626TIP3    H247294   5.589   6.192  11.954  0.5640  0.0206  0.7606
 8627TIP3   OH247295   2.684   5.028  13.735 -0.2141 -0.8808  0.1089
 8627TIP3    H147296   2.600   5.006  13.776 -0.5204 -0.5141 -0.3076
 8627TIP3    H247297   2.660   5.070  13.652  0.3179  1.7116  1.1760
 8628TIP3   OH247298   0.439   1.890  13.453  0.4563 -0.4147  0.1786
 8628TIP3    H147299   0.408   1.800  13.445 -1.6168  0.2663 -0.1405
 8628TIP3    H247300   0.440   1.907  13.547  1.6756 -0.9966  0.2940
 8629TIP3   OH247301   2.439   5.900  13.618  0.6071 -0.0249  0.3872
 8629TIP3    H147302   2.521   5.892  13.571 -0.2255  0.4972 -1.2161
 8629TIP3    H247303   2.442   5.987  13.658 -0.8740  1.9136 -3.2660
 8630TIP3   OH247304   0.825   2.316  11.381 -0.2883 -0.1721  0.4286
 8630TIP3    H147305   0.892   2.364  11.431 -2.3412  3.5810 -0.0350
 8630TIP3    H247306   0.874   2.272  11.312  1.8710  1.1394  1.0116
 8631TIP3   OH247307   4.007   2.074   5.467  0.3209 -0.3945 -0.0437
 8631TIP3    H147308   3.996   2.089   5.561  0.3317  0.6026 -0.1888
 8631TIP3    H247309   3.999   2.161   5.428  1.9164 -0.5717 -0.8147
 8632TIP3   OH247310   6.778   4.162  14.762  0.5986  0.0801  0.5802
 8632TIP3    H147311   6.767   4.252  14.793  0.3914  0.4783 -0.6252
 8632TIP3    H247312   6.695   4.140  14.720 -0.3022 -1.5807  2.9904
 8633TIP3   OH247313   6.189   5.865   4.793 -0.7106  0.3859 -0.6443
 8633TIP3    H147314   6.204   5.809   4.716  1.9004 -0.9442  0.6997
 8633TIP3    H247315   6.195   5.805   4.867  0.4863  2.1710  0.7872
 8634TIP3   OH247316   2.710   5.430  14.757  0.3287  0.3167 -0.0987
 8634TIP3    H147317   2.699   5.343  14.795 -1.2768 -0.0749 -1.3609
 8634TIP3    H247318   2.729   5.414  14.665 -0.2214  1.2934 -0.4009
 8635TIP3   OH247319   6.114   1.700   2.962  0.1326 -0.5038  0.2083
 8635TIP3    H147320   6.092   1.615   2.924 -1.0643  0.0060 -0.2878
 8635TIP3    H247321   6.200   1.687   3.001 -0.4095 -2.1913  0.9238
 8636TIP3   OH247322   3.068   2.548  15.000 -0.0135  0.2098 -0.6122
 8636TIP3    H147323   3.026   2.465  15.020  0.0187 -0.2899 -2.4418
 8636TIP3    H247324   3.033   2.610  15.064 -1.8019 -0.6967 -0.6840
 8637TIP3   OH247325   3.417   2.845   2.893  0.4750 -0.1696 -0.3502
 8637TIP3    H147326   3.337   2.874   2.849 -0.4588  0.2049  1.4903
 8637TIP3    H247327   3.479   2.829   2.822 -0.2971  2.3082 -1.7141
 8638TIP3   OH247328   5.624   0.027   0.731 -0.0411 -0.1300 -0.2904
 8638TIP3    H147329   5.602   0.103   0.677  1.0389  0.0288 -0.5212
 8638TIP3    H247330   5.682   0.061   0.799  2.0481 -1.0384 -1.5298
 8639TIP3   OH247331   4.106   3.801   2.951 -0.1888  0.0634 -0.1741
 8639TIP3    H147332   4.183   3.794   3.007 -0.6207 -0.7677  0.3413
 8639TIP3    H247333   4.062   3.880   2.980  0.7343  0.8470 -0.8324
 8640TIP3   OH247334   3.729   2.191   6.069 -0.0685  0.0464 -0.1084
 8640TIP3    H147335   3.682   2.272   6.053 -0.1227  0.2787  1.1034
 8640TIP3    H247336   3.660   2.126   6.082 -0.0656  0.2453  0.9811
 8641TIP3   OH247337   6.199   3.309  15.724 -0.2136  0.0414 -0.1114
 8641TIP3    H147338   6.175   3.224  15.759  0.0523 -0.1167 -0.3080
 8641TIP3    H247339   6.234   3.357  15.799 -1.8128  0.5477  0.3457
 8642TIP3   OH247340   2.499   1.750  16.139 -0.0939  0.1263  0.0120
 8642TIP3    H147341   2.544   1.689  16.080 -1.7338 -0.5094 -0.6278
 8642TIP3    H247342   2.569   1.809  16.169  1.0730 -0.4791 -1.3467
 8643TIP3   OH247343   1.396   6.522  16.722  0.2851  0.0638  0.1184
 8643TIP3    H147344   1.399   6.465  16.799 -0.3928  0.2990  0.3318
 8643TIP3    H247345   1.388   6.610  16.758 -0.2637  0.1574 -0.2195
 8644TIP3   OH247346   4.279   1.003   6.491 -0.6476  0.1564 -0.2478
 8644TIP3    H147347   4.316   0.982   6.577  0.1733 -0.2267 -0.6870
 8644TIP3    H247348   4.351   0.993   6.430 -1.3543 -0.1022 -1.0680
 8645TIP3   OH247349   4.063   1.605  11.148 -0.4435 -0.5988  0.7605
 8645TIP3    H147350   3.986   1.661  11.141 -0.8032 -0.9773  1.5356
 8645TIP3    H247351   4.111   1.619  11.066  0.0482  1.6415  1.3712
 8646TIP3   OH247352   4.571   2.478  11.778  0.3683 -0.9734 -0.1145
 8646TIP3    H147353   4.495   2.465  11.834  0.3600 -1.6751 -0.2810
 8646TIP3    H247354   4.635   2.415  11.809  1.7881  1.1552  1.5487
 8647TIP3   OH247355   6.360   0.137   0.931 -0.0508 -0.0749 -0.6696
 8647TIP3    H147356   6.320   0.179   0.855 -0.7033  2.0044  0.7168
 8647TIP3    H247357   6.291   0.139   0.998  1.0491 -0.2727  0.5079
 8648TIP3   OH247358   4.150   0.903  14.903  0.6742  0.3050  0.7872
 8648TIP3    H147359   4.086   0.907  14.832  1.0233  0.7837  0.4900
 8648TIP3    H247360   4.233   0.883  14.859  1.0396  1.3751  0.9571
 8649TIP3   OH247361   1.958   1.158  14.285  0.3417 -0.2153  0.0055
 8649TIP3    H147362   1.985   1.234  14.336 -0.3522  0.1906 -0.2150
 8649TIP3    H247363   1.942   1.090  14.350 -0.4889  0.2834  0.3408
 8650TIP3   OH247364   3.027   6.355  12.257  0.3311 -0.2763 -0.1076
 8650TIP3    H147365   3.051   6.267  12.284  1.0389 -0.2203 -0.5210
 8650TIP3    H247366   3.099   6.410  12.287  0.6007 -0.0581 -1.1041
 8651TIP3   OH247367   2.844   0.108   0.650 -0.1532  0.5963  0.0601
 8651TIP3    H147368   2.937   0.122   0.630  0.0581 -1.0568 -0.2438
 8651TIP3    H247369   2.831   0.014   0.640 -1.2393  0.3728  2.6933
 8652TIP3   OH247370   6.631   3.033   4.734  0.2369  0.5361  0.9246
 8652TIP3    H147371   6.646   2.939   4.724 -0.2731  0.4767  0.6990
 8652TIP3    H247372   6.592   3.061   4.651  1.2332  1.1322  0.6333
 8653TIP3   OH247373   1.371   0.154   5.688 -0.1129 -0.2434  0.4296
 8653TIP3    H147374   1.308   0.147   5.616  0.8085  0.2315 -0.4452
 8653TIP3    H247375   1.397   0.246   5.687  1.0006 -0.5524  0.4327
 8654TIP3   OH247376   0.417   2.330   2.997 -0.0220  0.6144 -0.9088
 8654TIP3    H147377   0.348   2.363   2.940 -1.0854  1.6076  0.8743
 8654TIP3    H247378   0.497   2.370   2.962 -0.6160  1.0680 -1.7887
 8655TIP3   OH247379   1.898   3.469  14.039 -0.7930  0.0205 -0.3415
 8655TIP3    H147380   1.839   3.408  13.995 -0.8659 -0.6893  0.7081
 8655TIP3    H247381   1.926   3.423  14.118  1.5810  0.1072 -1.0355
 8656TIP3   OH247382   2.309   2.980  11.981  0.2681  0.0803 -0.6010
 8656TIP3    H147383   2.223   2.944  12.001  0.4015 -0.4006 -0.8787
 8656TIP3    H247384   2.294   3.037  11.906 -0.2571  1.9840  0.8495
 8657TIP3   OH247385   0.029   1.752  13.499  0.0629  0.8437 -0.0218
 8657TIP3    H147386   0.114   1.742  13.457 -0.3169  0.9867 -0.8556
 8657TIP3    H247387  -0.023   1.679  13.466 -0.5917  1.5869 -0.7233
 8658TIP3   OH247388   5.103   5.690  12.761 -0.0282  0.2720  0.7738
 8658TIP3    H147389   5.094   5.630  12.687 -0.7110  0.5378  0.6278
 8658TIP3    H247390   5.067   5.642  12.835 -0.1201  0.3128  0.7567
 8659TIP3   OH247391   1.987   5.155  16.645  0.0743  0.2538  0.0934
 8659TIP3    H147392   1.998   5.065  16.613 -2.2114 -0.0233 -0.0694
 8659TIP3    H247393   1.945   5.145  16.731  1.4269  1.1408  0.8818
 8660TIP3   OH247394   4.462   6.801   1.765 -0.1530 -0.4388  0.0644
 8660TIP3    H147395   4.442   6.711   1.737  2.6865 -0.5724 -2.0051
 8660TIP3    H247396   4.550   6.796   1.802 -0.2687  1.3735  0.6748
 8661TIP3   OH247397   5.658   0.421   2.843 -0.6286 -0.0833 -0.9346
 8661TIP3    H147398   5.743   0.401   2.804  0.6938 -1.7716  2.4012
 8661TIP3    H247399   5.623   0.336   2.870 -2.8104  0.7020 -1.0921
 8662TIP3   OH247400   3.980   3.374   0.990 -0.3437 -0.0059  0.1554
 8662TIP3    H147401   4.075   3.361   0.985 -0.5913 -2.2731  0.1104
 8662TIP3    H247402   3.968   3.469   0.986  1.8654  0.2954 -0.7058
 8663TIP3   OH247403   4.324   3.059  12.250  0.6833 -0.1050  0.0235
 8663TIP3    H147404   4.345   3.026  12.162  2.2292  0.5368  0.1164
 8663TIP3    H247405   4.407   3.056  12.297  1.1492  4.2109 -0.0868
 8664TIP3   OH247406   3.407   1.505  11.270 -0.2137  0.5834 -0.1858
 8664TIP3    H147407   3.388   1.412  11.280  0.1440  0.4480 -0.7198
 8664TIP3    H247408   3.337   1.549  11.317 -0.0983  0.0332  0.5093
 8665TIP3   OH247409   5.477   5.642  14.472 -0.2161  0.3189  0.3092
 8665TIP3    H147410   5.479   5.721  14.527  0.2236  0.1558  0.5330
 8665TIP3    H247411   5.535   5.580  14.517  0.6966  0.4223 -0.6769
 8666TIP3   OH247412   0.690   6.444  15.581  0.0445  0.2074 -0.0768
 8666TIP3    H147413   0.711   6.516  15.641 -0.0459  0.8859 -0.8315
 8666TIP3    H247414   0.596   6.431  15.592  0.2472 -0.5949  0.8962
 8667TIP3   OH247415   2.059   0.331   3.441  0.0184 -0.1762  0.0907
 8667TIP3    H147416   2.148   0.349   3.411  0.7971 -1.7784  1.3131
 8667TIP3    H247417   2.014   0.296   3.364  0.1753  1.3826 -0.7487
 8668TIP3   OH247418   6.764   4.921  14.924 -0.1622  0.3338  0.4100
 8668TIP3    H147419   6.725   4.968  14.997 -0.4428 -1.0129  1.1656
 8668TIP3    H247420   6.818   4.853  14.965  2.2675  1.5232 -0.6142
 8669TIP3   OH247421   5.610   3.717   4.933 -0.1675 -0.2828  0.6231
 8669TIP3    H147422   5.532   3.676   4.972 -0.5097 -0.4550 -0.2213
 8669TIP3    H247423   5.683   3.676   4.980 -0.5717 -0.2446  1.3095
 8670TIP3   OH247424   2.711   5.581   2.075 -0.1725 -0.8553  0.1529
 8670TIP3    H147425   2.635   5.599   2.018 -0.3878 -1.0035  0.3923
 8670TIP3    H247426   2.753   5.505   2.034 -0.4667 -1.1146  0.3250
 8671TIP3   OH247427   1.111   4.978   3.811  0.1080  0.4580 -0.8661
 8671TIP3    H147428   1.174   5.029   3.861  1.8393 -0.9873 -1.4731
 8671TIP3    H247429   1.115   4.890   3.849  0.2221 -0.2388 -2.4106
 8672TIP3   OH247430   4.977   3.983  14.790  0.0195 -0.0030 -0.0400
 8672TIP3    H147431   5.039   4.052  14.815  0.2033 -0.5786  1.1963
 8672TIP3    H247432   5.017   3.903  14.824  0.3825 -0.9168 -2.4242
 8673TIP3   OH247433   3.320   0.263   4.020 -0.3218 -0.7620  0.2069
 8673TIP3    H147434   3.366   0.332   4.069 -1.6179 -0.8596  1.6408
 8673TIP3    H247435   3.227   0.279   4.038 -0.8976 -0.6481 -2.5022
 8674TIP3   OH247436   2.950   2.409   2.077  0.2692 -0.2821 -0.0714
 8674TIP3    H147437   2.939   2.346   2.148  1.2085  0.3930  0.7002
 8674TIP3    H247438   2.927   2.361   1.998  1.7201 -1.8615  0.4069
 8675TIP3   OH247439   2.009   0.955   0.046 -0.2858 -0.1498  0.0529
 8675TIP3    H147440   2.014   0.896   0.120 -0.0414 -0.6131 -0.3286
 8675TIP3    H247441   2.041   0.904  -0.028 -0.5829  0.2852 -0.3850
 8676TIP3   OH247442   3.986   2.776   5.726 -0.4944  0.4802  0.2789
 8676TIP3    H147443   4.015   2.731   5.805 -0.8955  2.0770  1.3867
 8676TIP3    H247444   3.948   2.707   5.672  0.8126 -0.8353  0.9559
 8677TIP3   OH247445   5.063   6.580  15.469  0.0060 -0.3542 -0.2416
 8677TIP3    H147446   5.019   6.513  15.522 -1.1729  0.5443 -0.0719
 8677TIP3    H247447   5.061   6.546  15.380  0.4811 -1.0804  0.0099
 8678TIP3   OH247448   6.330   4.961   3.120  0.0259 -0.0759  0.0269
 8678TIP3    H147449   6.305   4.893   3.183  0.0014  0.1405  0.2488
 8678TIP3    H247450   6.356   4.912   3.042 -2.5821 -0.2919 -0.7908
 8679TIP3   OH247451   4.731   1.343  13.571 -0.0843 -0.2845 -0.0604
 8679TIP3    H147452   4.819   1.343  13.611 -0.4647 -0.3644  0.7957
 8679TIP3    H247453   4.716   1.434  13.545 -0.2923  0.0036  1.0339
 8680TIP3   OH247454   1.034   4.976  12.826 -0.5666 -0.1075  0.1530
 8680TIP3    H147455   1.090   4.907  12.860 -1.6663 -0.6264  0.9928
 8680TIP3    H247456   0.946   4.938  12.828 -1.3926  1.7273  1.8318
 8681TIP3   OH247457   3.550   3.193   1.005  0.1404 -0.0422 -0.4385
 8681TIP3    H147458   3.592   3.241   0.934 -0.3627  0.7126 -0.2291
 8681TIP3    H247459   3.511   3.116   0.963  1.3322 -0.5332 -0.7075
 8682TIP3   OH247460   2.531   4.903   2.990 -0.0001  0.6530  0.4443
 8682TIP3    H147461   2.591   4.950   2.933  1.9475  0.4699  2.2486
 8682TIP3    H247462   2.484   4.971   3.038 -0.0952  0.7787  0.1743
 8683TIP3   OH247463   4.853   5.407   5.463 -0.2512 -0.0784 -0.3279
 8683TIP3    H147464   4.842   5.335   5.401 -0.3747  0.4649 -0.9528
 8683TIP3    H247465   4.901   5.474   5.414 -1.9607  1.1195 -0.4836
 8684TIP3   OH247466   0.374   3.967   3.348 -0.1092  0.1451  0.5566
 8684TIP3    H147467   0.464   3.941   3.366  0.2604  1.7058  1.1562
 8684TIP3    H247468   0.369   4.059   3.376 -0.9033  1.2397 -2.6757
 8685TIP3   OH247469   6.816   3.833  16.086  0.6246 -0.4007 -0.5128
 8685TIP3    H147470   6.725   3.844  16.113 -0.0740  0.7856 -3.0243
 8685TIP3    H247471   6.812   3.772  16.012  1.7271  0.3722 -1.2477
 8686TIP3   OH247472   2.837   2.518  15.489  0.3673 -0.3399 -0.4110
 8686TIP3    H147473   2.760   2.479  15.529  1.1503 -2.0990 -0.5336
 8686TIP3    H247474   2.897   2.445  15.475  1.3589  0.7062 -1.9426
 8687TIP3   OH247475   2.669   0.088  11.982 -0.1700 -0.4528  0.0865
 8687TIP3    H147476   2.646  -0.004  11.994  0.6469 -0.7257 -0.4045
 8687TIP3    H247477   2.598   0.124  11.929 -1.8492 -0.1520  2.3872
 8688TIP3   OH247478   5.351   3.270   1.926  0.2088  0.7263  0.2299
 8688TIP3    H147479   5.374   3.319   1.847 -0.6000  2.3312  0.9589
 8688TIP3    H247480   5.265   3.233   1.908  0.7647 -0.3927 -0.2703
 8689TIP3   OH247481   6.117   3.566   2.511 -0.2808 -0.4087  0.2768
 8689TIP3    H147482   6.101   3.660   2.502 -0.5688 -0.4556  0.2738
 8689TIP3    H247483   6.132   3.554   2.605  1.7495 -0.0668  0.0415
 8690TIP3   OH247484   4.213   6.448   2.737  0.2711  0.5326 -0.1810
 8690TIP3    H147485   4.250   6.386   2.675  0.1124 -0.6668  0.8847
 8690TIP3    H247486   4.240   6.534   2.704 -0.2965 -0.0059 -2.2171
 8691TIP3   OH247487   5.712   0.265   6.029  0.2355 -0.0432  0.9798
 8691TIP3    H147488   5.782   0.286   6.091 -0.1213  1.8289  0.8011
 8691TIP3    H247489   5.710   0.340   5.969 -0.1957 -1.2677 -0.6186
 8692TIP3   OH247490   6.402   5.486  14.492  0.0612  0.1708 -0.6127
 8692TIP3    H147491   6.341   5.413  14.489 -1.3279  1.2988 -0.7560
 8692TIP3    H247492   6.454   5.472  14.571 -0.8969 -0.4152 -0.0830
 8693TIP3   OH247493   4.077   5.069   4.738 -0.5311  0.5502 -0.1967
 8693TIP3    H147494   4.119   5.009   4.676 -2.5576  0.0537 -1.1979
 8693TIP3    H247495   4.012   5.015   4.783 -0.8436  1.4836  0.5109
 8694TIP3   OH247496   0.521   6.368   1.862 -0.3895  0.2868  0.0624
 8694TIP3    H147497   0.490   6.458   1.871 -1.3105 -0.0690  0.4855
 8694TIP3    H247498   0.616   6.377   1.849 -0.4203  1.3021  0.4478
 8695TIP3   OH247499   4.042   6.541   6.369  0.0960  0.4497  0.0751
 8695TIP3    H147500   4.133   6.566   6.358  0.0416  0.0732 -1.3918
 8695TIP3    H247501   3.997   6.623   6.389  0.3935  1.0594 -1.6204
 8696TIP3   OH247502   3.029   1.018  15.831 -0.1597 -0.6800  0.4006
 8696TIP3    H147503   3.025   0.923  15.832  1.9302 -0.8302  0.0105
 8696TIP3    H247504   2.941   1.047  15.856 -1.6826 -2.6541 -2.2396
 8697TIP3   OH247505   1.678   4.141  15.421  0.2063 -0.2128  0.0173
 8697TIP3    H147506   1.700   4.049  15.432  0.7273 -0.2621 -1.2255
 8697TIP3    H247507   1.583   4.143  15.417  0.1399 -0.5395  1.2054
 8698TIP3   OH247508   2.116   3.265   2.962  0.2396  0.1991 -0.3077
 8698TIP3    H147509   2.104   3.286   3.054 -0.4720 -0.2372 -0.2997
 8698TIP3    H247510   2.195   3.210   2.961  0.0444 -0.0939  0.0823
 8699TIP3   OH247511   4.261   3.196  11.961 -0.3513  0.5209  0.6759
 8699TIP3    H147512   4.299   3.146  11.889 -1.6899  0.7112 -0.2083
 8699TIP3    H247513   4.269   3.288  11.933 -0.7605  0.6040  0.8292
 8700TIP3   OH247514   0.568   0.628  11.390  0.9181  0.1261  0.0689
 8700TIP3    H147515   0.642   0.685  11.371  0.7396  0.5956  0.7588
 8700TIP3    H247516   0.557   0.634  11.485  0.1174 -0.0888 -0.0050
 8701TIP3   OH247517   2.510   1.162  14.805  0.1579 -0.2543  0.3881
 8701TIP3    H147518   2.572   1.193  14.871 -0.9167  1.3525  0.6869
 8701TIP3    H247519   2.446   1.111  14.854 -0.3965  0.5728  0.5341
 8702TIP3   OH247520   5.828   0.175  14.168 -0.6606  0.1212  0.3045
 8702TIP3    H147521   5.748   0.219  14.139 -1.5080 -0.0579  2.2382
 8702TIP3    H247522   5.815   0.160  14.261  0.7771 -1.7784  0.2558
 8703TIP3   OH247523   4.108   6.044  13.637 -0.4471  0.3355  0.6993
 8703TIP3    H147524   4.024   6.025  13.594  0.1229 -1.5799  0.3550
 8703TIP3    H247525   4.083   6.075  13.724 -1.5386 -1.3123  1.0294
 8704TIP3   OH247526   2.935   1.449  16.792 -0.0048 -0.4239 -0.0380
 8704TIP3    H147527   2.878   1.517  16.827  2.4679  1.6494  0.2375
 8704TIP3    H247528   2.898   1.367  16.825 -3.1149  0.7108 -0.4036
 8705TIP3   OH247529   3.181   4.573  16.323  0.7155 -0.0247  0.4267
 8705TIP3    H147530   3.128   4.560  16.402 -0.1357 -1.3034 -0.3052
 8705TIP3    H247531   3.238   4.647  16.344 -0.5541  0.6535  1.6798
 8706TIP3   OH247532   4.458   6.558   3.665 -0.1362 -0.3671 -0.6897
 8706TIP3    H147533   4.364   6.553   3.681 -0.1114  1.9505  0.5165
 8706TIP3    H247534   4.468   6.528   3.574 -1.6422 -3.2878  0.0076
 8707TIP3   OH247535   4.411   0.693   1.302 -0.1405  0.0147 -0.1965
 8707TIP3    H147536   4.466   0.770   1.316  0.5359 -0.3512 -0.7765
 8707TIP3    H247537   4.324   0.720   1.330 -0.1591  1.3572 -1.4386
 8708TIP3   OH247538   6.424   0.721  16.251  0.0684  0.1412  0.3060
 8708TIP3    H147539   6.346   0.709  16.197  0.4946  1.2395 -0.6061
 8708TIP3    H247540   6.465   0.801  16.216  2.5968 -1.3740 -0.4773
 8709TIP3   OH247541   6.730   0.361  16.231 -0.0333  0.2535  0.1186
 8709TIP3    H147542   6.685   0.420  16.291 -1.6196  0.0065 -0.7800
 8709TIP3    H247543   6.707   0.394  16.144  0.3591 -0.7400 -0.3725
 8710TIP3   OH247544   4.535   1.132   6.215 -0.1850 -0.6430  0.4650
 8710TIP3    H147545   4.630   1.139   6.205  0.0830 -0.5320  2.7144
 8710TIP3    H247546   4.521   1.051   6.263 -1.2606 -0.7915 -0.0686
 8711TIP3   OH247547   5.955   1.751   4.244  0.5076  0.0867 -0.1291
 8711TIP3    H147548   5.876   1.806   4.248  0.8084  0.5420 -0.2855
 8711TIP3    H247549   5.922   1.662   4.240  0.0308  0.1797  1.3758
 8712TIP3   OH247550   5.585   4.743  15.357  0.1248  0.4838 -0.1588
 8712TIP3    H147551   5.592   4.809  15.426 -1.5985  0.6504 -0.0888
 8712TIP3    H247552   5.518   4.778  15.297  0.1934 -0.5486 -0.8644
 8713TIP3   OH247553   6.366   0.098  16.520 -0.0274  0.0981  0.1460
 8713TIP3    H147554   6.313   0.083  16.598 -0.1043 -0.3878  0.0048
 8713TIP3    H247555   6.449   0.054  16.539  0.8840  2.0209  0.9423
 8714TIP3   OH247556   4.992   4.392   2.302  0.0975  0.7358 -0.2266
 8714TIP3    H147557   5.088   4.387   2.304  0.1487  1.6279  1.1797
 8714TIP3    H247558   4.964   4.332   2.371 -0.3489  0.6687 -0.4662
 8715TIP3   OH247559   4.332   2.276  17.075  0.1349 -0.2848 -0.3515
 8715TIP3    H147560   4.275   2.351  17.058 -0.1386 -0.4488 -0.1609
 8715TIP3    H247561   4.293   2.233  17.151 -0.1036 -1.0149 -0.8785
 8716TIP3   OH247562   0.666   2.528   5.320 -0.6646 -0.5181  0.0036
 8716TIP3    H147563   0.604   2.487   5.382 -1.8190  0.8155 -0.2221
 8716TIP3    H247564   0.752   2.512   5.359 -1.3884  1.1173  2.5441
 8717TIP3   OH247565   4.215   2.030  16.470 -0.5067 -0.8023  0.0241
 8717TIP3    H147566   4.269   2.049  16.546  0.9772 -0.8332 -0.9848
 8717TIP3    H247567   4.253   1.951  16.432 -1.4616 -1.0097 -0.5449
 8718TIP3   OH247568   4.709   3.546  11.935 -0.1303  0.3320 -0.0786
 8718TIP3    H147569   4.754   3.562  11.853  1.3416 -0.3522  0.5611
 8718TIP3    H247570   4.646   3.618  11.942 -0.3176  0.3694 -1.8001
 8719TIP3   OH247571   2.162   4.826   2.681  0.3758  0.7970 -0.0024
 8719TIP3    H147572   2.089   4.885   2.697  0.5414  1.5083 -1.6178
 8719TIP3    H247573   2.121   4.741   2.664 -0.0277  1.0103 -0.1032
 8720TIP3   OH247574   0.437   2.439  15.933  0.0770 -0.7031 -0.0860
 8720TIP3    H147575   0.379   2.514  15.922  1.2166  0.3392  0.8732
 8720TIP3    H247576   0.454   2.408  15.844  1.9050  1.9855 -0.7702
 8721TIP3   OH247577   5.609   3.643   3.583  0.0148 -0.4265 -0.0651
 8721TIP3    H147578   5.557   3.669   3.659  0.1773  1.4614 -0.5622
 8721TIP3    H247579   5.696   3.678   3.601  0.1364 -0.2601 -0.9620
 8722TIP3   OH247580   2.725   3.450  15.241 -0.4204  0.4349 -0.3576
 8722TIP3    H147581   2.696   3.536  15.271 -0.1755  0.2213  0.5248
 8722TIP3    H247582   2.654   3.390  15.267 -0.3008  0.2788 -0.3863
 8723TIP3   OH247583   6.256   4.033   1.266 -0.0359 -0.1878  0.3589
 8723TIP3    H147584   6.272   4.099   1.334  2.0714  1.7675 -1.8367
 8723TIP3    H247585   6.316   3.962   1.288  0.7258  0.4817  0.4938
 8724TIP3   OH247586   0.085   2.704  12.235  0.3514  0.0859 -0.7818
 8724TIP3    H147587   0.156   2.758  12.200  1.2935 -0.4178  0.2592
 8724TIP3    H247588   0.097   2.618  12.193 -0.2741  0.2801 -1.3681
 8725TIP3   OH247589   2.736   1.522  16.327 -0.2810 -0.5074 -0.6074
 8725TIP3    H147590   2.674   1.544  16.396 -1.0954 -1.7281 -0.9241
 8725TIP3    H247591   2.783   1.604  16.311 -2.0035  0.5527 -0.5545
 8726TIP3   OH247592   1.323   4.941  12.869 -0.5332  0.1864  0.2997
 8726TIP3    H147593   1.284   4.948  12.956  0.1877 -0.7928  0.7216
 8726TIP3    H247594   1.409   4.982  12.878 -0.5993  0.3962 -0.0412
 8727TIP3   OH247595   1.517   1.258  13.666  0.1923  0.6950 -0.1249
 8727TIP3    H147596   1.608   1.258  13.637  0.7263  1.2470  1.4124
 8727TIP3    H247597   1.518   1.210  13.749 -0.9751  0.4765 -0.2123
 8728TIP3   OH247598   6.047   5.983  15.356  0.6691 -0.0207 -0.7222
 8728TIP3    H147599   6.107   6.057  15.365  0.8849  0.1393 -2.9535
 8728TIP3    H247600   6.062   5.951  15.267 -1.8731 -0.5517 -1.0339
 8729TIP3   OH247601   2.327   3.170   4.404  0.2085  0.1685 -0.0870
 8729TIP3    H147602   2.378   3.107   4.355  2.2529  0.8732  1.0361
 8729TIP3    H247603   2.269   3.117   4.459  1.4771 -0.7282  0.4198
 8730TIP3   OH247604   1.088   6.139  15.698 -0.2517 -0.1899 -0.3981
 8730TIP3    H147605   1.065   6.066  15.755  0.4807 -0.7823 -0.8357
 8730TIP3    H247606   1.179   6.158  15.719 -0.4034  0.5342 -0.3660
 8731TIP3   OH247607   2.798   2.240  16.612  0.0346  0.2278 -0.6235
 8731TIP3    H147608   2.789   2.267  16.520 -1.7193  0.4335 -0.4233
 8731TIP3    H247609   2.785   2.321  16.662  0.4002  0.0083 -0.1678
 8732TIP3   OH247610   1.457   2.765  10.162 -0.0691 -0.1591  0.3639
 8732TIP3    H147611   1.473   2.803  10.248  2.5134  0.1641 -0.1782
 8732TIP3    H247612   1.381   2.813  10.128 -1.8448 -1.0186  2.7951
 8733TIP3   OH247613   2.383   6.073  15.608 -0.8180 -0.1089  0.0488
 8733TIP3    H147614   2.304   6.058  15.659  1.0142 -1.2933  2.7839
 8733TIP3    H247615   2.430   5.990  15.611  0.9481  0.7934 -0.6985
 8734TIP3   OH247616   2.674   2.228  16.160  0.6459 -0.2791  0.1758
 8734TIP3    H147617   2.712   2.309  16.194  0.4713  0.3439 -1.0565
 8734TIP3    H247618   2.748   2.179  16.126  0.6024 -0.0017 -0.3337
 8735TIP3   OH247619   2.781   5.766   1.416  0.7213  0.4496 -0.0575
 8735TIP3    H147620   2.686   5.761   1.405  0.6790  1.1883 -0.0985
 8735TIP3    H247621   2.802   5.694   1.476  0.2969 -0.4643 -0.9817
 8736TIP3   OH247622   3.996   4.554  14.537  0.1905 -0.2545  0.8222
 8736TIP3    H147623   3.914   4.604  14.535  0.9531  1.0785  1.2510
 8736TIP3    H247624   4.004   4.517  14.449 -0.5242  0.1859  0.5637
 8737TIP3   OH247625   2.976   3.466   4.643 -0.4938 -0.3990  0.2436
 8737TIP3    H147626   3.037   3.407   4.599 -0.0220 -0.1953  0.6177
 8737TIP3    H247627   2.931   3.411   4.707  1.2207 -0.0038  1.8506
 8738TIP3   OH247628   2.507   2.997   6.167 -0.1967 -0.4630  0.5775
 8738TIP3    H147629   2.483   2.907   6.188 -1.3327 -0.1696  0.6257
 8738TIP3    H247630   2.423   3.042   6.155  0.3500  0.5719  0.4785
 8739TIP3   OH247631   3.158   2.576  14.713 -0.0965 -0.0470  0.4669
 8739TIP3    H147632   3.129   2.572  14.804  1.0064  1.4242  0.9275
 8739TIP3    H247633   3.093   2.526  14.664 -1.2897  0.0281  1.9205
 8740TIP3   OH247634   2.517   4.855  14.644 -0.5312  0.3163  0.3315
 8740TIP3    H147635   2.425   4.845  14.671 -1.0663 -1.9388 -1.8915
 8740TIP3    H247636   2.568   4.834  14.722 -1.7876  3.1080  2.0653
 8741TIP3   OH247637   0.931   6.267  14.599 -0.0595  0.2559  1.2995
 8741TIP3    H147638   1.020   6.295  14.619  0.0910  1.6322 -1.0225
 8741TIP3    H247639   0.940   6.178  14.564  0.1758 -0.2468  2.5768
 8742TIP3   OH247640   1.911   0.459   5.670  0.1999  0.5977 -0.2399
 8742TIP3    H147641   1.848   0.411   5.724  0.6458  0.3952  0.1052
 8742TIP3    H247642   1.962   0.391   5.625  1.1263  0.7202  0.5889
 8743TIP3   OH247643   5.798   6.399   6.377  0.3064 -0.0056 -0.1753
 8743TIP3    H147644   5.744   6.329   6.339 -0.2820 -0.0607  0.7247
 8743TIP3    H247645   5.888   6.369   6.363  0.0627 -1.0138  0.3007
 8744TIP3   OH247646   6.672   0.820  15.223  0.5741 -0.8499  0.4614
 8744TIP3    H147647   6.641   0.747  15.169  1.1150 -1.0782  0.4501
 8744TIP3    H247648   6.642   0.899  15.176  0.9397 -1.0490 -0.1192
 8745TIP3   OH247649   2.471   1.551  17.067 -0.1953  0.3393 -0.3219
 8745TIP3    H147650   2.438   1.545  16.977 -0.2775  1.9144 -0.4309
 8745TIP3    H247651   2.547   1.494  17.069 -0.3418  0.0869 -1.3268
 8746TIP3   OH247652   0.499   2.050   4.711  0.4313 -0.2805  0.1930
 8746TIP3    H147653   0.458   1.968   4.738 -0.6142 -0.2299 -1.1327
 8746TIP3    H247654   0.495   2.106   4.789 -2.8025  0.0016 -0.0422
 8747TIP3   OH247655   5.973   0.455  14.907  0.5347  0.6078  0.1616
 8747TIP3    H147656   5.918   0.379  14.926 -2.0538  1.5127 -2.8540
 8747TIP3    H247657   5.943   0.522  14.969 -0.3804  0.4527 -0.0856
 8748TIP3   OH247658   1.103   1.200  13.470  0.0314  0.1761  0.5869
 8748TIP3    H147659   1.190   1.162  13.460 -0.3819 -0.5056 -0.6823
 8748TIP3    H247660   1.118   1.294  13.477  0.9192 -0.0081  1.2993
 8749TIP3   OH247661   2.955   4.119   6.624 -0.2631  0.4398 -0.8522
 8749TIP3    H147662   2.873   4.092   6.582 -0.4710  2.1743 -1.6627
 8749TIP3    H247663   2.966   4.210   6.598  0.2509  1.2561  1.9112
 8750TIP3   OH247664   2.922   2.660   0.313 -0.6677 -0.2838 -0.0090
 8750TIP3    H147665   3.013   2.654   0.283 -0.0352 -0.1599  1.8009
 8750TIP3    H247666   2.914   2.593   0.380 -1.9339 -0.2815 -0.1347
 8751TIP3   OH247667   4.648   1.825   1.902  0.2781 -0.0834  0.1144
 8751TIP3    H147668   4.592   1.826   1.825  1.1154 -2.2102 -0.6101
 8751TIP3    H247669   4.632   1.909   1.945  0.1907  1.4067 -2.6353
 8752TIP3   OH247670   3.378   5.210  14.512  0.4286 -0.1193  0.1787
 8752TIP3    H147671   3.357   5.126  14.552 -0.3072 -0.5926 -1.1383
 8752TIP3    H247672   3.341   5.205  14.424  0.5201  1.5201  0.0092
 8753TIP3   OH247673   1.058   1.388   1.077 -0.0686  0.1670  0.0030
 8753TIP3    H147674   1.121   1.364   1.145  0.2111  0.8740  0.0001
 8753TIP3    H247675   1.086   1.474   1.047 -0.0413 -0.2416 -1.2029
 8754TIP3   OH247676   4.857   2.613   2.770  0.4474  0.6318  0.4113
 8754TIP3    H147677   4.842   2.645   2.681  0.7124 -1.8274 -0.6073
 8754TIP3    H247678   4.769   2.595   2.803  0.4070  0.3950  0.1777
 8755TIP3   OH247679   5.707   3.895  15.670  0.1202 -0.2022  0.8325
 8755TIP3    H147680   5.627   3.914  15.719 -0.3188 -0.6964  0.3387
 8755TIP3    H247681   5.675   3.872  15.582  0.8383  0.0160  0.5106
 8756TIP3   OH247682   0.281   2.526   0.752 -0.5808  0.1431 -0.0902
 8756TIP3    H147683   0.262   2.611   0.712 -1.6332  0.3972  0.9122
 8756TIP3    H247684   0.336   2.547   0.828 -0.3600 -0.1381 -0.1680
 8757TIP3   OH247685   0.475   6.184   2.967  0.6360 -0.0437 -0.6666
 8757TIP3    H147686   0.512   6.243   3.033 -1.5135  2.0197 -1.1803
 8757TIP3    H247687   0.393   6.154   3.006 -0.7074  1.2658 -2.3317
 8758TIP3   OH247688   1.983   6.491   3.477 -0.1140 -0.3221 -0.1522
 8758TIP3    H147689   2.051   6.556   3.459 -0.0946 -0.2086  0.2967
 8758TIP3    H247690   1.962   6.452   3.392  0.4214 -0.2655 -0.3109
 8759TIP3   OH247691   0.399   3.920  12.464 -0.2356  0.4503 -0.0223
 8759TIP3    H147692   0.358   3.926  12.551 -1.5665  0.4303 -0.6153
 8759TIP3    H247693   0.470   3.858  12.475 -0.5220  0.2822  1.0110
 8760TIP3   OH247694   4.213   0.285   2.507  0.0049 -0.4905  0.5718
 8760TIP3    H147695   4.171   0.360   2.549  0.3973 -0.8884  1.7125
 8760TIP3    H247696   4.274   0.324   2.444  1.4846  0.2351  2.3564
 8761TIP3   OH247697   3.228   3.641   3.879  0.1739 -0.4418 -0.4812
 8761TIP3    H147698   3.190   3.608   3.797 -1.1003  0.2732 -0.2193
 8761TIP3    H247699   3.160   3.624   3.945  0.4855  0.5065  0.0998
 8762TIP3   OH247700   2.765   2.795   1.156  0.0743 -0.2311 -0.2312
 8762TIP3    H147701   2.734   2.874   1.201  1.4073 -0.9105  2.0631
 8762TIP3    H247702   2.687   2.740   1.147 -0.4715  0.4760  0.0554
 8763TIP3   OH247703   3.388   6.658  13.838 -0.1414  0.6333 -0.0224
 8763TIP3    H147704   3.397   6.598  13.764  0.0338  0.1638  0.3777
 8763TIP3    H247705   3.301   6.639  13.873 -0.7215  1.6872 -0.8259
 8764TIP3   OH247706   3.128   5.499  12.573 -0.0300  0.6115 -0.4809
 8764TIP3    H147707   3.078   5.572  12.608  0.5648  1.1005 -0.6473
 8764TIP3    H247708   3.212   5.537  12.546  0.8674 -0.3767  0.8014
 8765TIP3   OH247709   0.828   2.460   5.668  0.3902  0.2586 -0.8337
 8765TIP3    H147710   0.787   2.377   5.642 -0.7386  1.2212 -2.3183
 8765TIP3    H247711   0.763   2.502   5.725  0.9456  0.1637 -0.1088
 8766TIP3   OH247712   5.839   2.576   5.550  0.0154  0.6005 -0.0156
 8766TIP3    H147713   5.913   2.599   5.607  1.3390 -1.8221 -0.5907
 8766TIP3    H247714   5.878   2.567   5.463 -1.8705  3.7491 -1.3492
 8767TIP3   OH247715   0.881   4.749  10.658  0.0550  0.1920 -0.9406
 8767TIP3    H147716   0.804   4.791  10.619  0.2389  1.5813  0.0985
 8767TIP3    H247717   0.854   4.726  10.746 -0.3348 -2.8801 -1.7510
 8768TIP3   OH247718   6.801   3.340  14.800 -0.6298 -0.3218  0.5287
 8768TIP3    H147719   6.723   3.388  14.828 -1.2205 -1.1708  0.4045
 8768TIP3    H247720   6.773   3.248  14.801  0.2105 -0.5902 -0.0406
 8769TIP3   OH247721   6.648   4.323   5.034 -0.4762 -0.1707  0.3858
 8769TIP3    H147722   6.658   4.233   5.003  1.2080  0.6438 -1.6547
 8769TIP3    H247723   6.567   4.354   4.993 -1.0703 -0.7167  1.1078
 8770TIP3   OH247724   5.155   6.566  16.738 -0.3105 -0.7100  0.1358
 8770TIP3    H147725   5.212   6.557  16.662  0.9131  1.2487  0.7505
 8770TIP3    H247726   5.083   6.622  16.708 -0.7805 -1.3690 -0.0161
 8771TIP3   OH247727   5.553   4.508  16.643 -0.3442  0.1344  0.2208
 8771TIP3    H147728   5.465   4.480  16.670 -0.5748  0.9940  0.3745
 8771TIP3    H247729   5.541   4.596  16.609  0.3717  0.0326 -0.3107
 8772TIP3   OH247730   0.436   1.473   0.660 -0.0102  0.0419  0.5765
 8772TIP3    H147731   0.529   1.499   0.660  0.5262 -1.6163 -1.4042
 8772TIP3    H247732   0.418   1.449   0.569 -0.9293 -4.3208  1.6685
 8773TIP3   OH247733   4.357   5.364   0.338 -0.0307  0.2040  0.0998
 8773TIP3    H147734   4.448   5.393   0.328  1.4182 -3.8879 -0.2639
 8773TIP3    H247735   4.314   5.394   0.257  1.6661  0.0543 -0.9056
 8774TIP3   OH247736   4.913   0.084  11.038 -0.6250  0.0476 -0.1916
 8774TIP3    H147737   4.974   0.156  11.051 -0.6179 -0.0028  0.0728
 8774TIP3    H247738   4.893   0.085  10.945  0.1381 -0.2274 -0.3668
 8775TIP3   OH247739   4.244   4.889   0.205  0.2007 -0.0451  0.7044
 8775TIP3    H147740   4.242   4.959   0.269  1.8211  0.4383  0.2732
 8775TIP3    H247741   4.294   4.819   0.247  1.9359  0.5583 -0.2354
 8776TIP3   OH247742   3.739   3.685  11.847  0.4146  0.0423  0.2827
 8776TIP3    H147743   3.766   3.764  11.895  0.7328  0.2327 -0.2016
 8776TIP3    H247744   3.719   3.621  11.916  1.5409  0.0862  0.6742
 8777TIP3   OH247745   6.607   5.334   3.501 -0.6533  0.3499 -0.6440
 8777TIP3    H147746   6.700   5.313   3.507 -0.2584  2.2577  1.3679
 8777TIP3    H247747   6.567   5.257   3.461  1.5235 -1.3028  0.1878
 8778TIP3   OH247748   0.798   5.511   2.109  0.1468  0.4296 -0.3537
 8778TIP3    H147749   0.849   5.465   2.042 -0.7408  0.0553 -0.7892
 8778TIP3    H247750   0.740   5.445   2.144  0.5733  0.6359  0.7797
 8779TIP3   OH247751   0.267   2.920  12.822  0.6705  0.6058 -0.5869
 8779TIP3    H147752   0.249   2.833  12.856  2.0539  0.5388  0.0377
 8779TIP3    H247753   0.183   2.950  12.787 -0.3691 -0.0760  1.1861
 8780TIP3   OH247754   4.507   2.483  14.258  0.2311  0.2737  0.4460
 8780TIP3    H147755   4.563   2.561  14.250 -0.1310  0.5311  0.3952
 8780TIP3    H247756   4.470   2.472  14.170 -1.7726  1.6006  1.0634
 8781TIP3   OH247757   0.522   2.010  12.802  0.3621  0.2370 -0.3468
 8781TIP3    H147758   0.610   1.991  12.770  0.4060 -0.8601  0.3945
 8781TIP3    H247759   0.532   2.091  12.852  1.2525 -0.6139  0.9190
 8782TIP3   OH247760   5.177   1.287   0.139  0.2838  0.6162 -0.0750
 8782TIP3    H147761   5.213   1.370   0.170  0.7323 -0.0710  1.3198
 8782TIP3    H247762   5.149   1.242   0.218  1.9841 -1.4608 -0.5719
 8783TIP3   OH247763   5.262   6.701   2.278  0.5283  0.0526 -0.5097
 8783TIP3    H147764   5.286   6.669   2.191 -1.1001  0.9454 -1.3471
 8783TIP3    H247765   5.337   6.753   2.307  0.7288  0.5374 -1.8285
 8784TIP3   OH247766   2.031   2.880   4.841  0.1578 -0.5125  0.2307
 8784TIP3    H147767   1.958   2.870   4.901 -0.1406 -0.4804 -0.1208
 8784TIP3    H247768   2.020   2.809   4.778  0.7105 -0.8039  0.4614
 8785TIP3   OH247769   0.887   4.412  16.116  0.1082 -0.0318 -0.2954
 8785TIP3    H147770   0.906   4.405  16.022 -0.3282 -0.6094 -0.3475
 8785TIP3    H247771   0.848   4.498  16.126  2.8201  1.2891 -0.1639
 8786TIP3   OH247772   4.656   2.891  16.419  0.3582 -0.1140 -0.1525
 8786TIP3    H147773   4.704   2.860  16.342  0.4281  0.6277 -0.4208
 8786TIP3    H247774   4.689   2.980  16.434 -0.8419  0.3779 -0.2713
 8787TIP3   OH247775   1.849   2.527  13.039 -0.1111  0.9120  0.5720
 8787TIP3    H147776   1.939   2.549  13.014 -1.0203  2.9311 -1.3062
 8787TIP3    H247777   1.807   2.612  13.053 -2.3589  0.1543 -1.0789
 8788TIP3   OH247778   0.151   6.405   1.174 -0.8729  0.1053  0.0582
 8788TIP3    H147779   0.240   6.396   1.208 -1.5597 -0.4339  1.8737
 8788TIP3    H247780   0.159   6.392   1.080  0.8890 -0.5072  0.2636
 8789TIP3   OH247781   4.737   1.058  15.822  0.1300  0.0570  0.3026
 8789TIP3    H147782   4.829   1.074  15.801 -0.6560  1.2335 -2.9421
 8789TIP3    H247783   4.713   0.983  15.767 -0.9843  0.1808  0.5946
 8790TIP3   OH247784   4.117   6.433  14.751 -0.2014 -0.5939  0.0523
 8790TIP3    H147785   4.039   6.410  14.802  0.0775 -0.4655  0.5498
 8790TIP3    H247786   4.167   6.490  14.809 -0.6668  0.9356 -1.0015
 8791TIP3   OH247787   4.027   1.398  15.305 -0.5522 -0.0410  0.4747
 8791TIP3    H147788   4.034   1.488  15.338  0.7968  0.6554 -1.5398
 8791TIP3    H247789   4.116   1.365  15.307 -0.5547 -0.2504 -1.5902
 8792TIP3   OH247790   6.677   4.448   3.911 -0.3200 -0.1875  0.1916
 8792TIP3    H147791   6.673   4.405   3.826 -2.0901  1.7099 -0.7740
 8792TIP3    H247792   6.760   4.494   3.912 -0.3896 -0.0389 -0.6142
 8793TIP3   OH247793   3.040   5.745  12.674  0.2036 -0.4376 -0.0779
 8793TIP3    H147794   3.090   5.818  12.709  0.9221 -1.8450  1.9915
 8793TIP3    H247795   2.953   5.781  12.659  0.8326  1.1105 -0.2033
 8794TIP3   OH247796   0.021   3.300   1.215 -0.2219 -0.2515  0.3462
 8794TIP3    H147797  -0.016   3.216   1.242  2.6994 -1.2722  1.5486
 8794TIP3    H247798   0.043   3.344   1.297  3.3324 -0.8130 -0.1341
 8795TIP3   OH247799   0.419   2.140  16.615 -0.4114 -0.1859 -0.6598
 8795TIP3    H147800   0.354   2.198  16.655 -0.2675 -0.8247  0.5594
 8795TIP3    H247801   0.484   2.198  16.576 -1.3233  0.4601 -1.2504
 8796TIP3   OH247802   1.135   2.739  13.119  0.0011  0.5215 -0.4654
 8796TIP3    H147803   1.134   2.764  13.027  2.0397 -0.2986 -0.7650
 8796TIP3    H247804   1.194   2.664  13.123  0.3862  0.8661  1.5857
 8797TIP3   OH247805   6.720   2.464   4.142 -0.0042 -0.4005 -0.1403
 8797TIP3    H147806   6.659   2.442   4.211 -2.0309  1.8032 -1.0821
 8797TIP3    H247807   6.780   2.527   4.182 -1.0127  0.6725 -0.2523
 8798TIP3   OH247808   3.414   6.016  16.853 -0.7732  0.3281 -0.5479
 8798TIP3    H147809   3.410   5.921  16.868  0.5432  0.2535 -0.5444
 8798TIP3    H247810   3.400   6.026  16.759  0.3204  0.0176 -0.7529
 8799TIP3   OH247811   3.485   6.378  13.804  0.5060  0.2765 -0.3701
 8799TIP3    H147812   3.415   6.391  13.740 -0.1072  0.2930  0.2932
 8799TIP3    H247813   3.563   6.416  13.762 -0.4179  2.6893 -0.0697
 8800TIP3   OH247814   3.281   2.997   4.560 -0.0879 -0.1885  0.6525
 8800TIP3    H147815   3.308   2.931   4.623  0.9312  1.0864  1.6090
 8800TIP3    H247816   3.340   2.986   4.486  0.4503 -0.0003  1.0475
 8801TIP3   OH247817   0.338   6.478   3.537  0.5471  0.0642 -0.1731
 8801TIP3    H147818   0.373   6.566   3.553  1.2740 -0.2562  0.0117
 8801TIP3    H247819   0.245   6.493   3.518  0.5385  0.8144  0.4223
 8802TIP3   OH247820   2.891   0.711   3.179 -0.1030 -0.0290  1.1767
 8802TIP3    H147821   2.848   0.625   3.183  2.3003 -1.3644  0.1649
 8802TIP3    H247822   2.983   0.694   3.198  0.6683  2.1339 -0.1685
 8803TIP3   OH247823   2.503   3.010  16.141  0.5550  0.0972 -0.1657
 8803TIP3    H147824   2.598   3.009  16.145  0.5226 -0.3624  0.6678
 8803TIP3    H247825   2.477   2.922  16.170 -0.1007 -0.0412 -1.1182
 8804TIP3   OH247826   5.754   6.459  15.316  0.5047  0.1428 -0.0827
 8804TIP3    H147827   5.704   6.491  15.240 -2.5326 -4.2558 -0.3222
 8804TIP3    H247828   5.836   6.428  15.278  0.0436  0.2334 -1.2210
 8805TIP3   OH247829   6.135   3.555   4.943  0.6011 -0.1364 -0.3348
 8805TIP3    H147830   6.089   3.620   4.891  2.4091  0.6826 -0.9729
 8805TIP3    H247831   6.222   3.548   4.903  1.4429 -0.7893  1.4760
 8806TIP3   OH247832   0.033   5.453  13.479 -0.1619 -0.1942  0.3014
 8806TIP3    H147833   0.055   5.518  13.413 -0.3980 -0.1605  0.2567
 8806TIP3    H247834   0.061   5.493  13.562  0.8134 -0.5428  0.1520
 8807TIP3   OH247835   1.312   6.122  13.230  0.0798 -0.1844 -0.3009
 8807TIP3    H147836   1.373   6.053  13.202  0.2089 -0.3465  0.3552
 8807TIP3    H247837   1.361   6.203  13.218  0.1301 -0.2504 -0.5475
 8808TIP3   OH247838   0.983   1.258  16.937  0.3430 -0.0802  0.9236
 8808TIP3    H147839   0.921   1.186  16.954 -0.0741  0.3824  1.3947
 8808TIP3    H247840   1.064   1.214  16.911 -0.7202 -0.6951 -1.6960
 8809TIP3   OH247841   1.157   2.827   5.123  0.5901 -1.1208 -0.1494
 8809TIP3    H147842   1.087   2.817   5.188  0.5939  0.0026  0.0523
 8809TIP3    H247843   1.114   2.862   5.045  0.8236 -1.0226 -0.2378
 8810TIP3   OH247844   2.922   5.840   4.438 -0.0782  0.5885  0.1052
 8810TIP3    H147845   2.972   5.796   4.369 -2.2415 -0.5128 -0.8736
 8810TIP3    H247846   2.911   5.929   4.406 -1.1761  0.0536 -1.1095
 8811TIP3   OH247847   0.996   1.464   3.577 -0.0471 -0.3843 -0.0190
 8811TIP3    H147848   1.090   1.480   3.574 -0.0926 -0.2188 -1.0764
 8811TIP3    H247849   0.988   1.373   3.605  0.6665 -2.0331 -4.4473
 8812TIP3   OH247850   6.382   6.118  15.808  0.5874 -0.5105 -0.8791
 8812TIP3    H147851   6.464   6.148  15.846 -0.4892  0.8540  0.5245
 8812TIP3    H247852   6.362   6.037  15.855  0.9591 -0.6761 -1.0008
 8813TIP3   OH247853   5.278   2.003   5.917 -0.0216  0.1396 -0.4074
 8813TIP3    H147854   5.287   2.022   6.010 -0.0863 -0.7367 -0.2079
 8813TIP3    H247855   5.303   1.910   5.909 -1.7648 -0.3156 -0.9751
 8814TIP3   OH247856   3.594   4.764   1.967  0.6094  0.0433  0.3591
 8814TIP3    H147857   3.499   4.774   1.975  0.5170 -0.9546  0.6490
 8814TIP3    H247858   3.627   4.854   1.960 -0.3838  0.3846 -0.1392
 8815TIP3   OH247859   0.709   5.026   3.283 -0.0774  0.5292  0.0456
 8815TIP3    H147860   0.754   4.976   3.351 -0.7281  0.8828  0.7465
 8815TIP3    H247861   0.616   5.008   3.297 -0.1597 -1.0679 -2.0545
 8816TIP3   OH247862   0.969   1.704  16.930 -0.0837  0.2616  0.0703
 8816TIP3    H147863   0.914   1.631  16.960  0.5984 -0.8894 -1.3899
 8816TIP3    H247864   0.922   1.740  16.855 -0.3411  1.2489  0.6932
 8817TIP3   OH247865   2.206   4.119   5.196 -0.1826  0.4353  0.2599
 8817TIP3    H147866   2.300   4.128   5.179 -0.2373 -0.2038 -0.4388
 8817TIP3    H247867   2.187   4.185   5.263  0.6485  0.9613 -0.0088
 8818TIP3   OH247868   0.654   0.014  12.908 -0.1817  0.2055  0.0638
 8818TIP3    H147869   0.695   0.050  12.986 -0.1885  1.6829 -0.5842
 8818TIP3    H247870   0.722  -0.042  12.870  0.5027  0.9596  0.1354
 8819TIP3   OH247871   4.599   0.115  12.244 -0.1378  0.1617  0.4502
 8819TIP3    H147872   4.568   0.170  12.316  0.2690  1.4495 -0.3266
 8819TIP3    H247873   4.636   0.177  12.180 -0.5278 -0.9222 -0.8879
 8820TIP3   OH247874   4.110   1.393  14.758 -0.0532 -0.4678 -0.2646
 8820TIP3    H147875   4.086   1.477  14.719  0.2121 -1.0326 -1.7089
 8820TIP3    H247876   4.132   1.414  14.849  1.0696  1.2017 -0.8835
 8821TIP3   OH247877   4.262   2.594   5.307  0.1373  0.5386  0.1195
 8821TIP3    H147878   4.237   2.643   5.229  0.0782  3.5025  1.8507
 8821TIP3    H247879   4.341   2.638   5.338  0.7595 -1.2403  1.1812
 8822TIP3   OH247880   4.847   0.453   2.074 -0.0502  0.4886  0.1084
 8822TIP3    H147881   4.862   0.475   2.166  1.6533 -0.3121  0.0781
 8822TIP3    H247882   4.868   0.533   2.026 -0.7516  0.8505  0.3925
 8823TIP3   OH247883   4.840   6.520  13.054  0.0278 -0.0895  0.3089
 8823TIP3    H147884   4.857   6.603  13.098  3.5577 -1.1768  1.2890
 8823TIP3    H247885   4.894   6.456  13.100 -1.4858 -2.7203 -1.2770
 8824TIP3   OH247886   5.889   6.567  13.277  0.2118 -0.1704 -0.0041
 8824TIP3    H147887   5.839   6.530  13.350  0.0347 -0.2138 -0.1475
 8824TIP3    H247888   5.952   6.626  13.318  0.7129 -0.8784  0.2522
 8825TIP3   OH247889   1.574   4.614  10.468 -0.4869  0.0814 -0.6400
 8825TIP3    H147890   1.550   4.522  10.460 -0.1943  0.0065 -0.6504
 8825TIP3    H247891   1.611   4.621  10.556 -1.6130  0.4346 -0.1789
 8826TIP3   OH247892   5.966   0.852   2.352  0.1223  0.5080  0.4917
 8826TIP3    H147893   5.954   0.890   2.265 -0.8657  0.9885  0.8137
 8826TIP3    H247894   5.877   0.839   2.385  0.4793  0.8651  1.6556
 8827TIP3   OH247895   6.005   4.858   1.599  0.4897  0.4085 -0.1664
 8827TIP3    H147896   5.920   4.831   1.565  0.2022  0.6172  0.3651
 8827TIP3    H247897   6.069   4.820   1.539  0.0654 -0.6916  0.0485
 8828TIP3   OH247898   0.399   4.428   4.603  0.4558 -0.1930  0.2361
 8828TIP3    H147899   0.399   4.460   4.693  0.9234  0.3358  0.0530
 8828TIP3    H247900   0.313   4.453   4.568  0.7550  0.7401  0.1437
 8829TIP3   OH247901   2.961   0.188   2.100 -0.2806 -0.1089  0.3779
 8829TIP3    H147902   3.000   0.195   2.188 -3.7139  0.4981  2.0171
 8829TIP3    H247903   2.972   0.275   2.062  0.0253  0.0257  0.7680
 8830TIP3   OH247904   3.125   1.645   0.477 -0.0130  0.1504  0.1837
 8830TIP3    H147905   3.139   1.689   0.393 -0.1261 -0.6255 -0.2503
 8830TIP3    H247906   3.030   1.633   0.482  0.1100 -1.1897 -0.3110
 8831TIP3   OH247907   1.447   5.188   2.957 -0.4832 -0.1677  0.0515
 8831TIP3    H147908   1.431   5.187   2.862  0.3848 -0.2296 -0.1081
 8831TIP3    H247909   1.361   5.175   2.996 -0.5883 -2.2823 -0.7671
 8832TIP3   OH247910   4.856   4.796  17.080  0.4141 -0.7870  0.3567
 8832TIP3    H147911   4.806   4.714  17.083 -1.3522  0.2658  1.6041
 8832TIP3    H247912   4.805   4.851  17.020  1.1433 -0.3109  0.1705
 8833TIP3   OH247913   3.027   3.083   0.473  0.4076 -0.4669 -0.3791
 8833TIP3    H147914   3.015   3.061   0.565  1.5559 -0.1184 -0.1223
 8833TIP3    H247915   3.121   3.069   0.458  0.3927  0.2965 -1.2632
 8834TIP3   OH247916   2.218   0.008  15.975  0.0119 -0.1951 -0.0739
 8834TIP3    H147917   2.125   0.022  15.994  0.2873  1.0915  0.4578
 8834TIP3    H247918   2.258  -0.007  16.061  0.2026 -1.4864 -0.3638
 8835TIP3   OH247919   3.221   4.982  14.508  0.4910 -0.6758  0.3473
 8835TIP3    H147920   3.184   5.069  14.492 -1.0151 -1.0439  1.5625
 8835TIP3    H247921   3.190   4.929  14.434  0.3956 -0.4602  0.2314
 8836TIP3   OH247922   3.383   6.062  13.696 -0.4368  0.0995 -0.3667
 8836TIP3    H147923   3.473   6.052  13.726  0.1375 -0.5291 -2.1615
 8836TIP3    H247924   3.334   6.088  13.774  0.9641 -1.2742  1.0323
 8837TIP3   OH247925   3.688   1.972   2.847 -0.4938  0.3110  0.2880
 8837TIP3    H147926   3.764   2.030   2.842  0.0838 -0.5252 -1.9338
 8837TIP3    H247927   3.613   2.028   2.823  0.1783  0.0549 -2.8125
 8838TIP3   OH247928   5.233   2.326  11.957 -0.3595 -0.6218  0.0081
 8838TIP3    H147929   5.319   2.319  11.916 -0.1957 -1.3378  0.4640
 8838TIP3    H247930   5.244   2.391  12.026 -0.5640  0.3764 -0.8682
 8839TIP3   OH247931   1.927   4.711   5.396  0.5117  0.2168  0.2123
 8839TIP3    H147932   1.878   4.793   5.397 -1.2071 -0.7687  0.5877
 8839TIP3    H247933   1.980   4.714   5.476 -0.8933  0.2248  1.1884
 8840TIP3   OH247934   6.164   2.762   0.586 -0.9461  0.4114  0.2960
 8840TIP3    H147935   6.222   2.723   0.651  1.0464  1.5855 -0.6792
 8840TIP3    H247936   6.134   2.689   0.532 -0.1590 -0.1905  0.6710
 8841TIP3   OH247937   3.776   1.386  14.652  0.5039 -0.1951 -0.0774
 8841TIP3    H147938   3.853   1.443  14.648 -0.2629  0.8044 -1.9516
 8841TIP3    H247939   3.704   1.445  14.676 -0.1368 -0.5260 -1.1286
 8842TIP3   OH247940   3.718   3.640  15.944 -0.0393  0.5361  0.5441
 8842TIP3    H147941   3.743   3.613  15.856  0.7005  0.4392  0.7768
 8842TIP3    H247942   3.800   3.642  15.993 -0.5831 -0.5321  1.5398
 8843TIP3   OH247943   2.026   3.917   3.013  0.2734  0.2710  0.3199
 8843TIP3    H147944   2.061   3.909   2.925  1.0641  1.3200  0.5298
 8843TIP3    H247945   2.102   3.934   3.068 -0.1941 -0.4726  1.2293
 8844TIP3   OH247946   5.456   2.707   5.136 -0.2905  0.7721  0.0742
 8844TIP3    H147947   5.370   2.678   5.107 -0.1413  1.2121 -0.8335
 8844TIP3    H247948   5.452   2.702   5.232 -0.5771 -1.3073 -0.0091
 8845TIP3   OH247949   4.644   5.697   2.245  0.0638  0.6158 -0.1311
 8845TIP3    H147950   4.597   5.626   2.288  0.4746 -1.3975 -2.7362
 8845TIP3    H247951   4.695   5.738   2.314  1.0129 -2.6157  1.2704
 8846TIP3   OH247952   6.159   4.933   4.310  0.1846  0.6600  0.2616
 8846TIP3    H147953   6.176   4.862   4.372  1.0125  0.1278 -0.5482
 8846TIP3    H247954   6.116   5.001   4.362 -0.1823 -0.2304  1.1613
 8847TIP3   OH247955   5.738   3.209  15.673  0.4241 -0.2208 -0.3063
 8847TIP3    H147956   5.743   3.294  15.630  0.5870 -0.1663 -0.1806
 8847TIP3    H247957   5.805   3.212  15.741 -0.1663 -0.1099  0.2855
 8848TIP3   OH247958   4.469   6.230  12.355 -0.1085 -0.8401 -0.6958
 8848TIP3    H147959   4.556   6.262  12.330 -0.5580  0.3850 -0.7876
 8848TIP3    H247960   4.409   6.280  12.299 -1.0177  0.2735  1.1756
 8849TIP3   OH247961   2.796   6.436  16.366 -0.0581  0.1297  0.2960
 8849TIP3    H147962   2.780   6.530  16.363 -0.2237  0.1042  0.3778
 8849TIP3    H247963   2.875   6.423  16.314 -1.1448  0.0651 -1.3911
 8850TIP3   OH247964   3.747   2.405   2.638  0.7165  0.2540 -0.3136
 8850TIP3    H147965   3.673   2.390   2.579 -0.3968 -1.7341  1.4263
 8850TIP3    H247966   3.744   2.498   2.657 -0.9927  0.3285 -0.7659
 8851TIP3   OH247967   5.504   0.434  15.088  0.1384  0.3607  0.4891
 8851TIP3    H147968   5.519   0.363  15.149 -0.7783 -1.1876 -0.9973
 8851TIP3    H247969   5.420   0.414  15.047 -0.2061  2.3680  0.0814
 8852TIP3   OH247970   0.931   1.273  13.685  0.0198 -0.2587  0.3903
 8852TIP3    H147971   0.849   1.288  13.637 -0.0393  0.5331  0.7260
 8852TIP3    H247972   0.998   1.269  13.617 -0.3793 -1.6844  0.0472
 8853TIP3   OH247973   1.496   1.212  11.641 -0.2560 -0.1566  0.0182
 8853TIP3    H147974   1.514   1.121  11.664 -0.6494  0.0613  1.2139
 8853TIP3    H247975   1.408   1.228  11.674  0.2622  1.0067  0.8845
 8854TIP3   OH247976   3.334   2.423  15.903 -0.5933  0.0524 -0.6050
 8854TIP3    H147977   3.365   2.501  15.950 -1.6304  0.8836 -1.2553
 8854TIP3    H247978   3.412   2.370  15.891  0.3429  1.4757 -1.0567
 8855TIP3   OH247979   4.171   2.152   4.611 -0.0573  0.1709  0.0457
 8855TIP3    H147980   4.185   2.088   4.681  0.8035  0.0643 -0.2145
 8855TIP3    H247981   4.090   2.124   4.569  0.4480 -0.9046 -0.2306
 8856TIP3   OH247982   0.711   1.292  13.493 -0.0407  0.2199  0.3797
 8856TIP3    H147983   0.762   1.365  13.458 -0.5274  0.3669 -0.0237
 8856TIP3    H247984   0.633   1.332  13.530 -1.1505 -0.2388 -1.3907
 8857TIP3   OH247985   4.486   5.633  15.717  0.8993  0.3999 -0.5600
 8857TIP3    H147986   4.530   5.692  15.778  2.3960  0.4121 -1.5939
 8857TIP3    H247987   4.437   5.691  15.658 -0.3240  0.4008  0.4087
 8858TIP3   OH247988   2.294   4.709   2.961  0.0968  0.8363 -0.4923
 8858TIP3    H147989   2.267   4.710   2.870  0.3882  2.1365 -0.5945
 8858TIP3    H247990   2.298   4.802   2.985  1.3898  0.5632  0.4290
 8859TIP3   OH247991   3.945   4.507  15.639  0.1225  0.0600 -0.2269
 8859TIP3    H147992   3.934   4.467  15.553  0.7034  1.3159 -0.9201
 8859TIP3    H247993   3.926   4.600  15.625 -2.4157 -0.0948  1.5919
 8860TIP3   OH247994   3.110   3.557  11.763  0.3388  0.6495  0.6468
 8860TIP3    H147995   3.142   3.534  11.676 -0.3873 -1.4830  0.8871
 8860TIP3    H247996   3.173   3.516  11.824 -0.3386  0.2591  1.1017
 8861TIP3   OH247997   4.392   1.836  15.751 -0.1669  1.0744  0.2750
 8861TIP3    H147998   4.392   1.794  15.665 -1.5634 -1.1668  1.2623
 8861TIP3    H247999   4.483   1.858  15.768  0.4119 -0.2470 -0.9713
 8862TIP3   OH248000   5.459   6.459   5.633 -0.3356  0.1522 -0.0526
 8862TIP3    H148001   5.436   6.369   5.608 -1.3833  0.2093  0.6664
 8862TIP3    H248002   5.378   6.508   5.626  0.1513  0.9739 -0.0815
 8863TIP3   OH248003   6.558   1.824   4.703  0.3488 -0.0287 -0.1242
 8863TIP3    H148004   6.648   1.797   4.718  0.5413 -0.2887 -1.6046
 8863TIP3    H248005   6.565   1.899   4.643 -0.3134  1.6100  1.7213
 8864TIP3   OH248006   0.305   1.329  17.074  0.2887 -0.0439 -0.1382
 8864TIP3    H148007   0.346   1.280  17.145  2.1032 -1.3312 -1.9594
 8864TIP3    H248008   0.211   1.327  17.095  0.5503 -2.1909  1.1476
 8865TIP3   OH248009   3.404   2.091  12.188  0.6234  0.1895  0.5184
 8865TIP3    H148010   3.447   2.013  12.155 -0.8106 -0.6723  0.6091
 8865TIP3    H248011   3.396   2.148  12.112 -2.4564 -1.6884 -0.7513
 8866TIP3   OH248012   2.017   3.316  14.276  0.0086 -0.1632  0.0581
 8866TIP3    H148013   2.088   3.364  14.318  0.8361 -0.9411 -0.4179
 8866TIP3    H248014   1.950   3.307  14.344  0.6195  0.0351  0.6937
 8867TIP3   OH248015   1.575   5.007  11.762  0.4551 -0.1980 -0.2852
 8867TIP3    H148016   1.523   4.974  11.689 -0.4856  0.2887  0.1455
 8867TIP3    H248017   1.567   5.102  11.756  2.0328 -0.0669 -0.7283
 8868TIP3   OH248018   3.101   1.371   2.888  0.4453  0.3702  0.3047
 8868TIP3    H148019   3.107   1.367   2.983  2.1579  3.1278  0.4162
 8868TIP3    H248020   3.009   1.390   2.870  0.1124 -0.1581  1.3666
 8869TIP3   OH248021   6.262   0.526  11.746  0.0657  0.0975  0.4406
 8869TIP3    H148022   6.332   0.575  11.789  1.1744 -1.2429  0.2097
 8869TIP3    H248023   6.288   0.522  11.654 -0.0870 -0.7723  0.4271
 8870TIP3   OH248024   0.007   0.408  13.277 -0.3342  0.8279 -0.0295
 8870TIP3    H148025  -0.013   0.489  13.323  0.9868  0.6314  0.9427
 8870TIP3    H248026   0.092   0.381  13.312  0.1038 -0.0231 -1.6499
 8871TIP3   OH248027   5.880   4.428  10.264 -0.7166  0.1292 -0.3591
 8871TIP3    H148028   5.895   4.419  10.170 -0.1811  0.6895 -0.3327
 8871TIP3    H248029   5.785   4.439  10.272 -0.8178 -0.3982 -0.7910
 8872TIP3   OH248030   4.181   5.332  16.338 -0.1275 -0.0500  0.2933
 8872TIP3    H148031   4.153   5.288  16.257  0.3552  0.6720 -0.2735
 8872TIP3    H248032   4.099   5.358  16.381 -0.3709  0.1952 -0.3153
 8873TIP3   OH248033   2.824   0.673  11.405  0.6940 -0.2124  0.4775
 8873TIP3    H148034   2.875   0.616  11.347  1.2060  0.0726  0.6464
 8873TIP3    H248035   2.860   0.760  11.391 -0.1966  0.1073  0.0990
 8874TIP3   OH248036   3.383   6.100  12.981 -0.2232  0.0144  0.0937
 8874TIP3    H148037   3.394   6.063  12.893 -3.2385  0.3803 -0.5282
 8874TIP3    H248038   3.440   6.178  12.982 -2.2535  1.6889 -2.6555
 8875TIP3   OH248039   1.289   4.534   6.196 -0.0972  0.3913  0.3842
 8875TIP3    H148040   1.353   4.490   6.142 -0.2480  2.0233 -1.2451
 8875TIP3    H248041   1.338   4.603   6.241 -0.5148  1.1783 -0.3103
 8876TIP3   OH248042   3.814   2.732   4.909 -0.4069  0.4136  0.1278
 8876TIP3    H148043   3.783   2.678   4.982 -0.0319  0.3329  0.2278
 8876TIP3    H248044   3.790   2.821   4.933  0.1603  0.4479  0.5878
 8877TIP3   OH248045   1.850   4.426   0.797 -0.0793  0.4414  0.0462
 8877TIP3    H148046   1.809   4.483   0.732 -1.8801 -1.5237 -0.6710
 8877TIP3    H248047   1.807   4.449   0.879 -2.9942 -1.6986 -0.7205
 8878TIP3   OH248048   3.545   4.056  16.096 -0.6607  0.2239 -0.3569
 8878TIP3    H148049   3.462   4.009  16.085 -0.4152  0.1601 -2.1888
 8878TIP3    H248050   3.528   4.118  16.167 -2.6747  1.0188 -1.4433
 8879TIP3   OH248051   0.715   6.500   4.300 -0.1206  0.1984  0.5026
 8879TIP3    H148052   0.667   6.577   4.329 -1.3436 -0.8307  1.3329
 8879TIP3    H248053   0.806   6.530   4.291 -0.6389  1.8301  0.3223
 8880TIP3   OH248054   2.496   0.582  12.003 -0.3951  0.1506 -0.3216
 8880TIP3    H148055   2.551   0.658  11.986 -2.9106  1.9331 -1.1256
 8880TIP3    H248056   2.534   0.541  12.080  1.9475  1.2803 -0.7905
 8881TIP3   OH248057   4.252   3.521   3.417 -0.0633  0.1702  0.5177
 8881TIP3    H148058   4.165   3.550   3.389 -1.0430 -1.4396  1.7078
 8881TIP3    H248059   4.311   3.552   3.348 -1.6340  0.8473 -0.5906
 8882TIP3   OH248060   4.565   0.471   3.303 -0.4182 -0.4288  0.3508
 8882TIP3    H148061   4.653   0.491   3.335 -0.3244 -0.6775  0.2523
 8882TIP3    H248062   4.509   0.482   3.380 -0.6468  1.9471 -0.0839
 8883TIP3   OH248063   0.766   0.766  12.173 -0.3002 -0.0287 -0.2625
 8883TIP3    H148064   0.710   0.703  12.218 -1.4519  1.2059  0.0892
 8883TIP3    H248065   0.716   0.847  12.172  0.9231  0.7612 -1.1768
 8884TIP3   OH248066   1.120   5.408  13.992 -0.0549 -0.4801 -0.1599
 8884TIP3    H148067   1.180   5.481  14.008 -1.9563  0.6345  2.6942
 8884TIP3    H248068   1.058   5.440  13.928 -0.1284 -0.0537  0.1234
 8885TIP3   OH248069   6.794   4.425  11.530 -0.2296  0.2367  1.0060
 8885TIP3    H148070   6.709   4.411  11.571 -0.1432  1.1319  1.5103
 8885TIP3    H248071   6.811   4.344  11.482 -0.7070 -0.5166  2.0710
 8886TIP3   OH248072   5.938   1.549  15.888  0.3180 -0.3018 -0.3209
 8886TIP3    H148073   6.010   1.515  15.941  2.7033  1.8546 -1.9652
 8886TIP3    H248074   5.970   1.543  15.798 -1.5643  0.7374 -1.1035
 8887TIP3   OH248075   6.603   1.585  12.181 -0.6884 -0.2526  0.2298
 8887TIP3    H148076   6.562   1.539  12.108 -0.2963  1.2663 -1.0072
 8887TIP3    H248077   6.534   1.643  12.214 -1.7493 -2.8102  2.9194
 8888TIP3   OH248078   1.002   6.313  11.362 -0.5639  0.3605  0.1077
 8888TIP3    H148079   1.024   6.220  11.355 -2.1569  0.0040 -0.5219
 8888TIP3    H248080   1.057   6.345  11.433 -1.2391 -1.4769  1.5476
 8889TIP3   OH248081   4.027   0.762  11.105  0.1126  0.0060 -0.1303
 8889TIP3    H148082   4.059   0.672  11.098  0.5913  0.1251  0.4252
 8889TIP3    H248083   3.934   0.755  11.084 -0.2092 -0.8899  1.3514
 8890TIP3   OH248084   5.928   2.118  11.194  0.1185 -0.4699  0.0119
 8890TIP3    H148085   5.839   2.096  11.222  0.0060  1.1636  1.0558
 8890TIP3    H248086   5.984   2.083  11.264  0.1093  0.4686  0.5014
 8891TIP3   OH248087   3.863   1.264   1.145 -0.4964 -0.1603 -0.0829
 8891TIP3    H148088   3.778   1.300   1.119 -0.1983 -0.3287 -1.3562
 8891TIP3    H248089   3.926   1.306   1.087  0.4962  0.9262  1.6715
 8892TIP3   OH248090   2.399   1.024   0.327 -0.5579 -0.0420 -0.4458
 8892TIP3    H148091   2.485   1.050   0.361  0.0237 -1.1466 -1.0441
 8892TIP3    H248092   2.340   1.037   0.401 -0.0232  1.4341 -0.2379
 8893TIP3   OH248093   0.365   6.690   1.691 -0.8072  0.3017  0.3696
 8893TIP3    H148094   0.392   6.665   1.779 -0.7420  2.3470  0.9880
 8893TIP3    H248095   0.274   6.717   1.700  0.0492  3.5236  0.5613
 8894TIP3   OH248096   4.390   1.342  11.030  0.0678 -0.5559 -0.3008
 8894TIP3    H148097   4.415   1.250  11.024  1.9298 -0.2363  1.3490
 8894TIP3    H248098   4.357   1.364  10.943  1.9573 -2.1472 -1.4983
 8895TIP3   OH248099   1.832   5.625   5.372 -0.3539  0.2942  0.4213
 8895TIP3    H148100   1.799   5.617   5.462  1.4398  1.0163  1.2042
 8895TIP3    H248101   1.887   5.703   5.374  0.6649 -0.3380 -1.0089
 8896TIP3   OH248102   0.732   1.197  15.985  0.1114 -0.0247 -0.2640
 8896TIP3    H148103   0.722   1.289  16.011  1.0645 -0.1424  0.6054
 8896TIP3    H248104   0.652   1.176  15.937  1.2653  2.2582 -3.5294
 8897TIP3   OH248105   0.583   2.228   3.506  0.0983  0.0813 -0.4853
 8897TIP3    H148106   0.542   2.260   3.425 -0.3451 -0.6857 -0.5675
 8897TIP3    H248107   0.620   2.143   3.482  1.4586  0.6034 -0.3214
 8898TIP3   OH248108   5.733   2.482  13.901  0.3985  0.5903  0.1175
 8898TIP3    H148109   5.707   2.525  13.820  1.1310  2.1551  0.6570
 8898TIP3    H248110   5.819   2.445  13.882 -0.9047 -2.2089 -0.8452
 8899TIP3   OH248111   3.471   4.705   0.238  0.0443 -0.2760  0.3761
 8899TIP3    H148112   3.522   4.743   0.309 -1.2440 -0.6630  1.5575
 8899TIP3    H248113   3.534   4.689   0.168  0.9534  2.2792  0.5095
 8900TIP3   OH248114   6.060   4.609  14.089  0.5438  1.3289 -0.3860
 8900TIP3    H148115   6.151   4.603  14.060  0.5007 -0.0632 -0.2825
 8900TIP3    H248116   6.030   4.518  14.096  0.1284  1.5771  2.6363
 8901TIP3   OH248117   3.355   0.493  14.359  0.0780  0.5449  0.2424
 8901TIP3    H148118   3.368   0.410  14.405  0.6848 -0.5625 -1.8038
 8901TIP3    H248119   3.443   0.528  14.347 -0.0121  0.4544 -0.6992
 8902TIP3   OH248120   5.345   0.167   2.195 -0.3308 -0.1394 -0.0282
 8902TIP3    H148121   5.405   0.111   2.245 -0.1719 -0.1636 -0.2445
 8902TIP3    H248122   5.297   0.106   2.139  0.1951 -0.0126 -0.6293
 8903TIP3   OH248123   5.215   3.854  11.378 -0.5453  0.4209  0.0395
 8903TIP3    H148124   5.154   3.895  11.317  0.3265 -0.5364 -1.5603
 8903TIP3    H248125   5.279   3.810  11.321  0.9191  0.3583  1.6542
 8904TIP3   OH248126   3.885   6.579  15.639  0.1971  0.4918 -0.5695
 8904TIP3    H148127   3.960   6.544  15.592 -0.7042 -0.7345 -1.1651
 8904TIP3    H248128   3.811   6.524  15.611 -0.7483  1.0456  0.7119
 8905TIP3   OH248129   1.088   6.520   5.246  0.1849 -0.6088  0.1887
 8905TIP3    H148130   1.027   6.446   5.255  0.1480 -0.5071  0.8448
 8905TIP3    H248131   1.058   6.566   5.168  1.5664 -2.5439 -1.6011
 8906TIP3   OH248132   3.358   0.700  16.903  0.4676 -0.0919  0.4793
 8906TIP3    H148133   3.409   0.644  16.962 -0.6512 -0.6163  0.9746
 8906TIP3    H248134   3.268   0.691  16.933 -0.1905 -0.5732 -1.4684
 8907TIP3   OH248135   4.149   4.148   5.210 -0.3344  0.7764  0.4762
 8907TIP3    H148136   4.214   4.199   5.160 -0.2380  0.4225  0.2371
 8907TIP3    H248137   4.069   4.156   5.159 -0.0674 -0.1556 -0.1119
 8908TIP3   OH248138   1.840   6.234  13.604  0.3538  0.2808 -0.0951
 8908TIP3    H148139   1.922   6.256  13.561  1.2267  0.5666  1.6051
 8908TIP3    H248140   1.803   6.319  13.629 -1.3500  0.2735 -2.2817
 8909TIP3   OH248141   3.055   2.265  11.111  0.4594  0.0293  0.0493
 8909TIP3    H148142   3.125   2.246  11.048 -0.6275 -0.2415 -1.1161
 8909TIP3    H248143   2.979   2.218  11.078 -0.3179  0.3797  1.2461
 8910TIP3   OH248144   2.687   3.704  11.674 -0.1789 -0.0024 -0.0731
 8910TIP3    H148145   2.670   3.610  11.679 -2.9754  0.2694 -1.8796
 8910TIP3    H248146   2.623   3.743  11.733  1.7182  0.7966  1.5465
 8911TIP3   OH248147   1.608   4.247  14.992  0.0483 -0.2125 -0.0887
 8911TIP3    H148148   1.701   4.248  14.968 -0.0168  0.5318 -0.3155
 8911TIP3    H248149   1.594   4.159  15.026  0.6501 -0.5882 -0.7812
 8912TIP3   OH248150   5.999   0.789   0.075  0.2797  0.5550 -1.0818
 8912TIP3    H148151   6.070   0.782   0.139  0.4563 -2.3847 -1.4688
 8912TIP3    H248152   5.923   0.816   0.128  0.6098 -1.0083  0.2803
 8913TIP3   OH248153   3.595   4.867  16.621  0.3639  0.3843 -0.0547
 8913TIP3    H148154   3.526   4.924  16.654 -1.0831 -1.6027  0.5427
 8913TIP3    H248155   3.600   4.887  16.527  0.8207  2.3498  0.3393
 8914TIP3   OH248156   3.126   3.352   6.020  0.1077  0.2243 -0.0556
 8914TIP3    H148157   3.053   3.377   6.075 -0.2584 -1.4688  0.3017
 8914TIP3    H248158   3.110   3.259   6.000  2.0680 -0.1515 -0.0776
 8915TIP3   OH248159   5.749   0.590   3.062 -0.0646  0.0181  0.2237
 8915TIP3    H148160   5.750   0.499   3.091 -0.2403 -0.2698 -0.6494
 8915TIP3    H248161   5.798   0.590   2.980  0.2879  0.7878  0.4187
 8916TIP3   OH248162   4.491   1.501   0.748  0.2607  0.2106  0.0944
 8916TIP3    H148163   4.556   1.559   0.707 -1.1457  1.3461 -0.6352
 8916TIP3    H248164   4.415   1.505   0.690 -0.2141 -1.6930  0.5207
 8917TIP3   OH248165   1.606   4.008   0.608 -0.2598 -0.7744 -0.2594
 8917TIP3    H148166   1.691   4.051   0.601 -0.0358 -1.3421 -1.2412
 8917TIP3    H248167   1.591   3.998   0.702 -0.1810  1.1448 -0.0161
 8918TIP3   OH248168   6.510   0.543   6.038 -0.2350  0.6528  0.5851
 8918TIP3    H148169   6.510   0.638   6.024 -1.7537  0.5021 -0.6789
 8918TIP3    H248170   6.418   0.519   6.037  0.1740 -1.0479 -0.6219
 8919TIP3   OH248171   5.651   2.015  17.068 -0.0703  0.0674 -0.3603
 8919TIP3    H148172   5.634   2.087  17.007  0.5511 -0.2176 -0.8799
 8919TIP3    H248173   5.581   1.952  17.051  0.5555 -0.3748 -1.3561
 8920TIP3   OH248174   0.246   0.176   5.231 -0.1542 -0.0913 -0.4520
 8920TIP3    H148175   0.196   0.247   5.271  0.5555  0.4172 -0.4309
 8920TIP3    H248176   0.318   0.221   5.186  0.1475 -0.7841 -0.6683
 8921TIP3   OH248177   0.954   5.034   0.026 -0.5766  0.3111  0.5375
 8921TIP3    H148178   0.922   5.042  -0.064 -0.3501 -0.4220  0.3820
 8921TIP3    H248179   1.023   4.968   0.020 -1.6504 -0.9569  1.5054
 8922TIP3   OH248180   0.667   6.661  16.281  0.0076  0.0884 -0.0572
 8922TIP3    H148181   0.705   6.717  16.213 -0.4172  1.2703  0.6505
 8922TIP3    H248182   0.734   6.655  16.348  0.0161 -0.1966 -0.0884
 8923TIP3   OH248183   5.343   6.800  16.427 -0.0171  0.1499  0.3678
 8923TIP3    H148184   5.395   6.834  16.354 -1.1370  1.5702  0.1906
 8923TIP3    H248185   5.263   6.766  16.386  0.7328 -2.1315  0.6240
 8924TIP3   OH248186   1.349   0.909  12.946 -0.2099  0.6516 -0.1699
 8924TIP3    H148187   1.311   0.948  12.867 -0.4136  0.0550 -0.3785
 8924TIP3    H248188   1.273   0.890  13.002 -0.0603  1.1370  0.2008
 8925TIP3   OH248189   5.992   5.271   1.154  0.0618 -0.3460 -0.2676
 8925TIP3    H148190   5.975   5.347   1.209  2.3944  0.7672 -0.9215
 8925TIP3    H248191   6.074   5.234   1.189 -0.5098 -1.9822 -0.5792
 8926TIP3   OH248192   0.568   6.423   3.110 -0.1146  0.0722 -0.1405
 8926TIP3    H148193   0.538   6.406   3.199 -0.5172 -0.8528 -0.4367
 8926TIP3    H248194   0.663   6.432   3.118 -0.1482 -0.0020  0.3860
 8927TIP3   OH248195   5.098   3.893  16.805  0.3701  0.8540  0.0507
 8927TIP3    H148196   5.177   3.844  16.780 -0.5568 -0.1343 -1.1069
 8927TIP3    H248197   5.101   3.896  16.900  0.6310 -1.2179  0.1490
 8928TIP3   OH248198   3.865   6.770  11.994  0.1453  0.0488  0.1355
 8928TIP3    H148199   3.958   6.754  12.004  0.0453 -1.1926 -0.7013
 8928TIP3    H248200   3.860   6.855  11.950  0.9119 -0.2117 -0.4712
 8929TIP3   OH248201   1.727   2.398  16.395  0.5479 -0.2663  0.3382
 8929TIP3    H148202   1.775   2.315  16.395  0.6203 -0.2295  1.0438
 8929TIP3    H248203   1.697   2.408  16.485  1.4263  0.9875  0.5150
 8930TIP3   OH248204   4.812   4.819   6.513 -0.0838 -0.1238 -0.4451
 8930TIP3    H148205   4.897   4.855   6.488  0.4517 -1.0673 -0.0403
 8930TIP3    H248206   4.804   4.739   6.461 -1.4169  0.7086 -1.6091
 8931TIP3   OH248207   5.563   5.157  13.491  0.2334  0.2310  0.5759
 8931TIP3    H148208   5.507   5.151  13.413 -1.3065 -1.8078  1.7264
 8931TIP3    H248209   5.645   5.196  13.459 -1.3179  2.1198 -1.4557
 8932TIP3   OH248210   6.641   5.014  12.260 -0.1925  0.3847 -0.3378
 8932TIP3    H148211   6.643   5.067  12.181  1.2076  1.0470  0.0949
 8932TIP3    H248212   6.652   4.924  12.230  1.2537  0.7083 -0.8797
 8933TIP3   OH248213   6.348   5.282   5.407  0.1554  0.2504  0.3475
 8933TIP3    H148214   6.382   5.194   5.392 -0.6503  0.0242 -0.2248
 8933TIP3    H248215   6.392   5.311   5.487 -0.4317 -1.1198  1.2049
 8934TIP3   OH248216   2.842   1.792   5.874 -0.0439  0.8573  0.4285
 8934TIP3    H148217   2.919   1.784   5.818 -0.1829  1.6257  0.1192
 8934TIP3    H248218   2.869   1.850   5.945  0.4780 -0.9664  1.8040
 8935TIP3   OH248219   2.213   4.663   3.781 -0.2093 -0.1431 -0.1284
 8935TIP3    H148220   2.239   4.751   3.750 -1.8568 -0.4258 -2.5670
 8935TIP3    H248221   2.149   4.680   3.850  1.4307  0.5243  1.2997
 8936TIP3   OH248222   5.328   1.201   2.131  0.0517 -0.5216 -0.0485
 8936TIP3    H148223   5.374   1.265   2.077 -1.4564  0.3555 -0.3443
 8936TIP3    H248224   5.359   1.217   2.220  2.1662 -1.6310 -0.5060
 8937TIP3   OH248225   1.418   5.900  13.123  0.2551 -0.2299 -0.5077
 8937TIP3    H148226   1.369   5.822  13.096 -0.5344 -0.3942  1.2505
 8937TIP3    H248227   1.508   5.870  13.132  0.1494 -0.6784 -0.8959
 8938TIP3   OH248228   6.451   6.047  13.932 -0.2650 -0.1416  0.5824
 8938TIP3    H148229   6.468   6.061  13.839 -2.2832  1.0451  0.3481
 8938TIP3    H248230   6.442   6.135  13.969  0.2154 -0.5996  1.8732
 8939TIP3   OH248231   2.266   2.317  13.163  0.3073  0.1306  0.5767
 8939TIP3    H148232   2.347   2.342  13.206  1.3187 -0.6935 -0.7772
 8939TIP3    H248233   2.203   2.306  13.235  0.9723  2.1944  1.5299
 8940TIP3   OH248234   1.188   4.530  12.259 -0.2732  0.5417 -0.3318
 8940TIP3    H148235   1.239   4.591  12.312 -1.7504 -0.2381  2.1461
 8940TIP3    H248236   1.097   4.552  12.278 -0.8567 -2.2200  0.4393
 8941TIP3   OH248237   2.057   0.192  16.696  0.1497 -0.1203  0.3333
 8941TIP3    H148238   2.137   0.140  16.698  0.0877 -0.2281 -0.0034
 8941TIP3    H248239   2.070   0.258  16.764  0.8547  0.3372 -0.2201
 8942TIP3   OH248240   5.033   6.225   2.432  0.3762  0.1250 -0.4533
 8942TIP3    H148241   5.051   6.213   2.339 -2.5910 -4.5888 -0.7842
 8942TIP3    H248242   4.959   6.285   2.435  0.0238 -0.2521 -1.2408
 8943TIP3   OH248243   6.524   0.438   5.754 -0.7451 -0.5986  0.5050
 8943TIP3    H148244   6.509   0.447   5.848 -0.0085 -3.3833  0.9831
 8943TIP3    H248245   6.477   0.358   5.729 -0.2636 -0.3656 -1.3417
 8944TIP3   OH248246   4.607   5.337  15.707 -0.2743 -0.1744  0.1447
 8944TIP3    H148247   4.544   5.401  15.674  0.6938  1.5290  1.4578
 8944TIP3    H248248   4.680   5.340  15.645 -0.3641 -0.2491  0.0346
 8945TIP3   OH248249   0.783   5.303  16.203  0.0497 -0.7281 -0.4169
 8945TIP3    H148250   0.703   5.344  16.172 -1.0604 -0.9424  1.9285
 8945TIP3    H248251   0.768   5.289  16.296  2.3049 -2.0159 -0.1741
 8946TIP3   OH248252   3.655   2.970  15.185  0.5983 -0.2378 -0.0305
 8946TIP3    H148253   3.645   3.065  15.179 -0.4494 -0.1986  1.6589
 8946TIP3    H248254   3.607   2.946  15.264  0.7767 -2.1940 -0.4659
 8947TIP3   OH248255   1.649   2.782   3.791 -0.1826  0.3645  0.9563
 8947TIP3    H148256   1.728   2.729   3.783  0.4784  1.6004 -2.7221
 8947TIP3    H248257   1.671   2.851   3.853  0.5914 -0.8424  2.0822
 8948TIP3   OH248258   0.944   2.109   4.060 -0.2774  0.3295  0.1929
 8948TIP3    H148259   0.996   2.130   3.982  0.5113 -0.5879  0.4450
 8948TIP3    H248260   1.007   2.109   4.131 -0.9940  1.1581  0.8527
 8949TIP3   OH248261   2.672   3.002   1.842 -0.0129  0.6082 -0.0847
 8949TIP3    H148262   2.662   3.097   1.847  1.0216  0.7195  0.1953
 8949TIP3    H248263   2.672   2.983   1.748 -2.9522  0.5195 -0.1752
 8950TIP3   OH248264   1.961   1.487   0.810  0.7625 -0.5404  0.2469
 8950TIP3    H148265   1.910   1.549   0.758 -0.1375 -0.6992  0.9223
 8950TIP3    H248266   1.976   1.531   0.893  1.5614 -0.5767  0.1300
 8951TIP3   OH248267   5.347   1.452  16.390 -0.1282 -0.9274  0.2470
 8951TIP3    H148268   5.361   1.406  16.307  1.4883 -1.1662  0.6010
 8951TIP3    H248269   5.422   1.512  16.396  0.0344 -1.2383  1.7270
 8952TIP3   OH248270   1.706   1.986  14.035  0.6009  0.1254  0.2712
 8952TIP3    H148271   1.756   1.905  14.031  1.3155  0.5941 -2.0998
 8952TIP3    H248272   1.769   2.052  14.065  0.9995  0.4088 -1.1277
 8953TIP3   OH248273   2.705   2.158   1.600 -0.0386 -0.9979  0.2994
 8953TIP3    H148274   2.776   2.179   1.662  0.5923  0.0441 -0.7180
 8953TIP3    H248275   2.707   2.063   1.593  0.0404 -1.1237  1.6717
 8954TIP3   OH248276   5.550   5.497  13.555  0.2791  0.1972  0.0519
 8954TIP3    H148277   5.513   5.585  13.548  0.5006  0.2406 -0.6044
 8954TIP3    H248278   5.543   5.460  13.467 -0.7007 -0.8107  0.5176
 8955TIP3   OH248279   5.974   2.572   5.086  0.3210  0.6500 -0.6287
 8955TIP3    H148280   5.901   2.540   5.138 -2.0405  3.7935 -1.6674
 8955TIP3    H248281   5.990   2.503   5.022  0.5027 -1.4809  1.5926
 8956TIP3   OH248282   3.035   0.696   0.924  0.2461 -0.1754  0.2414
 8956TIP3    H148283   3.110   0.636   0.926  0.3977  0.0204  0.4522
 8956TIP3    H248284   2.959   0.638   0.920  0.3857 -0.3928  0.5857
 8957TIP3   OH248285   1.443   0.096  16.742  0.3709  0.3192 -0.0799
 8957TIP3    H148286   1.486   0.090  16.657 -1.8669 -1.2882 -1.2270
 8957TIP3    H248287   1.511   0.073  16.805  1.6070 -0.5241 -1.6372
 8958TIP3   OH248288   6.212   0.047  14.398 -0.1670  0.1059 -0.1999
 8958TIP3    H148289   6.220   0.084  14.486 -0.0330  2.2595 -1.0472
 8958TIP3    H248290   6.167  -0.036  14.411 -0.8391  0.7188  1.8101
 8959TIP3   OH248291   1.608   3.056  12.063 -0.6947  0.4239 -0.4111
 8959TIP3    H148292   1.650   3.046  11.978 -0.2993 -0.2233 -0.1471
 8959TIP3    H248293   1.657   2.998  12.122 -1.1629  0.6150  0.1866
 8960TIP3   OH248294   5.689   1.540   5.706  0.0143  0.5557 -0.3205
 8960TIP3    H148295   5.717   1.573   5.621  4.2480 -0.7690  0.2816
 8960TIP3    H248296   5.694   1.444   5.697  0.8002  0.3903  1.3776
 8961TIP3   OH248297   5.159   0.811   3.528 -0.0827 -0.0494  0.5604
 8961TIP3    H148298   5.157   0.906   3.533  1.3722  0.0597 -0.4745
 8961TIP3    H248299   5.091   0.788   3.465 -1.2434  0.1852  1.6709
 8962TIP3   OH248300   6.216   0.275   0.315 -0.0818 -0.0335 -0.0206
 8962TIP3    H148301   6.132   0.235   0.337 -0.4228  0.4817 -0.3498
 8962TIP3    H248302   6.241   0.323   0.393  0.6037 -1.3139  0.5759
 8963TIP3   OH248303   5.939   0.081  11.281  1.0448 -0.2516  0.3338
 8963TIP3    H148304   5.959   0.175  11.285 -2.1728  0.5259  0.7236
 8963TIP3    H248305   5.913   0.066  11.190 -2.4805  0.3255  1.0999
 8964TIP3   OH248306   6.106   6.744   1.704 -0.7751  0.1072 -0.5177
 8964TIP3    H148307   6.096   6.703   1.618 -1.6759  0.3743 -0.5507
 8964TIP3    H248308   6.149   6.827   1.686  1.6898 -1.0451 -0.3801
 8965TIP3   OH248309   5.701   3.225   1.654  0.2091 -0.2425  0.2111
 8965TIP3    H148310   5.716   3.137   1.621  2.3597 -0.5577  1.8319
 8965TIP3    H248311   5.620   3.218   1.705  0.0223 -1.1063 -0.1804
 8966TIP3   OH248312   1.785   2.024  10.930 -0.1349 -0.4786  0.2602
 8966TIP3    H148313   1.818   1.949  10.879  2.3984  0.1081  0.8911
 8966TIP3    H248314   1.795   2.099  10.871 -1.0854 -0.3825  0.2136
 8967TIP3   OH248315   4.528   5.623  14.985 -0.3775  0.0367  0.3708
 8967TIP3    H148316   4.541   5.666  15.070 -0.5847  0.5818  0.1316
 8967TIP3    H248317   4.483   5.542  15.006 -0.8645  0.3959  0.7392
 8968TIP3   OH248318   1.498   2.961  11.744  0.1231 -0.4488  0.0340
 8968TIP3    H148319   1.584   2.989  11.774  1.5909 -3.5536 -0.9574
 8968TIP3    H248320   1.508   2.950  11.649 -1.4881 -0.5785 -0.1506
 8969TIP3   OH248321   2.049   5.017  11.859 -0.5866 -0.6786 -0.0117
 8969TIP3    H148322   1.988   4.947  11.879 -0.4720 -1.0667 -0.9838
 8969TIP3    H248323   2.082   4.997  11.771 -0.3249  0.4224 -0.1850
 8970TIP3   OH248324   1.321   2.916   6.479  0.6743  0.5177  0.0369
 8970TIP3    H148325   1.388   2.933   6.413 -0.7979 -3.0474 -2.7456
 8970TIP3    H248326   1.260   2.990   6.473  1.4084  1.0158 -1.4780
 8971TIP3   OH248327   0.062   0.803  12.131 -0.1477 -0.1501 -0.1284
 8971TIP3    H148328   0.098   0.748  12.062 -0.5671  0.6220 -0.9843
 8971TIP3    H248329  -0.015   0.844  12.092 -0.6775 -0.0722  0.9589
 8972TIP3   OH248330   3.241   0.951  17.020 -0.2329 -0.3592  0.1081
 8972TIP3    H148331   3.308   0.919  16.960 -0.0565 -0.8159  0.5415
 8972TIP3    H248332   3.158   0.936  16.974 -0.0075  0.9602 -0.7775
 8973TIP3   OH248333   5.153   4.476   0.930 -0.3502 -0.5962  0.1940
 8973TIP3    H148334   5.150   4.526   1.011 -0.2358  0.6536 -0.5445
 8973TIP3    H248335   5.063   4.446   0.917 -0.6267  0.2239  0.1667
 8974TIP3   OH248336   2.414   2.858  10.792 -0.4642 -0.8065  0.4590
 8974TIP3    H148337   2.375   2.810  10.719 -0.5206 -2.8964  1.7604
 8974TIP3    H248338   2.506   2.831  10.792  0.1629  1.1694 -0.3228
 8975TIP3   OH248339   0.797   6.533  10.976  0.2250  0.0050  0.7087
 8975TIP3    H148340   0.797   6.486  10.892  1.6772  0.4785  0.4237
 8975TIP3    H248341   0.872   6.592  10.970 -0.6457  1.2545  1.6836
 8976TIP3   OH248342   3.937   1.105  12.063  0.8263  0.7473  0.1736
 8976TIP3    H148343   3.854   1.058  12.057  0.5373  1.4170 -1.8800
 8976TIP3    H248344   3.913   1.192  12.097  0.7704  0.7439  0.1431
 8977TIP3   OH248345   1.949   5.385   5.423 -0.1479 -0.5682 -0.5039
 8977TIP3    H148346   1.904   5.462   5.390 -2.2765 -0.6885  1.7596
 8977TIP3    H248347   1.937   5.319   5.355  1.9662  1.0729 -2.6107
 8978TIP3   OH248348   1.515   3.183   4.428 -0.2327 -0.1474 -0.4996
 8978TIP3    H148349   1.449   3.147   4.369  0.4072 -0.1281 -1.2305
 8978TIP3    H248350   1.563   3.107   4.460 -2.2847 -0.4865  2.1789
 8979TIP3   OH248351   3.240   4.446   2.961 -0.1403  0.3346 -0.7474
 8979TIP3    H148352   3.284   4.438   3.045 -0.8929  0.5190 -0.3298
 8979TIP3    H248353   3.147   4.444   2.982 -0.4077 -1.9471 -1.7788
 8980TIP3   OH248354   2.030   4.601   6.217 -0.2002  0.0622 -0.2929
 8980TIP3    H148355   2.025   4.691   6.185  1.4445  0.3525  0.2021
 8980TIP3    H248356   2.108   4.565   6.176  1.0188 -0.0886  1.9758
 8981TIP3   OH248357   1.091   6.376   5.813 -0.5580  0.2914 -0.0395
 8981TIP3    H148358   1.098   6.350   5.721 -0.1970  1.0468 -0.2334
 8981TIP3    H248359   1.081   6.294   5.860 -3.7925 -0.0002 -0.9933
 8982TIP3   OH248360   4.142   0.145   6.169  0.0296  0.0827  0.1998
 8982TIP3    H148361   4.084   0.157   6.244 -0.1634  0.0949  0.0487
 8982TIP3    H248362   4.105   0.070   6.122 -1.6338  1.8934 -1.5601
 8983TIP3   OH248363   0.840   1.915  11.123 -0.4794  0.4311 -0.0954
 8983TIP3    H148364   0.919   1.927  11.070  0.9051  1.8528  2.1083
 8983TIP3    H248365   0.787   1.853  11.074  2.7560 -1.9319 -0.9382
 8984TIP3   OH248366   4.107   1.946   4.107 -0.1381  0.2046  0.5711
 8984TIP3    H148367   4.192   1.910   4.081 -0.2429 -0.9176  1.6712
 8984TIP3    H248368   4.049   1.925   4.034  0.7927  2.2372 -0.8370
 8985TIP3   OH248369   1.826   2.802   1.265  0.3969  0.3349  0.3110
 8985TIP3    H148370   1.787   2.729   1.216  2.9382 -0.2027 -1.1002
 8985TIP3    H248371   1.764   2.873   1.254 -0.8032 -0.8067 -0.7386
 8986TIP3   OH248372   4.970   2.090   5.455  0.2467 -0.5118 -0.0001
 8986TIP3    H148373   5.056   2.131   5.460  0.0308 -0.1902  1.4813
 8986TIP3    H248374   4.922   2.124   5.531 -0.5333 -2.1586  0.2876
 8987TIP3   OH248375   6.151   3.407  11.634  0.2914 -0.1254 -0.1012
 8987TIP3    H148376   6.112   3.445  11.555 -1.1470 -0.8764  0.2144
 8987TIP3    H248377   6.175   3.483  11.687  1.0981  0.3802 -1.1669
 8988TIP3   OH248378   0.662   0.598   2.053 -0.5003  0.4072 -0.4494
 8988TIP3    H148379   0.755   0.579   2.061 -0.5263 -0.5471 -1.8959
 8988TIP3    H248380   0.658   0.684   2.012 -0.2683  0.7286  0.2006
 8989TIP3   OH248381   4.984   6.028   3.595  0.2675 -0.2892  0.6475
 8989TIP3    H148382   5.001   6.087   3.521  0.3386 -1.7267 -0.5231
 8989TIP3    H248383   4.965   6.087   3.668 -0.0973  1.1828 -0.5728
 8990TIP3   OH248384   5.573   5.325   4.202 -0.2681  0.8611 -0.2574
 8990TIP3    H148385   5.586   5.410   4.244 -0.6621  0.8478 -0.1060
 8990TIP3    H248386   5.542   5.268   4.272  2.2306 -0.0482  0.2000
 8991TIP3   OH248387   3.628   0.998   1.642 -0.1737 -0.7736 -0.6248
 8991TIP3    H148388   3.657   0.907   1.654  0.9773 -0.6987 -2.4648
 8991TIP3    H248389   3.570   0.995   1.567  1.9940  0.3435 -2.4498
 8992TIP3   OH248390   0.719   0.019  16.025  0.6647  0.3486  0.2565
 8992TIP3    H148391   0.788   0.044  15.964 -0.6808  1.6145 -0.8315
 8992TIP3    H248392   0.697   0.100  16.071 -1.1571  0.3858 -0.5826
 8993TIP3   OH248393   6.371   2.805   5.611  0.3500 -0.5845  0.3618
 8993TIP3    H148394   6.309   2.779   5.543  1.6162 -0.2561 -0.9723
 8993TIP3    H248395   6.452   2.826   5.564  1.3360 -0.5056  1.9904
 8994TIP3   OH248396   5.715   5.366  10.666 -0.8961 -0.2092 -0.3885
 8994TIP3    H148397   5.754   5.392  10.582 -1.4394 -1.3187 -1.0016
 8994TIP3    H248398   5.692   5.449  10.708  0.7740  0.4274 -0.6370
 8995TIP3   OH248399   0.279   4.768   2.143  0.0824  0.0986  0.0174
 8995TIP3    H148400   0.208   4.829   2.165  0.0369 -0.0426  0.2647
 8995TIP3    H248401   0.309   4.796   2.057  1.2749  1.5906  0.8937
 8996TIP3   OH248402   0.269   2.909  15.599  0.5559 -0.0604  0.2153
 8996TIP3    H148403   0.238   2.944  15.516  2.1999  1.7589  0.2987
 8996TIP3    H248404   0.204   2.843  15.623 -1.4648  1.3117 -1.1316
 8997TIP3   OH248405   4.221   2.457  13.546 -0.1781  0.3190  0.6659
 8997TIP3    H148406   4.292   2.427  13.603 -1.5623 -0.0131  2.3226
 8997TIP3    H248407   4.179   2.528  13.596 -1.1303  0.3652 -0.1615
 8998TIP3   OH248408   4.488   4.025   1.786  0.0107 -0.5833 -0.0645
 8998TIP3    H148409   4.432   3.950   1.766  0.8997 -1.0146 -1.0322
 8998TIP3    H248410   4.427   4.096   1.808 -0.8712 -1.2788 -0.2261
 8999TIP3   OH248411   1.142   2.470   1.535 -0.2929  0.1696 -0.2359
 8999TIP3    H148412   1.051   2.484   1.508  0.0293  0.0741 -1.4311
 8999TIP3    H248413   1.165   2.386   1.495  0.2171  0.0329  0.3450
 9000TIP3   OH248414   5.537   3.428   1.752  0.1022 -0.1328  0.4950
 9000TIP3    H148415   5.603   3.432   1.683  0.2617 -2.4952  0.4443
 9000TIP3    H248416   5.569   3.486   1.820  1.6916 -0.4170  0.0229
 9001TIP3   OH248417   6.676   3.881   1.418  0.4367  0.1913  0.2859
 9001TIP3    H148418   6.752   3.856   1.365  0.6157  0.7582  0.2642
 9001TIP3    H248419   6.711   3.896   1.506  0.0669 -1.1752  0.6855
 9002TIP3   OH248420   1.719   2.466  12.036 -0.2380  0.1066 -0.6804
 9002TIP3    H148421   1.729   2.374  12.015  1.2589  0.6851 -2.8082
 9002TIP3    H248422   1.767   2.478  12.118 -1.7946 -1.2531  0.4830
 9003TIP3   OH248423   3.318   4.023  12.262  0.6613  0.2340 -0.1892
 9003TIP3    H148424   3.287   3.976  12.339  0.6797  0.8184  0.1800
 9003TIP3    H248425   3.388   3.968  12.226  2.4515  1.1295  1.6825
 9004TIP3   OH248426   0.451   1.365  13.597  0.5371 -0.3123 -0.0747
 9004TIP3    H148427   0.469   1.275  13.624  1.6597 -0.3324 -0.8345
 9004TIP3    H248428   0.392   1.399  13.664 -1.8463 -2.3518 -0.9866
 9005TIP3   OH248429   4.010   3.959   5.395  0.0918  0.3777  0.0822
 9005TIP3    H148430   4.044   3.920   5.475  0.6786  0.1667 -0.2586
 9005TIP3    H248431   4.080   4.017   5.365 -0.1595  0.5271 -0.2265
 9006TIP3   OH248432   6.122   3.687   1.801  0.1213  1.0541  0.1173
 9006TIP3    H148433   6.089   3.704   1.713 -0.9220  1.5005  0.5853
 9006TIP3    H248434   6.123   3.591   1.808  1.1563  0.9808 -0.7101
 9007TIP3   OH248435   5.830   1.433  14.444  0.3695 -0.0544 -0.0492
 9007TIP3    H148436   5.744   1.417  14.406  0.4429 -1.1999  0.2322
 9007TIP3    H248437   5.813   1.453  14.536  0.2659  1.8251 -0.4185
 9008TIP3   OH248438   4.293   4.590  11.596  0.7849 -0.1427  0.4280
 9008TIP3    H148439   4.304   4.549  11.511 -0.5920 -0.5580  0.4145
 9008TIP3    H248440   4.209   4.636  11.590  1.1944  0.7573  1.2001
 9009TIP3   OH248441   4.240   5.484  15.666 -0.3943  0.1960 -0.5725
 9009TIP3    H148442   4.187   5.562  15.682  1.2297  1.2712 -0.1568
 9009TIP3    H248443   4.329   5.511  15.688  0.2801 -1.6592 -0.8524
 9010TIP3   OH248444   4.687   5.645   3.954 -0.1018  0.2169  0.3040
 9010TIP3    H148445   4.713   5.555   3.972  0.8310  0.2982 -0.4823
 9010TIP3    H248446   4.704   5.656   3.860 -2.0093  0.6433 -0.0205
 9011TIP3   OH248447   3.557   0.000  14.188 -0.2422 -0.0826  0.8763
 9011TIP3    H148448   3.586  -0.090  14.171  1.5404  0.3196  1.5041
 9011TIP3    H248449   3.500  -0.007  14.264 -2.5740 -1.0080 -0.8504
 9012TIP3   OH248450   0.640   1.114  11.547 -0.3072 -0.1594  0.5603
 9012TIP3    H148451   0.580   1.156  11.485  0.7786  0.2898 -0.2194
 9012TIP3    H248452   0.587   1.100  11.625 -1.0062  1.7897  0.5129
 9013TIP3   OH248453   2.163   2.938   4.593 -0.1673  0.2027 -0.2053
 9013TIP3    H148454   2.073   2.933   4.625 -0.3841  3.3711  0.0851
 9013TIP3    H248455   2.214   2.961   4.671  0.6884 -0.3526 -0.5949
 9014TIP3   OH248456   5.555   0.026  13.994  0.9626 -0.7402 -0.0695
 9014TIP3    H148457   5.529  -0.040  14.058  0.2530  1.6941  2.3649
 9014TIP3    H248458   5.473   0.051  13.950  0.8371 -0.0913  0.5015
 9015TIP3   OH248459   6.046   3.253   4.900  0.0344  0.4873 -0.2832
 9015TIP3    H148460   6.137   3.236   4.875 -0.3063 -0.2137 -1.1303
 9015TIP3    H248461   6.052   3.297   4.984  1.1787  1.0746 -0.6444
 9016TIP3   OH248462   5.850   6.784   5.063 -0.2295 -0.3389 -0.1920
 9016TIP3    H148463   5.895   6.817   4.985  0.8191  0.7506  0.8492
 9016TIP3    H248464   5.914   6.789   5.133 -1.7285  0.5766  1.1927
 9017TIP3   OH248465   1.761   5.717  13.457 -0.0977 -0.2472  0.2115
 9017TIP3    H148466   1.689   5.701  13.397  0.2890 -1.0099 -0.0717
 9017TIP3    H248467   1.725   5.774  13.524 -0.4224  0.9696 -0.9646
 9018TIP3   OH248468   4.269   4.000  14.209  0.2655 -0.1242  0.3017
 9018TIP3    H148469   4.200   4.001  14.142  1.2809  2.6722 -0.8214
 9018TIP3    H248470   4.302   3.910  14.208  0.9737  0.0262 -3.8017
 9019TIP3   OH248471   3.609   4.420  11.285 -0.2118 -0.4343  0.0973
 9019TIP3    H148472   3.577   4.507  11.311  0.7369  0.7975 -2.4686
 9019TIP3    H248473   3.538   4.384  11.232  0.4875  0.0121 -1.1692
 9020TIP3   OH248474   5.156   0.180  16.188 -0.3334  0.0961  0.1527
 9020TIP3    H148475   5.238   0.137  16.165 -0.1533  1.1710 -1.3474
 9020TIP3    H248476   5.088   0.127  16.147 -0.2894 -0.0501  0.2681
 9021TIP3   OH248477   2.519   2.079  13.159 -0.1188  0.2671 -0.1080
 9021TIP3    H148478   2.557   2.167  13.152 -0.5284  0.3199 -2.5027
 9021TIP3    H248479   2.533   2.054  13.251  1.8385  1.9870  0.1391
 9022TIP3   OH248480   3.887   4.076  11.574 -0.2558 -0.1651 -0.1552
 9022TIP3    H148481   3.847   4.109  11.493 -1.1124  0.3838  0.4714
 9022TIP3    H248482   3.920   4.155  11.618  0.2764 -0.4689 -0.0018
 9023TIP3   OH248483   5.245   3.108  10.909 -0.1824  0.0316 -0.8371
 9023TIP3    H148484   5.244   3.029  10.855 -1.6688 -0.3100 -0.3630
 9023TIP3    H248485   5.254   3.076  10.999  2.4585  0.6021 -0.8305
 9024TIP3   OH248486   4.114   3.592   0.698 -0.4567  0.1925 -0.5640
 9024TIP3    H148487   4.150   3.526   0.639 -1.9692 -1.6340  0.4739
 9024TIP3    H248488   4.152   3.572   0.783 -1.2009  0.4614 -0.1631
 9025TIP3   OH248489   6.778   4.238  15.105  0.0927 -0.1482 -0.9883
 9025TIP3    H148490   6.774   4.252  15.199  0.1253 -1.2471 -0.8108
 9025TIP3    H248491   6.868   4.208  15.089 -0.2043 -0.9492 -1.2116
 9026TIP3   OH248492   0.731   4.208  16.543  0.0560  0.1247 -0.1052
 9026TIP3    H148493   0.818   4.171  16.533 -0.0375 -0.3605  0.7376
 9026TIP3    H248494   0.697   4.217  16.454  0.8570  0.0600 -0.4176
 9027TIP3   OH248495   6.148   4.193   5.967 -0.0623  0.9372  0.6112
 9027TIP3    H148496   6.162   4.188   5.872 -1.7746  1.3011  0.3050
 9027TIP3    H248497   6.055   4.172   5.978 -0.0716  1.6805  2.1405
 9028TIP3   OH248498   6.573   2.012  11.585  0.3612 -0.0819 -0.1514
 9028TIP3    H148499   6.637   1.940  11.578 -0.3750 -0.9331  1.3646
 9028TIP3    H248500   6.496   1.980  11.539 -0.1406 -0.5022  0.9469
 9029TIP3   OH248501   3.168   4.162  13.092  0.4623 -0.3178  0.3081
 9029TIP3    H148502   3.255   4.196  13.113 -0.2129  3.0298 -1.6010
 9029TIP3    H248503   3.180   4.117  13.008  0.7786 -2.2998  1.3639
 9030TIP3   OH248504   5.043   5.726  16.252 -0.6528  0.4208 -0.2043
 9030TIP3    H148505   4.997   5.743  16.170  0.0888  1.2354 -0.4649
 9030TIP3    H248506   4.973   5.719  16.317 -1.1830  1.0308 -0.6937
 9031TIP3   OH248507   0.679   3.480   4.146 -0.0454  0.7648 -0.3668
 9031TIP3    H148508   0.733   3.438   4.079 -0.2107 -1.0850  0.5875
 9031TIP3    H248509   0.741   3.503   4.215 -0.1602  0.6979 -0.2401
 9032TIP3   OH248510   1.100   0.816  11.582  0.0594  0.1227  0.1762
 9032TIP3    H148511   1.186   0.831  11.622  0.0630  2.4253 -0.5325
 9032TIP3    H248512   1.076   0.901  11.546 -2.0614 -0.7414 -0.5771
 9033TIP3   OH248513   2.756   5.015   6.021  0.2055  0.0382  0.0656
 9033TIP3    H148514   2.698   4.952   5.979 -0.8408  0.9446  0.0918
 9033TIP3    H248515   2.770   5.083   5.956 -0.7569  1.0362  0.8495
 9034TIP3   OH248516   3.026   5.025   6.119  0.1432 -0.0799  0.2249
 9034TIP3    H148517   2.931   5.028   6.134 -0.1778  0.7856 -1.5944
 9034TIP3    H248518   3.041   4.939   6.080  0.0841 -0.1812  0.4274
 9035TIP3   OH248519   2.315   4.117   5.812  0.3107 -0.2197 -0.1046
 9035TIP3    H148520   2.329   4.083   5.724 -1.8869 -0.6297 -0.3628
 9035TIP3    H248521   2.375   4.066   5.867  1.4131 -0.2386 -1.2849
 9036TIP3   OH248522   2.550   2.600   3.764 -0.5999  0.6302 -0.3480
 9036TIP3    H148523   2.549   2.596   3.668  1.9302 -1.3917 -0.3851
 9036TIP3    H248524   2.624   2.656   3.786 -0.5740  0.3192  0.4088
 9037TIP3   OH248525   0.453   3.453   3.204 -0.4901 -0.1834  0.0169
 9037TIP3    H148526   0.534   3.442   3.254  0.1328 -0.7904 -1.0766
 9037TIP3    H248527   0.483   3.464   3.113 -1.5748  1.0662 -0.2115
 9038TIP3   OH248528   5.415   3.200  15.145 -0.0841  0.0676  0.8076
 9038TIP3    H148529   5.383   3.121  15.103  1.0764 -0.1719  0.3388
 9038TIP3    H248530   5.421   3.264  15.074  0.7012  0.0309  0.8347
 9039TIP3   OH248531   3.938   6.070  14.666 -0.6687 -0.2061 -0.2944
 9039TIP3    H148532   3.949   6.014  14.589 -0.8687 -0.2908 -0.2627
 9039TIP3    H248533   3.963   6.015  14.740  0.1303  0.0690 -0.3463
 9040TIP3   OH248534   6.059   5.084  14.480  0.1253  0.1265  0.6347
 9040TIP3    H148535   6.057   5.027  14.404 -0.2319 -0.1928  0.8806
 9040TIP3    H248536   6.137   5.138  14.468 -0.4654  0.7598 -0.4490
 9041TIP3   OH248537   4.780   1.082  11.298 -0.0054 -0.4756 -0.3606
 9041TIP3    H148538   4.731   1.146  11.350  0.9893 -0.9944  1.2969
 9041TIP3    H248539   4.727   1.003  11.301 -0.2565 -0.3189 -0.6724
 9042TIP3   OH248540   3.765   3.871  16.108 -0.2558  0.0665  0.0714
 9042TIP3    H148541   3.688   3.927  16.098 -0.9667 -0.9276 -0.1466
 9042TIP3    H248542   3.789   3.849  16.018  0.9598  1.2485  0.0821
 9043TIP3   OH248543   6.673   6.144   4.942 -0.0755  0.3092  0.0474
 9043TIP3    H148544   6.637   6.084   4.876 -1.3850 -0.2879  1.2738
 9043TIP3    H248545   6.685   6.090   5.020 -1.3811  1.6290  1.2225
 9044TIP3   OH248546   6.590   4.085   3.381 -0.8820 -0.2263  0.4333
 9044TIP3    H148547   6.584   4.143   3.457  0.0248  0.8602 -0.3016
 9044TIP3    H248548   6.503   4.089   3.342 -0.3435  2.2350 -0.7080
 9045TIP3   OH248549   2.303   1.108  13.842 -0.6279 -0.2563  0.7875
 9045TIP3    H148550   2.225   1.137  13.890 -1.4416  1.8434 -1.5149
 9045TIP3    H248551   2.268   1.065  13.764  0.3677  1.6563 -0.8315
 9046TIP3   OH248552   3.816   2.161  13.034 -0.4906 -0.2491 -0.1035
 9046TIP3    H148553   3.787   2.088  13.089  0.5169 -0.9838 -0.5237
 9046TIP3    H248554   3.842   2.228  13.097  2.8775 -1.9156  0.5304
 9047TIP3   OH248555   4.509   1.689   4.236  0.5726 -0.1687 -0.3918
 9047TIP3    H148556   4.561   1.625   4.284 -1.2698 -1.6013 -0.1994
 9047TIP3    H248557   4.498   1.651   4.149 -0.5258 -0.1470 -0.2824
 9048TIP3   OH248558   2.761   0.290   3.809  0.6759  0.0552 -0.6518
 9048TIP3    H148559   2.775   0.232   3.884  0.0179  0.4071 -0.2405
 9048TIP3    H248560   2.771   0.233   3.733  0.1204 -0.5903 -0.2596
 9049TIP3   OH248561   2.040   2.915  13.677 -0.4290  0.5963 -0.1593
 9049TIP3    H148562   2.018   2.877  13.763 -2.0282  1.1724 -0.2901
 9049TIP3    H248563   2.120   2.965  13.693 -0.2961  0.1028  0.8255
 9050TIP3   OH248564   2.077   4.041   2.138  0.0010 -0.0002 -0.2211
 9050TIP3    H148565   2.077   3.953   2.102  0.7066  0.2616 -0.8945
 9050TIP3    H248566   2.170   4.063   2.148 -0.1718  0.5036  0.3404
 9051TIP3   OH248567   6.770   0.958  13.638 -0.0272  0.0229 -0.4306
 9051TIP3    H148568   6.849   1.011  13.639 -0.6801  1.0441 -1.1790
 9051TIP3    H248569   6.792   0.881  13.690  1.1683  0.6971  0.0940
 9052TIP3   OH248570   3.798   5.088  14.407  0.0668  0.1671  0.2696
 9052TIP3    H148571   3.722   5.048  14.364  0.7054 -0.9742  0.1709
 9052TIP3    H248572   3.807   5.039  14.489  0.5530  0.4501  0.3861
 9053TIP3   OH248573   4.042   3.747   5.192 -0.5435 -0.8616  0.3900
 9053TIP3    H148574   4.040   3.749   5.287  0.4131 -1.4255  0.4296
 9053TIP3    H248575   3.961   3.791   5.166 -0.8484 -0.7593  1.4560
 9054TIP3   OH248576   1.691   2.788  15.413 -0.1075 -0.5011  0.0326
 9054TIP3    H148577   1.631   2.728  15.368 -0.0305  0.1946 -1.0457
 9054TIP3    H248578   1.636   2.834  15.476 -1.2023  1.4019 -2.1401
 9055TIP3   OH248579   4.252   6.192  11.204  0.6625  0.1850 -0.2301
 9055TIP3    H148580   4.181   6.208  11.266 -0.2305  0.1031 -1.2007
 9055TIP3    H248581   4.273   6.278  11.169  0.2221  0.0629 -0.8056
 9056TIP3   OH248582   4.363   0.238  15.425  0.1651  0.0772  0.8241
 9056TIP3    H148583   4.449   0.237  15.383  0.6178 -0.6119  1.7409
 9056TIP3    H248584   4.339   0.331  15.427 -0.5337  0.0786 -2.1915
 9057TIP3   OH248585   1.186   2.241  16.743 -0.1482 -0.0468  0.4243
 9057TIP3    H148586   1.208   2.331  16.765  0.2506  0.1623 -0.7586
 9057TIP3    H248587   1.147   2.246  16.656 -1.4283 -0.8610  0.9240
 9058TIP3   OH248588   1.700   6.082   3.634 -0.0701  0.1804 -0.3726
 9058TIP3    H148589   1.626   6.028   3.661  1.0763 -0.2165  2.3939
 9058TIP3    H248590   1.693   6.160   3.690  1.6069  0.0820  0.0213
 9059TIP3   OH248591   5.221   1.391   6.786  0.4774 -0.4943 -0.0522
 9059TIP3    H148592   5.161   1.382   6.712  1.6645  0.0792 -1.1201
 9059TIP3    H248593   5.253   1.302   6.802  1.6017 -0.3815 -1.4660
 9060TIP3   OH248594   4.079   6.725  16.869  0.3752  0.0613  0.0524
 9060TIP3    H148595   4.015   6.796  16.870  0.1856 -0.1022  1.6386
 9060TIP3    H248596   4.160   6.766  16.901 -0.3271 -0.8849  3.4398
 9061TIP3   OH248597   1.007   1.158  12.139  0.1215 -0.1773  0.2578
 9061TIP3    H148598   1.006   1.246  12.101  0.1855  0.1697  1.0466
 9061TIP3    H248599   0.938   1.160  12.206 -0.6857 -1.0896 -0.5164
 9062TIP3   OH248600   2.708   0.635  13.697  1.0315 -0.9722 -0.2006
 9062TIP3    H148601   2.698   0.574  13.770  0.8158  1.1099  1.6408
 9062TIP3    H248602   2.803   0.638  13.681  1.0582 -1.6413 -0.1622
 9063TIP3   OH248603   4.963   0.481  10.619  0.2601  0.3385 -0.1642
 9063TIP3    H148604   4.998   0.568  10.640  2.8412 -0.1679 -1.8135
 9063TIP3    H248605   5.014   0.453  10.543 -0.7370 -2.4913  0.0918
 9064TIP3   OH248606   2.196   2.431   6.562 -0.0547  0.6024 -0.0122
 9064TIP3    H148607   2.109   2.410   6.528  0.5341 -1.8874 -0.1455
 9064TIP3    H248608   2.235   2.486   6.494  0.0883 -2.0159 -2.1997
 9065TIP3   OH248609   3.702   4.652   4.116 -0.0990 -0.1177  0.5834
 9065TIP3    H148610   3.623   4.700   4.091 -0.1869 -1.1314 -1.2211
 9065TIP3    H248611   3.670   4.577   4.166 -0.6670 -2.2024 -2.6272
 9066TIP3   OH248612   6.351   4.338  16.758 -0.7002  0.0614 -0.1179
 9066TIP3    H148613   6.377   4.284  16.833  1.0858  0.9159 -0.0647
 9066TIP3    H248614   6.274   4.294  16.722 -1.3910 -0.5691  1.9860
 9067TIP3   OH248615   6.590   1.430  15.144  0.0585  0.3990  0.4784
 9067TIP3    H148616   6.681   1.456  15.132 -0.7452  3.3457  0.0159
 9067TIP3    H248617   6.573   1.446  15.237  0.0508 -0.4445  0.6347
 9068TIP3   OH248618   1.516   6.465  13.539 -0.0723 -0.1574  0.4514
 9068TIP3    H148619   1.601   6.442  13.577 -0.5912 -0.0265  1.7120
 9068TIP3    H248620   1.476   6.524  13.602  0.0109  2.0103 -1.3764
 9069TIP3   OH248621   1.232   4.517   2.291  0.2482 -0.4086  0.5028
 9069TIP3    H148622   1.298   4.571   2.335 -0.6030  0.6321  0.5267
 9069TIP3    H248623   1.283   4.447   2.249  1.3335  0.1855  0.7864
 9070TIP3   OH248624   6.449   5.615   5.298 -0.1847  0.3748  0.3913
 9070TIP3    H148625   6.413   5.527   5.286  0.5170 -0.2484  2.3566
 9070TIP3    H248626   6.530   5.615   5.246 -0.7642  0.2579 -0.5190
 9071TIP3   OH248627   1.481   4.416  15.473  0.3438 -0.0199  0.4040
 9071TIP3    H148628   1.558   4.433  15.418  0.0114  0.8286  0.1816
 9071TIP3    H248629   1.484   4.484  15.540 -1.9743  2.1460 -1.5100
 9072TIP3   OH248630   6.112   2.100  16.705  0.8403  0.2962 -0.3632
 9072TIP3    H148631   6.074   2.065  16.624 -2.2404  0.4338  0.8914
 9072TIP3    H248632   6.045   2.085  16.771  2.4110  2.0577  1.7745
 9073TIP3   OH248633   1.759   0.255   5.807  0.0087  0.2870  0.6924
 9073TIP3    H148634   1.842   0.246   5.855  0.0557  0.6661  0.6838
 9073TIP3    H248635   1.696   0.284   5.873 -0.0572  0.2514  0.6447
 9074TIP3   OH248636   3.995   1.613   5.424 -0.2287  0.1056  0.5536
 9074TIP3    H148637   4.081   1.619   5.382 -0.0670  1.2968  1.0109
 9074TIP3    H248638   3.949   1.693   5.396 -1.5530 -0.9515 -0.4391
 9075TIP3   OH248639   5.244   3.551  13.435 -0.1640 -0.6528 -0.2010
 9075TIP3    H148640   5.230   3.465  13.476  1.3568 -1.2519 -0.8616
 9075TIP3    H248641   5.322   3.586  13.478  0.1762 -0.3299 -1.0590
 9076TIP3   OH248642   1.357   3.464   2.892  0.0159  0.4141 -0.4827
 9076TIP3    H148643   1.367   3.534   2.957 -1.4276 -0.2844  0.5467
 9076TIP3    H248644   1.446   3.436   2.873  0.4812  0.5808  1.2780
 9077TIP3   OH248645   3.256   2.808  11.389  0.2834  0.3319  0.3120
 9077TIP3    H148646   3.311   2.838  11.317 -0.7447  0.8514 -0.2683
 9077TIP3    H248647   3.298   2.727  11.419  1.5904  0.9340  0.1652
 9078TIP3   OH248648   4.871   3.777   2.181  0.3834  0.1221  0.2672
 9078TIP3    H148649   4.860   3.865   2.145 -1.3186 -0.4543 -0.7043
 9078TIP3    H248650   4.941   3.787   2.247  1.9588  1.6591 -1.5274
 9079TIP3   OH248651   5.343   0.900  14.018  0.1282  0.7366  0.2665
 9079TIP3    H148652   5.297   0.959  14.078 -0.4246  0.3257  0.2467
 9079TIP3    H248653   5.401   0.849  14.074  0.7974  1.4585  0.2585
 9080TIP3   OH248654   3.330   6.660  16.583 -0.3413 -0.1583  0.3904
 9080TIP3    H148655   3.325   6.577  16.535 -0.8837 -0.0300  0.2187
 9080TIP3    H248656   3.257   6.656  16.645 -0.4562  0.2547  0.2834
 9081TIP3   OH248657   5.000   0.860  12.184  0.1546  0.3333  0.6261
 9081TIP3    H148658   5.027   0.810  12.261 -2.0990 -0.2287  1.1397
 9081TIP3    H248659   5.031   0.949  12.200  1.3767 -0.1936  1.2548
 9082TIP3   OH248660   0.818   5.114  12.668 -0.1284 -0.7284 -0.6565
 9082TIP3    H148661   0.898   5.145  12.710  0.0812 -0.4489 -1.2415
 9082TIP3    H248662   0.840   5.109  12.575 -0.3460 -2.0895 -0.6493
 9083TIP3   OH248663   2.821   5.528  15.500 -0.0311  0.0079 -0.0978
 9083TIP3    H148664   2.765   5.571  15.436  0.7726  0.2680 -0.6349
 9083TIP3    H248665   2.896   5.586  15.510  0.0119 -0.1867  0.8447
 9084TIP3   OH248666   0.073   3.671   2.958 -0.0747 -0.7324 -0.0101
 9084TIP3    H148667   0.023   3.679   3.039  1.2324 -0.6595  0.8242
 9084TIP3    H248668   0.085   3.576   2.946  1.9027 -0.7249  1.3336
 9085TIP3   OH248669   6.796   5.464   2.616  0.4141  0.2092  0.5480
 9085TIP3    H148670   6.738   5.518   2.561  0.2223  0.7710  1.2784
 9085TIP3    H248671   6.737   5.408   2.666  0.6424 -1.2779 -0.7663
 9086TIP3   OH248672   5.953   5.269  11.333 -0.0381  0.1011 -0.0851
 9086TIP3    H148673   5.886   5.253  11.400 -0.2887 -0.2399 -0.4106
 9086TIP3    H248674   6.023   5.314  11.380 -0.5199  0.5204  0.2516
 9087TIP3   OH248675   6.382   5.697   4.112  0.1609 -0.1281  0.2453
 9087TIP3    H148676   6.340   5.612   4.104 -1.6202  0.7658 -0.4287
 9087TIP3    H248677   6.312   5.756   4.140  0.3609  1.8562 -2.9278
 9088TIP3   OH248678   4.598   1.925  10.502 -0.5656 -0.3236  0.4577
 9088TIP3    H148679   4.659   1.852  10.511  0.0494  0.2463  1.0235
 9088TIP3    H248680   4.651   2.003  10.519 -1.9069  0.0893  3.5288
 9089TIP3   OH248681   3.454   2.297   6.357 -0.4726  0.2159  0.5712
 9089TIP3    H148682   3.517   2.308   6.428  0.1493 -1.1375  0.2755
 9089TIP3    H248683   3.436   2.203   6.356 -1.6358  0.4313 -0.0858
 9090TIP3   OH248684   4.094   6.501   2.258 -0.2261  0.0875  0.1676
 9090TIP3    H148685   4.171   6.459   2.295  0.1470 -1.1266 -1.8356
 9090TIP3    H248686   4.109   6.595   2.271 -1.4257 -0.1179  5.4127
 9091TIP3   OH248687   1.340   2.860   4.161 -0.1747  0.1143 -0.3610
 9091TIP3    H148688   1.246   2.878   4.158 -0.3971 -0.9031  0.3462
 9091TIP3    H248689   1.370   2.874   4.070 -0.7272  1.8021 -0.3161
 9092TIP3   OH248690   6.387   4.251  14.524  0.0684 -0.4542  0.3426
 9092TIP3    H148691   6.461   4.302  14.490  1.4273 -1.9477  0.9390
 9092TIP3    H248692   6.358   4.199  14.449 -0.4103  0.1160  0.1151
 9093TIP3   OH248693   6.376   4.068  14.859  0.1351 -0.7115 -0.5037
 9093TIP3    H148694   6.413   4.005  14.797 -1.4243 -1.8102 -0.3705
 9093TIP3    H248695   6.283   4.070  14.838  0.2489  2.3972 -1.2372
 9094TIP3   OH248696   0.533   4.761  15.575 -0.0724 -0.4345 -0.0666
 9094TIP3    H148697   0.499   4.683  15.532  0.2880 -0.7861  0.2769
 9094TIP3    H248698   0.491   4.834  15.530  0.7427 -0.7719 -1.4056
 9095TIP3   OH248699   6.231   6.057  11.994 -0.2440 -0.1316  0.4757
 9095TIP3    H148700   6.285   6.076  11.918 -1.1682 -1.2761 -0.5089
 9095TIP3    H248701   6.235   6.136  12.047  0.1464  0.8257 -0.9243
 9096TIP3   OH248702   5.511   5.793  15.385 -0.1534  0.4097  0.2512
 9096TIP3    H148703   5.602   5.789  15.353 -0.2236  0.3005  0.0648
 9096TIP3    H248704   5.518   5.771  15.477 -0.0808 -0.3498  0.0678
 9097TIP3   OH248705   2.359   3.760   0.006 -0.1067  0.1621  0.4084
 9097TIP3    H148706   2.421   3.698   0.042  0.1838  0.9396  1.3071
 9097TIP3    H248707   2.336   3.726  -0.080 -0.1397 -1.2956  0.9768
 9098TIP3   OH248708   3.995   1.514  10.405  0.0650  0.3828 -0.2445
 9098TIP3    H148709   3.986   1.609  10.399 -1.5445  0.1770 -2.1541
 9098TIP3    H248710   4.017   1.486  10.317 -1.6689 -1.1582 -0.2569
 9099TIP3   OH248711   5.234   2.976   3.425  0.1762 -0.0481 -0.6730
 9099TIP3    H148712   5.299   2.975   3.495 -0.0419 -1.7948 -0.4495
 9099TIP3    H248713   5.259   2.903   3.368  0.7814  1.7504 -2.8674
 9100TIP3   OH248714   5.093   6.456   1.418  0.3876 -0.1702  0.0799
 9100TIP3    H148715   5.072   6.549   1.409  1.7999 -0.0104 -2.8381
 9100TIP3    H248716   5.187   6.454   1.433  0.1417 -1.1450  1.7783
 9101TIP3   OH248717   3.201   0.829   0.427  0.0610  0.1398 -0.0987
 9101TIP3    H148718   3.185   0.744   0.469 -1.4839  1.2273  1.6447
 9101TIP3    H248719   3.115   0.870   0.421  0.8599  1.9034 -0.2257
 9102TIP3   OH248720   5.725   6.111   2.741  0.3690  0.4194 -0.1473
 9102TIP3    H148721   5.807   6.149   2.772  1.0428 -0.8127 -0.3601
 9102TIP3    H248722   5.672   6.187   2.717  1.6503  1.2327 -0.5521
 9103TIP3   OH248723   3.393   1.560  15.267 -0.4118 -0.4151  0.1880
 9103TIP3    H148724   3.341   1.640  15.260  0.0358  0.2085  2.8404
 9103TIP3    H248725   3.451   1.576  15.342 -2.4515 -4.3090  2.9493
 9104TIP3   OH248726   4.770   0.178   0.394 -0.7719  0.3851  0.3734
 9104TIP3    H148727   4.853   0.157   0.350 -0.5636 -1.6431  1.5796
 9104TIP3    H248728   4.704   0.130   0.344 -0.7633 -0.5392  1.2191
 9105TIP3   OH248729   1.891   4.716   0.089  0.5811  0.0301  0.3506
 9105TIP3    H148730   1.967   4.709   0.032 -0.7276  1.4528 -1.7389
 9105TIP3    H248731   1.906   4.796   0.140  1.0891 -0.4250  0.9130
 9106TIP3   OH248732   5.092   1.559  11.010 -0.1615  0.1667  0.3947
 9106TIP3    H148733   5.098   1.464  11.006 -1.4174  0.1061 -0.5918
 9106TIP3    H248734   5.150   1.589  10.940 -0.7134  0.0663 -0.1179
 9107TIP3   OH248735   5.674   6.405  11.493 -0.4172 -0.6647  0.1107
 9107TIP3    H148736   5.584   6.410  11.462 -0.2781 -0.3021 -0.2391
 9107TIP3    H248737   5.722   6.468  11.440  0.0187 -0.7541  0.3871
 9108TIP3   OH248738   1.300   0.458  11.710 -0.6271 -0.2672 -0.1866
 9108TIP3    H148739   1.228   0.429  11.654 -0.7821 -1.4142  0.5628
 9108TIP3    H248740   1.362   0.385  11.707  0.7480  0.8780 -1.1772
 9109TIP3   OH248741   1.322   5.613  13.120  0.0479 -0.4916 -0.1718
 9109TIP3    H148742   1.313   5.580  13.209  2.6766 -0.8473  0.0548
 9109TIP3    H248743   1.234   5.606  13.082 -0.8438 -1.5998  1.9457
 9110TIP3   OH248744   3.754   0.411  14.452 -0.5293  0.5238 -0.0006
 9110TIP3    H148745   3.705   0.329  14.449 -2.6243  1.7529 -1.4507
 9110TIP3    H248746   3.821   0.401  14.383 -1.1067  0.2126 -0.5298
 9111TIP3   OH248747   3.796   5.048   3.780 -0.3390  0.3977 -0.4080
 9111TIP3    H148748   3.858   5.113   3.747 -0.7927  0.9357 -0.2364
 9111TIP3    H248749   3.783   4.987   3.708  0.5302  0.1727 -0.3797
 9112TIP3   OH248750   0.021   5.097   5.755 -0.0062 -0.4873 -0.0889
 9112TIP3    H148751   0.006   5.029   5.822  1.1441 -2.2115 -1.4801
 9112TIP3    H248752   0.102   5.140   5.783  1.2900 -2.1796 -1.0339
 9113TIP3   OH248753   3.005   5.354  13.973  0.2361 -0.0552  0.2254
 9113TIP3    H148754   2.974   5.271  14.011 -0.7526  0.6028  0.9209
 9113TIP3    H248755   2.935   5.417  13.994  1.2730  1.1005  0.2997
 9114TIP3   OH248756   0.895   0.537  15.121 -0.4940  0.6406  0.1380
 9114TIP3    H148757   0.965   0.526  15.056 -0.1368  1.5704  0.3602
 9114TIP3    H248758   0.894   0.631  15.139 -0.2784  0.3398  1.8267
 9115TIP3   OH248759   4.990   0.459  16.990  0.0030 -0.1199 -0.1959
 9115TIP3    H148760   5.072   0.443  17.037 -0.2274  2.1773  1.1376
 9115TIP3    H248761   5.016   0.500  16.908  0.2863 -1.9129 -1.0357
 9116TIP3   OH248762   0.755   1.118   1.011  0.0936 -0.1125 -0.0503
 9116TIP3    H148763   0.717   1.126   0.924  0.2715  1.4559 -0.0111
 9116TIP3    H248764   0.754   1.207   1.046  1.4432 -0.4658  0.9551
 9117TIP3   OH248765   6.095   1.540  17.048 -0.2408 -0.1635  0.4291
 9117TIP3    H148766   6.056   1.464  17.092  1.2183 -1.8356 -0.9998
 9117TIP3    H248767   6.081   1.522  16.955  0.5922  1.0889  0.0498
 9118TIP3   OH248768   1.899   3.867   1.965  0.0524 -0.6806 -0.3359
 9118TIP3    H148769   1.826   3.929   1.973  0.1595 -0.4370 -1.1375
 9118TIP3    H248770   1.857   3.781   1.964 -0.1555 -0.5863  0.0641
 9119TIP3   OH248771   3.258   5.017   5.724 -0.1045 -0.2364 -0.2933
 9119TIP3    H148772   3.238   4.988   5.635  0.1145  0.1531 -0.4769
 9119TIP3    H248773   3.177   5.005   5.773 -0.4455  0.2276 -0.7294
 9120TIP3   OH248774   4.291   0.629   3.919 -0.3133 -0.1777  0.0596
 9120TIP3    H148775   4.371   0.655   3.872 -0.0662  0.3758  0.7742
 9120TIP3    H248776   4.322   0.594   4.002 -0.7305 -1.4776 -0.3076
 9121TIP3   OH248777   4.744   1.566  15.927 -0.1878 -0.3464  0.0642
 9121TIP3    H148778   4.664   1.536  15.885 -0.9834 -0.4267  1.5981
 9121TIP3    H248779   4.769   1.496  15.987  1.0025 -0.2889 -0.3189
 9122TIP3   OH248780   3.502   2.954  14.175 -0.6925  0.4933  0.5627
 9122TIP3    H148781   3.535   2.903  14.249 -2.1083 -2.0663 -0.4367
 9122TIP3    H248782   3.581   2.979  14.127  0.0678 -1.6916  0.5606
 9123TIP3   OH248783   5.611   4.250  11.791  0.2727 -0.3881  0.2940
 9123TIP3    H148784   5.604   4.232  11.697  0.6532  0.1243  0.1656
 9123TIP3    H248785   5.686   4.308  11.799 -0.0367 -0.0624  0.8683
 9124TIP3   OH248786   6.504   2.534   0.357  0.1603 -0.6210  0.8610
 9124TIP3    H148787   6.583   2.573   0.318  0.8619 -0.5993  2.2509
 9124TIP3    H248788   6.536   2.454   0.399 -0.4954 -0.4044  1.7809
 9125TIP3   OH248789   1.199   5.274  13.414 -0.2362 -0.2606 -0.0246
 9125TIP3    H148790   1.165   5.258  13.502 -0.3453 -2.3689 -0.3981
 9125TIP3    H248791   1.286   5.312  13.429 -0.6285  0.2786  0.9732
 9126TIP3   OH248792   0.643   6.427   3.610 -0.5178  0.1742  0.1470
 9126TIP3    H148793   0.601   6.413   3.694  2.3777 -2.1001  1.4069
 9126TIP3    H248794   0.734   6.399   3.623  0.2060  0.1545 -3.6063
 9127TIP3   OH248795   6.533   1.460  11.904  0.5310 -0.7308  0.0236
 9127TIP3    H148796   6.603   1.410  11.861 -0.6335  0.0372 -2.9960
 9127TIP3    H248797   6.568   1.549  11.909  0.8551 -0.9074  1.2513
 9128TIP3   OH248798   5.353   4.313  11.832  0.1286  0.1761  0.1869
 9128TIP3    H148799   5.437   4.267  11.827 -0.2950 -0.4899 -3.7374
 9128TIP3    H248800   5.377   4.406  11.833  0.8867 -0.0093  1.1698
 9129TIP3   OH248801   4.495   3.445  11.729 -0.0984 -0.0445  0.5851
 9129TIP3    H148802   4.542   3.403  11.801 -0.1123  0.4949  0.9113
 9129TIP3    H248803   4.559   3.505  11.690 -0.8674  1.6547  1.8422
 9130TIP3   OH248804   0.898   3.410   3.137 -0.0448 -0.6477  0.2143
 9130TIP3    H148805   0.859   3.357   3.068  0.4724  0.6830 -1.1468
 9130TIP3    H248806   0.824   3.438   3.191 -0.9194  0.8042 -1.6082
 9131TIP3   OH248807   2.043   4.515  15.579  0.1346 -0.2149 -0.0097
 9131TIP3    H148808   2.013   4.432  15.541 -1.0319 -0.3265  1.0866
 9131TIP3    H248809   2.115   4.542  15.522 -0.0777 -1.4962 -0.9514
 9132TIP3   OH248810   5.109   6.010  11.700  0.1547 -0.2349 -0.2173
 9132TIP3    H148811   5.046   6.049  11.640 -1.0694 -0.0313  1.1295
 9132TIP3    H248812   5.138   5.930  11.656 -0.4975  0.0423 -1.1888
 9133TIP3   OH248813   0.439   2.299  15.686  0.1633 -0.3715 -0.5805
 9133TIP3    H148814   0.491   2.221  15.666  0.7615 -0.0523 -0.3083
 9133TIP3    H248815   0.411   2.332  15.601  1.4463  0.1469 -0.8213
 9134TIP3   OH248816   3.139   6.005   0.091  0.1750 -0.0385  0.5236
 9134TIP3    H148817   3.230   6.021   0.066  0.5930 -1.4982  1.0419
 9134TIP3    H248818   3.090   6.076   0.049  1.4889  0.5123 -0.1285
 9135TIP3   OH248819   6.546   4.871  15.561 -0.0457  0.1311 -0.7115
 9135TIP3    H148820   6.493   4.877  15.640  1.0430  0.9839 -0.0110
 9135TIP3    H248821   6.537   4.957  15.520 -1.3758 -0.6050 -2.0636
 9136TIP3   OH248822   3.567   1.385  11.931 -0.4642  0.0106  0.3993
 9136TIP3    H148823   3.534   1.308  11.885 -0.0116  1.1056 -1.9078
 9136TIP3    H248824   3.662   1.383  11.916 -0.1240 -0.2092  2.3406
 9137TIP3   OH248825   0.311   5.660  15.058 -0.2779  0.1733 -0.6543
 9137TIP3    H148826   0.400   5.646  15.091 -0.6631 -0.9826 -0.0516
 9137TIP3    H248827   0.305   5.754  15.043 -0.1254  0.8441  2.7766
 9138TIP3   OH248828   0.812   2.700  12.836  0.1834  0.0946  0.5624
 9138TIP3    H148829   0.873   2.628  12.824  1.1466  1.0609 -0.5488
 9138TIP3    H248830   0.730   2.658  12.864  1.3938 -1.2092  2.3375
 9139TIP3   OH248831   6.809   3.840  12.552  0.2997  0.4534  0.2391
 9139TIP3    H148832   6.855   3.878  12.627 -0.4496  1.3929  0.2309
 9139TIP3    H248833   6.779   3.915  12.501 -0.1685 -0.1662 -0.4139
 9140TIP3   OH248834   5.089   5.614   2.433  0.0354  0.0960  0.2400
 9140TIP3    H148835   5.086   5.694   2.381  0.6783  0.5489  0.8882
 9140TIP3    H248836   4.997   5.591   2.447 -0.1550  0.6949  0.0145
 9141TIP3   OH248837   3.689   4.460  16.419 -0.5502  0.0611 -0.2626
 9141TIP3    H148838   3.706   4.403  16.494 -1.5043 -1.2014 -0.9615
 9141TIP3    H248839   3.606   4.503  16.439 -0.5863  0.0536 -0.3930
 9142TIP3   OH248840   6.412   5.432  13.306  0.9759 -0.2750 -0.2671
 9142TIP3    H148841   6.341   5.373  13.331  0.1094  0.4091 -1.0281
 9142TIP3    H248842   6.480   5.375  13.272 -0.1470 -0.8305 -1.7140
 9143TIP3   OH248843   5.673   5.041  15.601  0.0792 -0.1503 -0.6409
 9143TIP3    H148844   5.640   5.033  15.511  1.2102  1.3401 -1.2234
 9143TIP3    H248845   5.595   5.053  15.654 -0.6646 -1.7138 -1.3003
 9144TIP3   OH248846   3.021   5.042  12.114 -0.7593 -0.2152  0.3850
 9144TIP3    H148847   3.041   5.128  12.079 -1.1194 -0.2283  0.1409
 9144TIP3    H248848   3.055   4.981  12.049 -1.7136 -0.2355 -0.1065
 9145TIP3   OH248849   4.146   1.603  11.482  0.2063  0.3468  0.2838
 9145TIP3    H148850   4.188   1.568  11.403  2.8388  4.2678 -0.3135
 9145TIP3    H248851   4.213   1.598  11.550  0.2908  2.9697  0.4660
 9146TIP3   OH248852   1.707   2.230   1.119  0.4012  0.3219  0.2227
 9146TIP3    H148853   1.654   2.239   1.199 -1.4577 -2.0942 -0.6039
 9146TIP3    H248854   1.672   2.296   1.059  0.7261  1.0732  0.8469
 9147TIP3   OH248855   1.375   2.089   3.361 -0.4340 -0.0029 -0.1400
 9147TIP3    H148856   1.465   2.068   3.337 -1.1265 -0.9996 -2.0460
 9147TIP3    H248857   1.326   2.009   3.342 -1.7850  0.6365  0.5391
 9148TIP3   OH248858   2.173   5.737  11.655 -0.4229  0.3261 -0.4738
 9148TIP3    H148859   2.181   5.832  11.651 -0.5900  0.3334 -0.6299
 9148TIP3    H248860   2.169   5.709  11.563  3.7059 -0.1888 -0.6794
 9149TIP3   OH248861   5.289   5.894   1.729  0.1679 -0.1863  0.2030
 9149TIP3    H148862   5.373   5.900   1.774  0.3847  0.3198 -0.2631
 9149TIP3    H248863   5.244   5.976   1.748 -0.4522 -0.6749  0.8905
 9150TIP3   OH248864   5.385   5.833  14.921  0.0215  0.6244  0.3064
 9150TIP3    H148865   5.477   5.806  14.925 -0.1366 -0.0449 -0.3152
 9150TIP3    H248866   5.386   5.926  14.944  0.8744  0.6716  0.1220
 9151TIP3   OH248867   1.341   3.148   0.021  0.5825  0.3184 -0.1893
 9151TIP3    H148868   1.338   3.092   0.098 -0.0005  0.1287 -0.3458
 9151TIP3    H248869   1.306   3.232   0.051  0.1093  0.1644 -0.3161
 9152TIP3   OH248870   6.557   0.909   0.751 -0.3491 -0.2335  0.4032
 9152TIP3    H148871   6.545   1.004   0.754 -0.2431 -0.1778 -0.6506
 9152TIP3    H248872   6.520   0.877   0.834  1.4216  0.9170  1.6983
 9153TIP3   OH248873   5.383   2.525   0.360 -0.0652  0.1473 -0.4262
 9153TIP3    H148874   5.409   2.600   0.307 -0.9820 -0.2941 -1.5705
 9153TIP3    H248875   5.298   2.550   0.396 -0.4972 -0.4198 -1.0276
 9154TIP3   OH248876   3.877   5.656   2.606 -0.4337 -0.2599 -0.0881
 9154TIP3    H148877   3.852   5.737   2.561 -2.3694 -0.6939  0.1246
 9154TIP3    H248878   3.945   5.618   2.551  0.3234  1.3665 -0.3305
 9155TIP3   OH248879   1.151   0.186   0.634  0.0717 -0.7364 -0.0522
 9155TIP3    H148880   1.172   0.215   0.723  0.3826 -1.9467  0.2871
 9155TIP3    H248881   1.056   0.177   0.633  0.0036 -0.0603 -0.0597
 9156TIP3   OH248882   0.965   0.880   1.875  0.1508  0.1315  0.2557
 9156TIP3    H148883   1.011   0.964   1.867  1.1807 -0.4187  0.2077
 9156TIP3    H248884   1.027   0.815   1.842 -0.4013 -0.7221  0.8332
 9157TIP3   OH248885   3.973   1.038   0.192  0.4959 -0.8520  0.6086
 9157TIP3    H148886   3.948   1.129   0.211  0.2265 -1.1082  1.5255
 9157TIP3    H248887   3.905   1.006   0.134  1.3369 -0.0513 -0.9094
 9158TIP3   OH248888   3.931   0.960   4.182  0.1718 -0.0815  0.3551
 9158TIP3    H148889   3.985   1.018   4.237  1.3665 -0.5544 -0.2873
 9158TIP3    H248890   3.990   0.929   4.114 -1.1634  0.1051 -0.9410
 9159TIP3   OH248891   5.792   2.706   4.076  0.7212  0.3223  0.4440
 9159TIP3    H148892   5.764   2.740   4.161 -2.5547 -0.2782 -0.2623
 9159TIP3    H248893   5.820   2.616   4.095  1.0678  0.5443  1.0297
 9160TIP3   OH248894   3.552   0.191   0.041  0.2511 -0.2183  0.1048
 9160TIP3    H148895   3.568   0.230   0.127 -1.2990  0.5607  0.0674
 9160TIP3    H248896   3.512   0.106   0.060 -3.5711  1.4422  0.2554
 9161TIP3   OH248897   6.128   1.101  13.208 -0.5886 -0.6948 -0.5432
 9161TIP3    H148898   6.085   1.183  13.233 -1.7103 -1.0706 -1.1426
 9161TIP3    H248899   6.160   1.065  13.290  2.8069  1.8328 -0.5735
 9162TIP3   OH248900   0.984   2.170   1.498  0.0330  0.2482  0.2963
 9162TIP3    H148901   0.942   2.247   1.460 -0.8110  0.6585  1.9484
 9162TIP3    H248902   0.912   2.109   1.515  0.6362 -0.7299 -0.5473
 9163TIP3   OH248903   1.657   5.998   4.679  0.4321  0.4432 -0.7611
 9163TIP3    H148904   1.585   5.967   4.624  0.9916  0.3808 -1.4568
 9163TIP3    H248905   1.731   6.006   4.620  1.1561 -0.0352  0.0647
 9164TIP3   OH248906   6.651   2.900  11.586  0.0059 -0.1184 -0.6145
 9164TIP3    H148907   6.581   2.869  11.643 -0.5474 -0.4185 -1.4413
 9164TIP3    H248908   6.616   2.980  11.547  1.1316  1.1957  0.9315
 9165TIP3   OH248909   4.014   1.124  13.702  0.2318  0.7322  0.0000
 9165TIP3    H148910   4.041   1.211  13.674  2.1354  0.8896  2.0926
 9165TIP3    H248911   3.946   1.139  13.768  0.4333  0.6192  0.2336
 9166TIP3   OH248912   0.425   2.601  10.262 -0.7869 -0.3868 -0.0827
 9166TIP3    H148913   0.358   2.547  10.304 -0.2842 -0.0814  1.1536
 9166TIP3    H248914   0.374   2.668  10.215 -1.3973  0.7340  2.0390
 9167TIP3   OH248915   5.962   2.822  13.070 -0.1029  0.2701 -0.1289
 9167TIP3    H148916   5.974   2.728  13.081 -0.0853  0.3809  0.8828
 9167TIP3    H248917   6.025   2.846  13.001 -0.5490 -0.5485 -0.8395
 9168TIP3   OH248918   3.625   4.139   0.167  0.2587 -0.1038 -0.0085
 9168TIP3    H148919   3.623   4.077   0.094 -0.6475 -0.1999  0.0909
 9168TIP3    H248920   3.718   4.156   0.181  0.4469 -0.2254 -1.0617
 9169TIP3   OH248921   1.927   3.923   5.020  0.1825 -0.4407  0.3351
 9169TIP3    H148922   1.890   4.011   5.013 -0.7894 -0.9377 -1.4085
 9169TIP3    H248923   2.010   3.928   4.973  1.1739  0.0376  2.0629
 9170TIP3   OH248924   5.057   5.595  12.493 -0.7204 -0.0186 -0.0609
 9170TIP3    H148925   5.039   5.661  12.425 -0.8247 -1.6495 -1.6809
 9170TIP3    H248926   4.998   5.522  12.473 -0.6639 -0.6227  1.7388
 9171TIP3   OH248927   1.771   1.831  16.519  0.6079 -0.3955 -0.2005
 9171TIP3    H148928   1.702   1.786  16.471  0.1089  1.3498 -1.1946
 9171TIP3    H248929   1.839   1.847  16.454  1.6643 -1.4417  0.6076
 9172TIP3   OH248930   6.637   2.400  12.982  0.2453  0.2230 -0.0428
 9172TIP3    H148931   6.687   2.320  12.991 -0.6609 -0.2704  0.8012
 9172TIP3    H248932   6.556   2.373  12.938 -0.1618  0.6251  0.4468
 9173TIP3   OH248933   3.413   5.579   2.714  0.0160 -0.0508  0.6233
 9173TIP3    H148934   3.422   5.524   2.792  0.5384  1.5777  1.7692
 9173TIP3    H248935   3.325   5.561   2.681  0.0753 -1.3293  1.1312
 9174TIP3   OH248936   5.137   6.521  10.773 -0.2072 -0.4218 -0.0051
 9174TIP3    H148937   5.198   6.465  10.727 -0.3141 -1.2299  0.8074
 9174TIP3    H248938   5.191   6.577  10.828 -0.0438  0.9393 -1.4882
 9175TIP3   OH248939   5.933   1.630  13.611  0.0046  0.1920  0.0702
 9175TIP3    H148940   5.864   1.666  13.668  0.7680  0.0015  1.1457
 9175TIP3    H248941   5.982   1.571  13.668  0.3310 -0.6062 -1.0058
 9176TIP3   OH248942   5.067   6.137   5.805  0.4247  0.1949  0.1090
 9176TIP3    H148943   4.973   6.135   5.820  0.2734  0.3040 -0.7936
 9176TIP3    H248944   5.097   6.050   5.831  0.0297  0.0655  0.1339
 9177TIP3   OH248945   1.791   0.386  16.882  0.2891 -0.0806 -0.3212
 9177TIP3    H148946   1.779   0.314  16.820  0.9048 -0.7514  0.3210
 9177TIP3    H248947   1.883   0.382  16.906  0.3780  1.0511 -0.4160
 9178TIP3   OH248948   0.839   5.408   1.454 -0.3768 -0.1830  0.2085
 9178TIP3    H148949   0.909   5.345   1.436 -1.0777 -1.8800  2.8418
 9178TIP3    H248950   0.780   5.402   1.378  1.1407 -0.3629 -1.0009
 9179TIP3   OH248951   1.551   0.074  13.516 -0.7462  0.6002  0.1681
 9179TIP3    H148952   1.635   0.053  13.556 -0.9265  1.2796  0.9197
 9179TIP3    H248953   1.518   0.148  13.567 -3.0013 -1.2551  1.5745
 9180TIP3   OH248954   6.641   0.658   6.423  0.2049 -0.2060  0.0498
 9180TIP3    H148955   6.628   0.698   6.509 -0.5145  1.1268 -0.6312
 9180TIP3    H248956   6.553   0.640   6.391  0.5007 -1.6388 -0.0070
 9181TIP3   OH248957   3.381   1.427   3.215  0.6533 -1.0642 -0.2098
 9181TIP3    H148958   3.387   1.521   3.230 -1.5791 -1.1757  1.9192
 9181TIP3    H248959   3.289   1.411   3.194  1.3387 -2.5918 -2.6088
 9182TIP3   OH248960   2.821   0.759   2.756  0.0346  0.1487 -0.0561
 9182TIP3    H148961   2.879   0.747   2.680 -0.7572 -1.6264 -0.4335
 9182TIP3    H248962   2.877   0.799   2.823  2.0504 -2.3808 -0.0567
 9183TIP3   OH248963   4.452   6.626   4.166  0.0764  0.8978  0.1389
 9183TIP3    H148964   4.511   6.701   4.166  0.4583  0.6073  0.8440
 9183TIP3    H248965   4.421   6.620   4.256  0.8452 -0.3925  0.3378
 9184TIP3   OH248966   4.582   0.129  13.550  0.3060  0.0771  0.2870
 9184TIP3    H148967   4.631   0.152  13.629 -0.4426  1.6897  0.3146
 9184TIP3    H248968   4.498   0.174  13.560 -0.6953 -1.5384 -0.3810
 9185TIP3   OH248969   1.672   4.565  14.992 -0.1267  0.2423 -0.1630
 9185TIP3    H148970   1.644   4.585  15.081  0.7192 -0.2166  0.2139
 9185TIP3    H248971   1.744   4.503  15.002 -0.2806 -0.1235 -1.1831
 9186TIP3   OH248972   0.460   5.228   0.291 -0.4479  0.3580 -0.2265
 9186TIP3    H148973   0.510   5.190   0.219 -0.1982 -0.4747  0.3731
 9186TIP3    H248974   0.517   5.297   0.326  1.4826 -2.1474  2.0196
 9187TIP3   OH248975   0.140   0.305  13.000 -0.0768  0.2467 -0.4319
 9187TIP3    H148976   0.104   0.217  13.007  0.9450 -0.0485  2.4915
 9187TIP3    H248977   0.211   0.297  12.936  1.2838 -1.6002  1.1914
 9188TIP3   OH248978   2.294   6.101   0.873 -0.1806  0.1794 -0.3399
 9188TIP3    H148979   2.262   6.096   0.963  0.3174 -2.5405 -0.2518
 9188TIP3    H248980   2.214   6.103   0.820 -0.5137 -1.3087  0.0729
 9189TIP3   OH248981   5.702   4.404   5.336 -0.2101  0.3828 -0.0640
 9189TIP3    H148982   5.692   4.493   5.303  0.9374  0.5574 -0.0000
 9189TIP3    H248983   5.654   4.404   5.419  0.1667  1.0911  0.1700
 9190TIP3   OH248984   6.140   0.866   2.107 -0.5609  0.3972 -0.2354
 9190TIP3    H148985   6.197   0.801   2.066 -0.3987  0.1970  0.3141
 9190TIP3    H248986   6.184   0.891   2.188 -0.5379  1.3204 -0.5183
 9191TIP3   OH248987   1.810   0.518   1.038 -0.5776  0.3702  0.0266
 9191TIP3    H148988   1.893   0.561   1.019 -0.4734 -0.4597 -1.5966
 9191TIP3    H248989   1.743   0.579   1.008 -0.5856  1.1131  1.4931
 9192TIP3   OH248990   2.873   6.738  16.504  0.3784 -0.8094  0.3842
 9192TIP3    H148991   2.796   6.723  16.449 -0.1912 -2.0866  1.4790
 9192TIP3    H248992   2.913   6.818  16.468  0.4395 -1.9294 -2.3146
 9193TIP3   OH248993   1.022   2.108  13.420  0.2428 -1.2037  0.1236
 9193TIP3    H148994   0.975   2.157  13.487  0.5063 -2.4747  1.2758
 9193TIP3    H248995   0.954   2.065  13.369 -0.0536  1.0490 -1.5292
 9194TIP3   OH248996   0.758   1.871  11.384 -0.4136 -0.1256  0.1939
 9194TIP3    H148997   0.708   1.796  11.351  0.1551 -0.5536  0.2932
 9194TIP3    H248998   0.779   1.922  11.306  0.5628 -0.9117 -0.0727
 9195TIP3   OH248999   2.921   6.033  12.182  0.0771 -0.0983  0.0862
 9195TIP3    H149000   2.999   6.035  12.237  0.8718 -1.8044 -0.8910
 9195TIP3    H249001   2.849   6.013  12.242  0.7736 -0.9481  0.6498
 9196TIP3   OH249002   4.134   6.684   4.700  0.2031  0.0196  0.6162
 9196TIP3    H149003   4.064   6.619   4.695 -0.6824  0.7326  2.6101
 9196TIP3    H249004   4.091   6.767   4.677  0.8246  0.2238  0.1590
 9197TIP3   OH249005   6.045   4.363   2.307  0.7141  0.3477 -0.0684
 9197TIP3    H149006   5.963   4.358   2.258  0.0822  1.9346  0.7631
 9197TIP3    H249007   6.112   4.372   2.239  0.1684 -0.5467 -0.7448
 9198TIP3   OH249008   2.111   3.424  10.724  0.0393 -0.0913 -0.3651
 9198TIP3    H149009   2.205   3.424  10.709  0.2619 -1.7195  0.8085
 9198TIP3    H249010   2.081   3.340  10.692 -0.7326 -0.2850  0.7792
 9199TIP3   OH249011   6.435   5.516  13.576 -0.0329 -0.1474 -0.1606
 9199TIP3    H149012   6.495   5.588  13.560 -0.8017  0.5598  0.0633
 9199TIP3    H249013   6.431   5.470  13.492  0.8711 -0.2560 -0.1519
 9200TIP3   OH249014   4.952   2.667   5.893  0.0056  0.1077 -0.4495
 9200TIP3    H149015   4.866   2.652   5.932  0.8713 -0.9045  1.1833
 9200TIP3    H249016   5.004   2.592   5.920  1.7266  1.2559 -0.4482
 9201TIP3   OH249017   2.383   1.683   5.531 -0.4011  0.4224 -0.6939
 9201TIP3    H149018   2.323   1.629   5.583 -1.3690 -0.6149 -2.7662
 9201TIP3    H249019   2.455   1.624   5.508  0.6961  1.2421  0.5155
 9202TIP3   OH249020   1.662   1.866   5.116 -0.0612  0.0326  0.5909
 9202TIP3    H149021   1.568   1.882   5.113 -0.2105 -0.7900  0.7058
 9202TIP3    H249022   1.677   1.797   5.050  0.4582  0.1584  0.5716
 9203TIP3   OH249023   0.533   2.621   3.100  0.2425  0.3680 -0.1309
 9203TIP3    H149024   0.560   2.566   3.173 -0.6096  0.5015  0.3054
 9203TIP3    H249025   0.569   2.578   3.022  0.0942 -0.4774  0.2559
 9204TIP3   OH249026   0.261   2.623   3.880  0.4500  0.4207 -0.3342
 9204TIP3    H149027   0.314   2.628   3.800  0.2257 -1.0266 -0.5950
 9204TIP3    H249028   0.320   2.651   3.949  2.8426 -4.3241 -0.0775
 9205TIP3   OH249029   4.312   2.592   2.895 -0.0367  0.3370  0.4805
 9205TIP3    H149030   4.222   2.560   2.885 -0.5317  1.8850 -0.5897
 9205TIP3    H249031   4.302   2.684   2.918  1.2571  0.6912 -0.2427
 9206TIP3   OH249032   1.973   5.448   2.441 -0.0987 -0.2298  0.5466
 9206TIP3    H149033   1.889   5.493   2.441 -0.5748 -1.1098  0.6545
 9206TIP3    H249034   1.958   5.368   2.390  0.8785 -0.0175 -0.1216
 9207TIP3   OH249035   4.157   2.774  13.514  0.3490  0.2372 -0.5045
 9207TIP3    H149036   4.068   2.738  13.518  0.0455  1.0387  0.3714
 9207TIP3    H249037   4.177   2.777  13.420 -0.9367  0.9427 -0.7874
 9208TIP3   OH249038   6.410   4.808  11.998  0.6957  0.7554  0.2022
 9208TIP3    H149039   6.447   4.874  11.939  2.3932  0.2345  0.6168
 9208TIP3    H249040   6.481   4.790  12.061  0.0450 -0.9888  0.4853
 9209TIP3   OH249041   6.547   1.757   1.866 -0.6457  0.4489  0.3567
 9209TIP3    H149042   6.559   1.766   1.771  0.7393 -0.7367  0.3919
 9209TIP3    H249043   6.463   1.714   1.875  0.2193 -1.5353 -0.4739
 9210TIP3   OH249044   0.064   3.652   5.720  0.3888  0.1672  0.2538
 9210TIP3    H149045  -0.019   3.642   5.766  0.0515  0.9306 -0.1705
 9210TIP3    H249046   0.128   3.666   5.790  0.2138 -0.6723  0.5974
 9211TIP3   OH249047   5.133   0.382  14.545  0.2417  0.7601  0.3251
 9211TIP3    H149048   5.055   0.364  14.598  0.0702  1.1590  0.2049
 9211TIP3    H249049   5.108   0.356  14.456  0.5185  0.1227  0.4303
 9212TIP3   OH249050   2.297   0.902  11.213  0.3104  0.2110 -0.2248
 9212TIP3    H149051   2.366   0.926  11.275  0.3324  0.6268 -0.4025
 9212TIP3    H249052   2.311   0.809  11.195  0.1983  0.0451  0.5211
 9213TIP3   OH249053   6.234   2.336  13.714  0.1505  0.4029  0.5082
 9213TIP3    H149054   6.272   2.395  13.649 -1.1670  0.9245  0.1786
 9213TIP3    H249055   6.275   2.251  13.697  0.7879  0.8308 -0.1393
 9214TIP3   OH249056   2.985   5.994  13.367  0.4250 -0.1311 -0.0537
 9214TIP3    H149057   2.946   5.907  13.366  0.7119 -0.2623  0.0228
 9214TIP3    H249058   3.064   5.985  13.420  0.6449  0.0939 -0.3375
 9215TIP3   OH249059   6.676   2.341   0.883  0.1067  0.0084 -0.5353
 9215TIP3    H149060   6.668   2.428   0.921  0.1235 -0.3045  0.2001
 9215TIP3    H249061   6.746   2.348   0.819 -0.8014  0.8727 -1.4648
 9216TIP3   OH249062   5.243   5.579  16.396  0.1986 -0.7261 -0.5854
 9216TIP3    H149063   5.198   5.517  16.453  0.6705 -0.6897 -0.1744
 9216TIP3    H249064   5.172   5.622  16.347 -0.1915 -0.8817 -0.1589
 9217TIP3   OH249065   4.394   6.754  13.655 -0.2119 -0.2392 -0.1520
 9217TIP3    H149066   4.451   6.775  13.730 -1.6567  1.8460  0.4378
 9217TIP3    H249067   4.452   6.760  13.579  1.2687 -2.3070  0.7253
 9218TIP3   OH249068   0.591   6.695   0.931  0.4787 -0.0072 -0.4686
 9218TIP3    H149069   0.600   6.679   0.837 -0.6241 -0.1471 -0.5671
 9218TIP3    H249070   0.601   6.790   0.941  1.4853 -0.0961 -0.6081
 9219TIP3   OH249071   4.159   3.504   2.978 -0.7777 -0.2593 -0.4558
 9219TIP3    H149072   4.127   3.544   2.898 -0.5797 -0.0252 -0.4189
 9219TIP3    H249073   4.206   3.574   3.023 -1.5770 -0.1688  0.2525
 9220TIP3   OH249074   5.296   0.826  14.842  0.0502 -0.1194 -0.0294
 9220TIP3    H149075   5.343   0.781  14.772 -2.2095 -1.3421 -0.8472
 9220TIP3    H249076   5.215   0.857  14.801 -1.1296 -0.4800  1.9193
 9221TIP3   OH249077   6.115   1.833  15.816 -0.8731  0.3685 -0.5042
 9221TIP3    H149078   6.146   1.745  15.835  0.7692  0.5549 -2.1010
 9221TIP3    H249079   6.052   1.822  15.744 -0.8263  0.4758 -0.5627
 9222TIP3   OH249080   2.112   5.362  14.625  0.1708  0.4173 -0.0715
 9222TIP3    H149081   2.206   5.347  14.634 -0.3299 -2.3966  1.9021
 9222TIP3    H249082   2.099   5.367  14.530  2.4636  2.9224 -0.3846
 9223TIP3   OH249083   6.603   0.198   0.731  0.2400 -0.3206 -0.1505
 9223TIP3    H149084   6.678   0.138   0.732  1.1061  0.7343  0.3667
 9223TIP3    H249085   6.586   0.217   0.823  0.2062  0.4850 -0.3163
 9224TIP3   OH249086   1.184   5.753   4.303 -0.0972 -0.5566  0.1131
 9224TIP3    H149087   1.213   5.842   4.280 -2.8603 -0.2801 -3.1179
 9224TIP3    H249088   1.092   5.763   4.327 -0.0715 -2.4286  1.2165
 9225TIP3   OH249089   3.233   3.393  15.500  0.3895  0.0047 -0.2224
 9225TIP3    H149090   3.226   3.395  15.404 -2.4680  0.9650 -0.1016
 9225TIP3    H249091   3.279   3.474  15.522  3.6937 -1.5528 -0.7894
 9226TIP3   OH249092   3.267   1.548   1.325  0.5301  0.1724  0.0367
 9226TIP3    H149093   3.330   1.588   1.384  0.9845  2.1524 -1.6639
 9226TIP3    H249094   3.181   1.567   1.364  0.7146  3.1184 -0.7542
 9227TIP3   OH249095   5.520   0.098   3.860 -0.3201  0.3231 -0.0187
 9227TIP3    H149096   5.546   0.189   3.842 -0.8657  0.7029  1.0369
 9227TIP3    H249097   5.446   0.082   3.802 -0.6143  0.7682  0.2273
 9228TIP3   OH249098   1.809   2.738  10.826  0.1559 -0.0030 -0.4967
 9228TIP3    H149099   1.850   2.816  10.788  1.9627  0.3711  1.9445
 9228TIP3    H249100   1.845   2.665  10.776  1.9091  0.5074 -0.0595
 9229TIP3   OH249101   2.335   1.336  12.525 -0.3016 -0.1585  0.4851
 9229TIP3    H149102   2.430   1.353  12.527 -0.0223 -0.8980 -2.2795
 9229TIP3    H249103   2.296   1.420  12.501 -0.1332 -0.2495 -0.1499
 9230TIP3   OH249104   3.714   2.150   0.316  0.3583  0.2983 -0.0305
 9230TIP3    H149105   3.754   2.216   0.259  0.1206  1.2361  0.8372
 9230TIP3    H249106   3.769   2.073   0.307  1.2460  0.9529 -0.3188
 9231TIP3   OH249107   0.859   4.006  12.669  0.1442  0.2265  0.6093
 9231TIP3    H149108   0.947   3.971  12.681  0.6034  1.4885  1.0971
 9231TIP3    H249109   0.859   4.089  12.717 -0.3255  1.8090 -1.9331
 9232TIP3   OH249110   0.725   1.232   0.627 -0.2414  0.1541  0.7582
 9232TIP3    H149111   0.721   1.327   0.637  0.7619  0.3122 -0.2345
 9232TIP3    H249112   0.815   1.209   0.650 -0.4557 -0.5564  0.9105
 9233TIP3   OH249113   4.463   1.442  13.642  0.1195  0.2167 -0.1063
 9233TIP3    H149114   4.541   1.404  13.681  0.6379  1.3135 -0.0415
 9233TIP3    H249115   4.394   1.428  13.706  0.9470  1.9550  1.2482
 9234TIP3   OH249116   6.098   3.820   0.964  0.3741  0.0036 -0.3662
 9234TIP3    H149117   6.124   3.865   0.884 -0.6422  0.1418 -0.6268
 9234TIP3    H249118   6.018   3.773   0.941  0.6141 -0.7743  0.2961
 9235TIP3   OH249119   4.580   1.276  11.412 -0.4249  0.0905  0.3406
 9235TIP3    H149120   4.602   1.343  11.347 -1.6311 -0.0436 -0.2424
 9235TIP3    H249121   4.500   1.309  11.453 -0.6310 -0.6566  0.5445
 9236TIP3   OH249122   4.521   3.260  12.722 -0.1006  0.1894 -0.2951
 9236TIP3    H149123   4.458   3.329  12.704  0.3072  0.0153 -2.7256
 9236TIP3    H249124   4.588   3.270  12.654  0.8381 -1.5499  0.3152
 9237TIP3   OH249125   0.797   5.720  16.427 -0.0122 -1.0192 -0.2924
 9237TIP3    H149126   0.818   5.691  16.338  0.5591  1.1750 -0.9206
 9237TIP3    H249127   0.747   5.801  16.415  1.9772  0.5523  1.3845
 9238TIP3   OH249128   4.285   0.535   2.788  0.7160 -0.0258  0.1657
 9238TIP3    H149129   4.308   0.614   2.837  0.4957  1.1292 -1.5081
 9238TIP3    H249130   4.189   0.533   2.789  0.7200 -0.3395  0.2657
 9239TIP3   OH249131   6.378   1.294   3.323 -0.1091  0.1171 -0.0851
 9239TIP3    H149132   6.326   1.345   3.262  0.5030  2.2069  1.0263
 9239TIP3    H249133   6.469   1.318   3.302  0.3328 -1.8528 -0.6216
 9240TIP3   OH249134   3.526   5.537   1.811 -0.2007  0.2992 -0.0219
 9240TIP3    H149135   3.463   5.471   1.841 -1.9521  2.4517  1.3680
 9240TIP3    H249136   3.497   5.618   1.853  1.7969  1.9914 -1.7037
 9241TIP3   OH249137   0.498   0.622  16.292 -0.7184 -0.6251  0.2394
 9241TIP3    H149138   0.576   0.625  16.236 -0.3976 -3.6166  0.3796
 9241TIP3    H249139   0.514   0.687  16.360  2.0816 -1.7040  0.7321
 9242TIP3   OH249140   0.275   0.554   3.484  0.1535  0.6285  0.2841
 9242TIP3    H149141   0.277   0.584   3.575  1.0470  1.4733 -0.0033
 9242TIP3    H249142   0.249   0.462   3.491 -0.1046  0.7600  1.3660
 9243TIP3   OH249143   3.007   0.192   5.140  0.1136 -0.0889 -0.2659
 9243TIP3    H149144   2.920   0.227   5.155  0.5438  0.7466  0.3372
 9243TIP3    H249145   3.021   0.131   5.213  1.3212  2.2969  1.6422
 9244TIP3   OH249146   0.962   1.243   3.728 -0.0740 -0.2509  0.0989
 9244TIP3    H149147   0.958   1.148   3.734 -0.8470 -0.2503 -0.3781
 9244TIP3    H249148   0.966   1.272   3.819 -0.3752 -0.7124  0.2621
 9245TIP3   OH249149   5.014   3.171  15.678  0.1171 -0.3308 -0.9298
 9245TIP3    H149150   4.922   3.142  15.674 -0.2405  0.7361 -0.8446
 9245TIP3    H249151   5.062   3.104  15.631 -0.4245 -2.0011  0.7782
 9246TIP3   OH249152   5.103   3.209   6.177  0.5586  0.1961 -0.3851
 9246TIP3    H149153   5.187   3.204   6.221 -0.0701 -2.6756  0.7039
 9246TIP3    H249154   5.053   3.135   6.211 -3.0889  2.6614  0.3323
 9247TIP3   OH249155   2.165   0.878   2.013 -0.1824 -0.0266  0.2106
 9247TIP3    H149156   2.236   0.834   1.966 -0.4655  0.9381 -1.1727
 9247TIP3    H249157   2.116   0.806   2.053  0.2689 -0.8688 -0.6860
 9248TIP3   OH249158   0.777   3.350  13.132  0.0016 -0.0758 -0.0431
 9248TIP3    H149159   0.839   3.279  13.153 -0.3450 -0.0242  1.2363
 9248TIP3    H249160   0.693   3.306  13.121 -0.1665  0.1015  0.5041
 9249TIP3   OH249161   4.394   3.129   2.164 -0.5015 -0.0580  0.3952
 9249TIP3    H149162   4.396   3.122   2.260  1.8728 -0.0361  0.4112
 9249TIP3    H249163   4.395   3.223   2.146  0.9914 -0.0511  0.3966
 9250TIP3   OH249164   5.061   5.053  15.693 -0.2235  0.0500  0.0829
 9250TIP3    H149165   4.967   5.038  15.681 -0.4643  0.2344  1.5265
 9250TIP3    H249166   5.103   4.994  15.631 -1.2918  0.6330 -1.2549
 9251TIP3   OH249167   6.496   2.053  12.496 -0.0240 -0.1402 -0.1491
 9251TIP3    H149168   6.526   2.016  12.578 -0.9368  1.4689  0.9702
 9251TIP3    H249169   6.524   2.145  12.499 -1.1057  0.2501 -1.0908
 9252TIP3   OH249170   3.420   4.544   4.679 -0.1969  0.9573  0.0529
 9252TIP3    H149171   3.457   4.580   4.760  2.4695 -0.6289 -0.3438
 9252TIP3    H249172   3.380   4.462   4.706  0.7463  0.3983 -0.2072
 9253TIP3   OH249173   4.537   2.177  16.238 -0.1443  0.4240  0.1736
 9253TIP3    H149174   4.616   2.128  16.263  0.0803  1.5014  1.6912
 9253TIP3    H249175   4.481   2.111  16.196  1.7699 -0.2436 -1.5368
 9254TIP3   OH249176   4.042   1.751  14.158  0.2639 -0.0431  0.1771
 9254TIP3    H149177   3.962   1.800  14.138  0.3577 -0.3758 -1.1754
 9254TIP3    H249178   4.032   1.670  14.108  0.2036 -1.3421  2.1936
 9255TIP3   OH249179   1.993   1.768   1.778 -0.1139 -0.0394  0.1176
 9255TIP3    H149180   1.913   1.718   1.761  0.9749 -1.6228 -0.6530
 9255TIP3    H249181   1.974   1.819   1.856 -1.4843 -1.2711  0.6263
 9256TIP3   OH249182   5.345   5.287  15.605 -0.5032  0.9256  0.4521
 9256TIP3    H149183   5.260   5.329  15.614 -1.7971  0.4055 -5.1662
 9256TIP3    H249184   5.378   5.319  15.521  3.8624 -0.6893  1.2945
 9257TIP3   OH249185   6.056   2.842   4.608 -0.3278  0.1107 -0.2316
 9257TIP3    H149186   6.047   2.931   4.641 -0.5054 -0.5471  1.5782
 9257TIP3    H249187   5.972   2.800   4.626 -0.1390 -0.5246 -0.7710
 9258TIP3   OH249188   4.682   3.621  14.435 -0.1686  0.7099 -0.2902
 9258TIP3    H149189   4.655   3.712  14.441  0.5526  0.8558  1.2856
 9258TIP3    H249190   4.634   3.577  14.505  0.4331  0.1374 -0.2248
 9259TIP3   OH249191   1.948   1.703   3.935  0.0709  0.1804 -0.2744
 9259TIP3    H149192   1.866   1.704   3.885  0.0097 -0.3366 -0.1926
 9259TIP3    H249193   1.921   1.721   4.025 -0.1420 -1.3280 -0.0048
 9260TIP3   OH249194   2.934   1.364  11.577 -0.3434  0.1469  0.4319
 9260TIP3    H149195   2.940   1.460  11.575  1.2182  0.0824 -1.2597
 9260TIP3    H249196   2.845   1.346  11.607 -1.1154  2.1552 -0.4367
 9261TIP3   OH249197   1.130   4.860   0.144 -0.2601  0.1117  0.5196
 9261TIP3    H149198   1.171   4.814   0.218 -0.7563 -1.5786 -0.2124
 9261TIP3    H249199   1.086   4.935   0.184 -0.4942 -0.7511  1.9637
 9262TIP3   OH249200   4.795   3.907  16.015  0.4526  0.0408  0.2549
 9262TIP3    H149201   4.750   3.990  16.030  0.7523  0.1459  0.5818
 9262TIP3    H249202   4.849   3.894  16.093  0.6046 -0.3335  0.0920
 9263TIP3   OH249203   2.117   5.661  13.601  0.3290 -0.0981  0.2247
 9263TIP3    H149204   2.038   5.640  13.651  0.4054 -0.6648  0.1210
 9263TIP3    H249205   2.189   5.631  13.656  0.3900 -1.2591 -0.4539
 9264TIP3   OH249206   1.893   4.431   5.075  0.1632 -0.1964  0.2900
 9264TIP3    H149207   1.939   4.411   5.156  0.7133 -1.3305 -0.2671
 9264TIP3    H249208   1.822   4.366   5.071 -0.1307  0.1334  0.0748
 9265TIP3   OH249209   2.423   3.165   0.279  0.2653  0.0425  0.0558
 9265TIP3    H149210   2.443   3.135   0.368  0.2604  0.6586  0.2675
 9265TIP3    H249211   2.398   3.256   0.290  1.6266  0.5284 -0.7609
 9266TIP3   OH249212   2.886   5.160  13.422  0.1142  0.8837  0.3138
 9266TIP3    H149213   2.876   5.067  13.443  1.2682  1.1743  2.4211
 9266TIP3    H249214   2.969   5.166  13.376  0.2446  0.9195  0.5526
 9267TIP3   OH249215   6.114   6.054   1.983 -0.1208 -0.3308  0.2283
 9267TIP3    H149216   6.138   5.969   1.948 -2.8405 -0.5398 -1.3713
 9267TIP3    H249217   6.085   6.104   1.907  0.7339  1.8223  1.2311
 9268TIP3   OH249218   4.113   6.762  10.804  0.3396 -0.7680  0.2735
 9268TIP3    H149219   4.176   6.764  10.732  0.2163  3.7533  0.0338
 9268TIP3    H249220   4.166   6.755  10.883  0.9960  0.4772 -0.0386
 9269TIP3   OH249221   2.310   5.630   2.783 -0.0316  0.1487  0.0655
 9269TIP3    H149222   2.248   5.649   2.713  0.7845 -0.2669 -0.7872
 9269TIP3    H249223   2.355   5.713   2.799  0.5220  0.0028 -0.6633
 9270TIP3   OH249224   2.643   6.592   1.430 -0.9128  0.7153  0.6873
 9270TIP3    H149225   2.715   6.635   1.383  2.1434 -3.1356  1.3056
 9270TIP3    H249226   2.659   6.612   1.522 -0.8421  0.2203  0.7893
 9271TIP3   OH249227   0.725   0.062   3.570 -0.3561 -0.0602 -0.0012
 9271TIP3    H149228   0.774   0.035   3.492  0.5514 -0.8923  0.8386
 9271TIP3    H249229   0.783   0.043   3.643 -1.8013 -0.7764  1.0069
 9272TIP3   OH249230   0.186   6.030   1.455  0.2516 -0.2034  0.5754
 9272TIP3    H149231   0.172   6.120   1.485  1.1684 -0.0896  0.6973
 9272TIP3    H249232   0.240   5.990   1.524  0.5419 -0.6007  0.1258
 9273TIP3   OH249233   0.294   1.803   0.307  0.5918 -0.2617  0.2850
 9273TIP3    H149234   0.363   1.742   0.337  1.0451  0.4762  0.7896
 9273TIP3    H249235   0.219   1.782   0.362  0.3312 -1.2315 -0.4263
 9274TIP3   OH249236   6.005   0.537  12.151  0.3858 -0.1227 -0.0995
 9274TIP3    H149237   5.985   0.481  12.227  0.3974 -0.6625 -0.4856
 9274TIP3    H249238   6.091   0.508  12.122 -0.2352 -0.9404 -1.2054
 9275TIP3   OH249239   2.136   4.630   0.439 -0.5397 -0.1459 -0.5004
 9275TIP3    H149240   2.059   4.576   0.424 -0.8747  0.3279 -0.5005
 9275TIP3    H249241   2.120   4.672   0.524 -0.6168  0.5014 -0.8250
 9276TIP3   OH249242   3.198   2.585   3.766 -0.4154  0.0594 -0.7060
 9276TIP3    H149243   3.133   2.536   3.816 -0.1061  0.3083 -0.0286
 9276TIP3    H249244   3.148   2.638   3.705 -0.8435  0.1521 -0.2810
 9277TIP3   OH249245   2.459   1.706   0.499  0.5691 -0.0071 -0.4006
 9277TIP3    H149246   2.446   1.667   0.585 -1.7410 -1.9589 -1.5163
 9277TIP3    H249247   2.516   1.644   0.454  0.6123  0.2721 -0.7295
 9278TIP3   OH249248   4.074   0.665  16.932 -0.0435  0.1030  0.6365
 9278TIP3    H149249   4.135   0.663  17.005 -1.2122 -1.0806  1.6294
 9278TIP3    H249250   3.988   0.675  16.972 -0.9449 -2.5842 -0.3393
 9279TIP3   OH249251   2.289   0.548   3.446 -0.1858  0.4752 -0.0334
 9279TIP3    H149252   2.351   0.621   3.446  0.0494  0.3373  2.0414
 9279TIP3    H249253   2.342   0.471   3.425  0.2698  0.4292  1.2361
 9280TIP3   OH249254   3.058   3.281  14.856 -0.5916  1.0794  0.3758
 9280TIP3    H149255   2.993   3.231  14.905 -1.1096 -0.9839 -2.1685
 9280TIP3    H249256   3.011   3.313  14.779  1.3656 -0.8210 -1.7706
 9281TIP3   OH249257   4.982   1.122   4.256  0.1597  0.3945 -0.1345
 9281TIP3    H149258   4.888   1.132   4.270  0.2613 -1.0551  2.1782
 9281TIP3    H249259   5.019   1.118   4.345  2.1408 -1.1195 -0.9477
 9282TIP3   OH249260   1.739   2.265   3.420 -0.0014 -0.1647  0.3752
 9282TIP3    H149261   1.718   2.358   3.407 -1.6512 -0.4331  0.8644
 9282TIP3    H249262   1.818   2.266   3.474  0.3256  0.9463 -0.0867
 9283TIP3   OH249263   1.308   4.924   3.540  0.0171  0.3066 -0.4047
 9283TIP3    H149264   1.386   4.895   3.494  0.0036  2.7380 -2.0932
 9283TIP3    H249265   1.338   4.941   3.630  1.0684 -0.1753 -0.6496
 9284TIP3   OH249266   6.737   1.643   3.376 -0.0596 -0.0656 -0.3252
 9284TIP3    H149267   6.701   1.715   3.429 -0.4968 -0.0091 -0.6893
 9284TIP3    H249268   6.828   1.668   3.360  0.3011 -0.4360  1.0067
 9285TIP3   OH249269   5.157   5.719  11.818  0.2013 -0.3644 -0.1508
 9285TIP3    H149270   5.111   5.651  11.770  1.5554 -2.3107  1.1675
 9285TIP3    H249271   5.150   5.693  11.910  1.6072  0.7317  0.3097
 9286TIP3   OH249272   4.582   0.025   4.258 -0.3100  0.2326  0.3634
 9286TIP3    H149273   4.670   0.061   4.263  0.4526 -1.3506 -0.6218
 9286TIP3    H249274   4.533   0.070   4.326  0.4386  3.2544 -0.9465
 9287TIP3   OH249275   5.791   0.334  10.768  0.3608 -0.6154 -0.1598
 9287TIP3    H149276   5.806   0.241  10.756  1.1047 -0.4632 -0.4740
 9287TIP3    H249277   5.785   0.370  10.680 -1.3151 -0.5641 -0.0485
 9288TIP3   OH249278   4.138   3.068  16.412  0.2531 -0.1985  0.4225
 9288TIP3    H149279   4.230   3.043  16.400 -0.3747 -1.7360 -1.8217
 9288TIP3    H249280   4.105   3.008  16.478  0.3335 -1.2002 -0.4175
 9289TIP3   OH249281   5.049   0.552  12.245 -0.5487 -0.0693  0.0510
 9289TIP3    H149282   5.089   0.579  12.328 -1.3947  2.5571 -0.3290
 9289TIP3    H249283   4.994   0.477  12.269 -0.0321  0.0160  1.6577
 9290TIP3   OH249284   5.663   1.811   5.819 -0.3602  0.0810  0.6922
 9290TIP3    H149285   5.711   1.803   5.737 -1.0118  0.2822  0.2804
 9290TIP3    H249286   5.571   1.801   5.794 -0.4762 -1.7067  1.6417
 9291TIP3   OH249287   1.564   2.706  13.542  0.1542 -0.0172 -0.1134
 9291TIP3    H149288   1.606   2.654  13.474 -0.3286  0.7974 -1.0637
 9291TIP3    H249289   1.559   2.647  13.617  1.5441 -0.6311 -0.4704
 9292TIP3   OH249290   2.622   6.627   6.588 -0.0446  0.2671 -0.2651
 9292TIP3    H149291   2.616   6.554   6.527 -0.4371 -0.2613  0.3913
 9292TIP3    H249292   2.558   6.691   6.555 -0.3582 -0.0752 -0.3294
 9293TIP3   OH249293   5.399   3.690   3.394  0.3642  0.1866 -0.0813
 9293TIP3    H149294   5.316   3.655   3.428 -0.1560  1.1819 -0.2692
 9293TIP3    H249295   5.457   3.691   3.470 -0.7608  2.3303  0.8644
 9294TIP3   OH249296   1.156   1.385  16.698 -0.1140 -0.4212 -0.6357
 9294TIP3    H149297   1.079   1.348  16.740 -1.2679 -1.1641 -3.2166
 9294TIP3    H249298   1.229   1.363  16.757 -1.4715 -2.2177  0.4591
 9295TIP3   OH249299   1.559   0.426  15.069  0.1474 -0.2185 -0.0515
 9295TIP3    H149300   1.650   0.445  15.046  0.8363 -2.2456  0.7717
 9295TIP3    H249301   1.524   0.383  14.992 -0.3279  1.0841 -0.5883
 9296TIP3   OH249302   5.267   2.685   4.722  0.1629  0.0240  0.1613
 9296TIP3    H149303   5.258   2.714   4.632  0.0994 -0.2627  0.0749
 9296TIP3    H249304   5.187   2.715   4.765 -0.3825 -0.9029 -0.1693
 9297TIP3   OH249305   6.693   2.842  16.817 -0.0107 -0.0676 -0.2831
 9297TIP3    H149306   6.615   2.851  16.762  0.6012  1.4699 -0.9269
 9297TIP3    H249307   6.766   2.841  16.756  0.6320  0.9309  0.4389
 9298TIP3   OH249308   1.186   0.556   3.165  0.2920 -0.8891 -0.0251
 9298TIP3    H149309   1.227   0.526   3.246 -1.1466 -0.7036  0.8028
 9298TIP3    H249310   1.157   0.645   3.184 -0.9352 -1.1845 -0.3869
 9299TIP3   OH249311   0.912   4.364  16.900  0.1027  0.6026  0.5958
 9299TIP3    H149312   0.897   4.273  16.876 -0.6034  0.8565  0.0175
 9299TIP3    H249313   1.006   4.370  16.916  0.2656 -0.0680 -0.0624
 9300TIP3   OH249314   6.290   6.610   4.035 -0.4581 -0.2681  0.3755
 9300TIP3    H149315   6.288   6.652   4.121 -0.6016  0.1213  0.1870
 9300TIP3    H249316   6.199   6.585   4.018 -0.4161 -0.4209  0.3721
 9301TIP3   OH249317   2.164   6.618   3.727 -0.8087 -0.6694 -0.1738
 9301TIP3    H149318   2.095   6.552   3.736 -1.6868  0.0596 -1.2241
 9301TIP3    H249319   2.119   6.701   3.742  0.5869 -0.3200  2.7304
 9302TIP3   OH249320   0.266   0.476  16.654  0.4812  0.1081 -0.2431
 9302TIP3    H149321   0.213   0.451  16.730  1.3577 -2.7375 -0.4470
 9302TIP3    H249322   0.344   0.516  16.692  0.1725  0.2392  0.2668
 9303TIP3   OH249323   0.122   6.216   3.441  0.1475 -0.0303 -0.1171
 9303TIP3    H149324   0.106   6.311   3.443  0.6887  0.0634 -0.0968
 9303TIP3    H249325   0.117   6.189   3.533  0.2413  0.0224 -0.0962
 9304TIP3   OH249326   0.192   2.489  15.106  0.0810 -0.5293 -0.3911
 9304TIP3    H149327   0.121   2.424  15.104 -0.1698 -0.2862  0.3474
 9304TIP3    H249328   0.229   2.486  15.017 -0.6158 -0.9179 -0.6825
 9305TIP3   OH249329   4.184   2.200   4.189  0.5080  0.0041 -0.1587
 9305TIP3    H149330   4.138   2.248   4.120  2.7634 -1.3528 -2.8085
 9305TIP3    H249331   4.148   2.112   4.185  1.9798 -0.5993 -1.0460
 9306TIP3   OH249332   1.259   1.266   2.915 -0.3650  0.2651 -0.4920
 9306TIP3    H149333   1.174   1.310   2.920 -0.7754 -0.3851 -1.5236
 9306TIP3    H249334   1.321   1.335   2.892 -0.7358  0.5963 -0.5023
 9307TIP3   OH249335   6.308   2.277   2.765  0.2307 -0.0647  0.2255
 9307TIP3    H149336   6.314   2.250   2.857 -0.0690 -1.4360 -0.1356
 9307TIP3    H249337   6.238   2.342   2.763  0.3714  0.1209  0.9946
 9308TIP3   OH249338   1.737   4.355  15.243  0.3585 -0.4355  0.0685
 9308TIP3    H149339   1.741   4.328  15.152 -1.0484 -1.9323  0.4042
 9308TIP3    H249340   1.715   4.275  15.291  0.2996  0.4721  1.6312
 9309TIP3   OH249341   2.765   5.829  14.524 -0.2977 -0.0170 -0.3125
 9309TIP3    H149342   2.756   5.798  14.614 -1.4076 -2.4029 -1.1621
 9309TIP3    H249343   2.687   5.882  14.509  0.3357  1.1534  0.3609
 9310TIP3   OH249344   3.725   5.762   4.747 -0.2275  0.1181  0.1460
 9310TIP3    H149345   3.793   5.696   4.759  0.6989  0.5815 -2.0851
 9310TIP3    H249346   3.651   5.714   4.711 -0.0624  0.0700 -0.1275
 9311TIP3   OH249347   1.466   6.685   6.012  0.1484  0.3713  0.1011
 9311TIP3    H149348   1.442   6.594   6.031 -0.3891 -0.0512 -2.1982
 9311TIP3    H249349   1.554   6.680   5.976 -0.0580  0.6860 -0.4633
 9312TIP3   OH249350   5.881   4.025  12.598 -0.5189 -0.4318  0.3394
 9312TIP3    H149351   5.816   4.024  12.528 -0.6521 -0.9703  0.4705
 9312TIP3    H249352   5.837   3.982  12.672 -0.0196 -0.7951  0.4281
 9313TIP3   OH249353   4.526   1.800   0.143 -0.2414 -0.0251  0.5070
 9313TIP3    H149354   4.547   1.886   0.108 -0.8433 -0.2151 -0.3551
 9313TIP3    H249355   4.533   1.810   0.238  0.6789  0.7015  0.3808
 9314TIP3   OH249356   6.292   3.361  11.361 -0.3119 -0.3952 -0.5238
 9314TIP3    H149357   6.207   3.372  11.404 -0.5251 -0.7213 -0.8565
 9314TIP3    H249358   6.341   3.439  11.385  0.0941 -1.2231  1.4758
 9315TIP3   OH249359   1.948   4.204  11.534  0.1513 -0.1560 -0.3961
 9315TIP3    H149360   1.897   4.155  11.469  1.3168 -0.2929 -1.2482
 9315TIP3    H249361   1.942   4.152  11.614 -0.3875 -0.5669 -0.6936
 9316TIP3   OH249362   0.573   5.857  12.086 -0.1609 -0.5763 -0.2881
 9316TIP3    H149363   0.493   5.808  12.107  0.0434 -0.7683  0.0700
 9316TIP3    H249364   0.638   5.790  12.066  0.5626 -0.5680  1.7609
 9317TIP3   OH249365   2.085   3.023   4.096 -0.3425  0.0943 -0.0556
 9317TIP3    H149366   2.031   3.023   4.176  0.7983  0.0837  0.7332
 9317TIP3    H249367   2.061   2.941   4.052 -2.0872  0.8002 -0.5227
 9318TIP3   OH249368   4.305   0.310  15.819 -0.4403  0.2419 -0.1166
 9318TIP3    H149369   4.213   0.284  15.824 -0.8838  0.9726 -3.0570
 9318TIP3    H249370   4.347   0.241  15.767  0.4024  0.6231  0.0395
 9319TIP3   OH249371   4.596   1.715  14.271 -0.1369  0.7142  0.0519
 9319TIP3    H149372   4.530   1.708  14.340 -0.7333 -1.3485 -0.6514
 9319TIP3    H249373   4.584   1.803  14.236 -0.2666  1.5632  2.1081
 9320TIP3   OH249374   0.532   0.362  13.550 -0.2419  0.4442 -0.2634
 9320TIP3    H149375   0.533   0.456  13.566  0.3337  0.4209 -0.1106
 9320TIP3    H249376   0.515   0.353  13.457  0.1910  0.7244 -0.3740
 9321TIP3   OH249377   0.629   2.091   0.514 -0.2973  0.6884 -1.0590
 9321TIP3    H149378   0.709   2.131   0.550 -0.9163  1.3947 -0.4242
 9321TIP3    H249379   0.650   2.074   0.422  0.8404  0.1552 -0.7129
 9322TIP3   OH249380   5.828   1.248   1.678 -0.3157  0.2832 -0.1540
 9322TIP3    H149381   5.733   1.251   1.676 -0.2882  1.8476 -2.2963
 9322TIP3    H249382   5.853   1.293   1.758 -1.3570  0.2019  0.2204
 9323TIP3   OH249383   5.433   5.520  11.875  0.6198  0.1852  0.0139
 9323TIP3    H149384   5.342   5.516  11.906  1.2745 -0.6772  1.9866
 9323TIP3    H249385   5.429   5.489  11.784 -1.1201  0.6646 -0.1045
 9324TIP3   OH249386   4.635   1.503   3.303  0.8868 -0.1279 -0.6518
 9324TIP3    H149387   4.578   1.547   3.241  2.4052 -0.2477 -2.2178
 9324TIP3    H249388   4.660   1.422   3.260  1.2278 -0.6799  0.5363
 9325TIP3   OH249389   2.598   1.511   5.496 -0.2468 -0.9664  0.3066
 9325TIP3    H149390   2.650   1.441   5.535  3.4687  1.0996 -0.4945
 9325TIP3    H249391   2.628   1.516   5.405 -0.3381  1.6464  0.3468
 9326TIP3   OH249392   3.270   5.343  11.730 -0.8495 -0.3140 -0.7126
 9326TIP3    H149393   3.243   5.388  11.650 -0.5409  1.1187 -0.0457
 9326TIP3    H249394   3.355   5.304  11.707  0.1547  1.6515 -0.5925
 9327TIP3   OH249395   5.520   3.347   3.018  0.0810  0.0731 -0.2371
 9327TIP3    H149396   5.540   3.254   3.025  1.0592  0.2341 -0.6201
 9327TIP3    H249397   5.605   3.390   3.028  0.1491  0.7670 -2.8670
 9328TIP3   OH249398   6.274   2.732  11.133 -0.4468  0.1866  0.2016
 9328TIP3    H149399   6.342   2.678  11.172 -0.9194  0.5178  1.5478
 9328TIP3    H249400   6.240   2.680  11.061  1.1459 -0.0239 -0.4349
 9329TIP3   OH249401   6.745   4.757  13.515  0.2039 -0.1295 -0.5701
 9329TIP3    H149402   6.678   4.800  13.569  0.6555  0.1161 -0.2025
 9329TIP3    H249403   6.752   4.813  13.437  1.6273  1.1607  0.4231
 9330TIP3   OH249404   2.662   3.911  16.147 -0.6530 -0.2895 -0.0738
 9330TIP3    H149405   2.567   3.912  16.147 -0.9122 -1.0314  4.5897
 9330TIP3    H249406   2.685   3.831  16.100 -2.5930 -1.7366  1.2660
 9331TIP3   OH249407   5.513   1.610  16.743  0.7569  0.5242  0.1393
 9331TIP3    H149408   5.437   1.667  16.744  0.1637 -0.2366 -0.1314
 9331TIP3    H249409   5.587   1.667  16.763 -0.0914  0.9653  2.2576
 9332TIP3   OH249410   0.082   0.956   2.520  0.6664 -0.1251 -0.0769
 9332TIP3    H149411   0.156   1.014   2.540  0.5858 -0.3904  1.0734
 9332TIP3    H249412   0.005   1.010   2.533  0.5588 -0.6293  1.7052
 9333TIP3   OH249413   5.434   5.581  13.980  0.2538 -0.6083 -0.4071
 9333TIP3    H149414   5.473   5.581  14.067  0.5531  0.9915 -0.5112
 9333TIP3    H249415   5.432   5.489  13.955 -0.9058 -1.2303  1.7393
 9334TIP3   OH249416   0.276   4.350  12.858  0.4730  0.7244 -0.1470
 9334TIP3    H149417   0.341   4.408  12.819  0.0396  1.2693 -0.0593
 9334TIP3    H249418   0.198   4.361  12.803 -0.1154  1.4304  0.8041
 9335TIP3   OH249419   6.761   6.682   4.841  0.3328 -0.3709  0.1171
 9335TIP3    H149420   6.719   6.603   4.807  0.8298 -0.5174 -0.1680
 9335TIP3    H249421   6.842   6.690   4.790 -0.5311  1.2946 -1.1118
 9336TIP3   OH249422   5.208   3.135   3.779 -0.5250 -0.0400  0.0232
 9336TIP3    H149423   5.211   3.085   3.698 -0.3193  0.5383 -0.3323
 9336TIP3    H249424   5.299   3.160   3.795 -0.6043  0.0951  0.2721
 9337TIP3   OH249425   3.349   0.791  14.814  0.1563  0.1004 -0.2639
 9337TIP3    H149426   3.353   0.762  14.723 -1.7797 -0.3768 -0.2504
 9337TIP3    H249427   3.336   0.711  14.865  1.4754  0.3327  0.4737
 9338TIP3   OH249428   4.163   0.419   3.582 -0.1848  0.8369 -0.0838
 9338TIP3    H149429   4.162   0.371   3.500 -0.7360 -0.3442  0.5898
 9338TIP3    H249430   4.255   0.424   3.606 -0.1897 -1.1766  0.5369
 9339TIP3   OH249431   3.794   5.819  11.387  0.3155 -0.3398  0.4076
 9339TIP3    H149432   3.715   5.870  11.371  0.2107 -0.4145  0.6955
 9339TIP3    H249433   3.765   5.728  11.381  0.7621 -0.4175 -1.5570
 9340TIP3   OH249434   1.720   0.415   0.624  0.2670  0.1593  0.2843
 9340TIP3    H149435   1.634   0.429   0.664  0.3542 -0.2919  0.6292
 9340TIP3    H249436   1.776   0.386   0.696  0.7864  0.7376  0.1186
 9341TIP3   OH249437   0.276   3.913  13.006  0.2280 -0.3217 -0.3521
 9341TIP3    H149438   0.201   3.930  13.063 -0.8889  2.9439 -2.4994
 9341TIP3    H249439   0.342   3.875  13.064 -1.4103  1.1163  2.7162
 9342TIP3   OH249440   1.509   5.650  12.025  0.6376 -0.3015  0.5230
 9342TIP3    H149441   1.514   5.558  11.998  1.1462 -0.1426  0.0541
 9342TIP3    H249442   1.426   5.657  12.073 -0.0276 -0.7254 -0.5278
 9343TIP3   OH249443   4.230   2.864   2.473 -0.3928  0.1556  0.6630
 9343TIP3    H149444   4.300   2.800   2.492  0.3942  0.2248 -1.6920
 9343TIP3    H249445   4.274   2.949   2.480 -0.4869  0.2473  0.1598
 9344TIP3   OH249446   3.245   1.538   2.730 -0.1427  0.2798  0.3685
 9344TIP3    H149447   3.277   1.587   2.806  0.6363  1.4280 -0.6652
 9344TIP3    H249448   3.210   1.456   2.767 -0.0223  0.9223  1.9712
 9345TIP3   OH249449   1.023   5.366  13.093  0.0652  0.0408 -0.3230
 9345TIP3    H149450   0.969   5.298  13.132 -0.6211  0.2787 -0.8394
 9345TIP3    H249451   0.968   5.445  13.095  1.3460  0.9849  1.6066
 9346TIP3   OH249452   6.114   3.204  13.769  0.4409  0.0266 -0.7273
 9346TIP3    H149453   6.040   3.170  13.819  1.7688 -0.7903  0.7736
 9346TIP3    H249454   6.170   3.127  13.752  1.8700  0.8978 -0.1649
 9347TIP3   OH249455   3.796   5.834  16.987 -0.1910  0.1910  0.4040
 9347TIP3    H149456   3.779   5.928  16.995 -1.0311  0.0889 -0.0796
 9347TIP3    H249457   3.721   5.792  17.028  1.2057 -0.3041  2.6310
 9348TIP3   OH249458   5.574   0.766  13.497 -0.1112 -0.6082  0.5259
 9348TIP3    H149459   5.610   0.804  13.577  0.1827  0.4895 -0.1084
 9348TIP3    H249460   5.555   0.675  13.520  1.0457 -0.6236  1.5029
 9349TIP3   OH249461   4.623   6.549   4.432 -0.2869 -0.1474 -0.2404
 9349TIP3    H149462   4.531   6.573   4.445 -0.0503  0.6312  0.0505
 9349TIP3    H249463   4.669   6.589   4.506  0.2647 -0.6713 -0.2924
 9350TIP3   OH249464   5.074   3.503   5.493  0.1444  0.5075 -0.0721
 9350TIP3    H149465   5.114   3.585   5.521  1.2340  0.0354 -0.2052
 9350TIP3    H249466   5.091   3.442   5.565 -1.0189  0.4869  0.2130
 9351TIP3   OH249467   6.721   1.395   6.072  0.3470  0.2577 -0.5125
 9351TIP3    H149468   6.635   1.435   6.061 -1.0048 -2.6898 -1.7798
 9351TIP3    H249469   6.702   1.307   6.104  3.0496  0.1273  1.0056
 9352TIP3   OH249470   4.923   3.799  11.573 -0.2737  0.1058 -0.7476
 9352TIP3    H149471   4.983   3.857  11.619  0.6197 -2.9167  2.4152
 9352TIP3    H249472   4.977   3.754  11.509 -0.3117  0.7304 -1.2254
 9353TIP3   OH249473   2.713   3.883   4.773 -0.0950  0.1929 -0.1356
 9353TIP3    H149474   2.666   3.953   4.727  2.2717  1.7765 -0.3113
 9353TIP3    H249475   2.750   3.926   4.850  0.6972 -1.0865  0.2195
 9354TIP3   OH249476   1.530   4.878  16.998  0.0458  0.0475  0.0351
 9354TIP3    H149477   1.517   4.825  16.920  0.7615  0.2587 -0.2338
 9354TIP3    H249478   1.526   4.815  17.070 -0.0407 -0.2310 -0.2095
 9355TIP3   OH249479   1.841   6.084  15.921  0.5364 -0.9242  0.0487
 9355TIP3    H149480   1.894   6.014  15.883 -0.0748 -0.9868 -0.7131
 9355TIP3    H249481   1.800   6.045  15.998 -0.3711 -1.6538 -0.7719
 9356TIP3   OH249482   6.578   3.120  12.806  0.0464 -0.2700 -0.1903
 9356TIP3    H149483   6.629   3.169  12.870  2.2809  0.3142 -2.2805
 9356TIP3    H249484   6.524   3.061  12.859  0.5609  1.2941  2.2416
 9357TIP3   OH249485   4.358   6.340   4.548 -0.1818  0.0399  0.0153
 9357TIP3    H149486   4.378   6.248   4.566  2.2332  0.3271 -0.7489
 9357TIP3    H249487   4.280   6.337   4.494  0.8337 -1.7246 -1.4895
 9358TIP3   OH249488   3.448   3.666   3.219 -0.1591  0.8272  0.0496
 9358TIP3    H149489   3.404   3.749   3.203 -1.5243  0.1251 -0.0049
 9358TIP3    H249490   3.384   3.600   3.194  0.5220 -0.2605  1.0724
 9359TIP3   OH249491   1.526   2.862   0.643 -0.1712  0.3329  0.0563
 9359TIP3    H149492   1.558   2.897   0.726 -1.0846  1.7367 -0.1637
 9359TIP3    H249493   1.443   2.820   0.664  0.6015 -1.2152  0.1976
 9360TIP3   OH249494   5.778   6.170  12.322 -0.1387  0.7288 -0.0029
 9360TIP3    H149495   5.776   6.094  12.380  0.5088  0.3881 -0.4242
 9360TIP3    H249496   5.798   6.243  12.380 -1.6308  0.7357  0.5509
 9361TIP3   OH249497   1.887   4.369  16.296  0.0580  0.0399 -0.4398
 9361TIP3    H149498   1.807   4.362  16.349 -0.2296 -0.8271 -0.9661
 9361TIP3    H249499   1.954   4.398  16.358 -0.3277 -0.6882  0.3548
 9362TIP3   OH249500   6.436   6.745  15.386  0.5040  0.2807  0.1999
 9362TIP3    H149501   6.370   6.715  15.323  0.7320  0.7017 -0.2487
 9362TIP3    H249502   6.401   6.828  15.420 -0.2123 -0.5436  1.5719
 9363TIP3   OH249503   1.910   2.460   3.947  0.0175 -0.0519 -0.0741
 9363TIP3    H149504   1.993   2.495   3.916 -0.6254  3.2375  1.4420
 9363TIP3    H249505   1.891   2.387   3.888  2.7251  0.6595 -2.0401
 9364TIP3   OH249506   0.200   2.742   6.504  0.2012 -0.4247  0.1397
 9364TIP3    H149507   0.159   2.694   6.432 -1.3428  0.9879  0.0229
 9364TIP3    H249508   0.126   2.771   6.558  1.2307 -0.0331  1.3854
 9365TIP3   OH249509   3.098   6.815   1.094 -0.1341 -0.1977 -1.1454
 9365TIP3    H149510   3.149   6.891   1.122  1.0911 -1.5074  0.4242
 9365TIP3    H249511   3.008   6.836   1.119  0.5009 -0.1111  1.3887
 9366TIP3   OH249512   5.267   2.964  11.894 -0.2889 -0.1303  0.0597
 9366TIP3    H149513   5.342   2.918  11.857  1.1092  1.7102  0.4488
 9366TIP3    H249514   5.259   3.043  11.840  0.1035  1.2626  1.9365
 9367TIP3   OH249515   5.488   6.543  13.978  0.7323  0.1096 -0.3574
 9367TIP3    H149516   5.406   6.584  14.004 -1.0525 -1.8804 -2.4476
 9367TIP3    H249517   5.483   6.454  14.014  1.0317 -0.6422 -2.0512
 9368TIP3   OH249518   1.327   3.989  13.781 -0.3848 -0.2009 -0.0784
 9368TIP3    H149519   1.343   3.895  13.787  2.4357  0.2355  1.2405
 9368TIP3    H249520   1.310   4.005  13.689  0.2972 -1.8542 -0.5288
 9369TIP3   OH249521   1.167   3.323  14.123  0.1283  0.2067 -0.4784
 9369TIP3    H149522   1.093   3.302  14.180  0.7447 -0.0836  0.2314
 9369TIP3    H249523   1.206   3.401  14.162 -0.9941  1.6091 -2.0092
 9370TIP3   OH249524   2.226   5.215   5.022  0.1433  0.3209 -0.5326
 9370TIP3    H149525   2.300   5.180   5.071  1.0720  1.1522 -1.2918
 9370TIP3    H249526   2.190   5.283   5.079 -1.0761 -1.1752  0.5348
 9371TIP3   OH249527   1.782   2.254  11.312  0.2132  0.4539 -0.6808
 9371TIP3    H149528   1.875   2.268  11.297  0.4918  1.3966  1.5452
 9371TIP3    H249529   1.774   2.160  11.330  0.5653  0.2141 -1.7095
 9372TIP3   OH249530   1.469   4.802   4.410 -0.4628  0.4315  0.1128
 9372TIP3    H149531   1.474   4.889   4.369 -0.2022  0.9606  1.2218
 9372TIP3    H249532   1.530   4.748   4.360 -1.5703  0.5272 -1.4050
 9373TIP3   OH249533   2.910   5.844  13.987 -0.8929  0.0398 -0.0454
 9373TIP3    H149534   2.876   5.915  14.042  0.0016  2.1242 -2.0558
 9373TIP3    H249535   3.003   5.838  14.009 -0.7789  0.0907 -0.5031
 9374TIP3   OH249536   6.578   1.439   4.979 -0.3339 -0.0082  0.4559
 9374TIP3    H149537   6.503   1.387   5.007  0.2947 -0.5826  1.1149
 9374TIP3    H249538   6.619   1.469   5.060  0.1288  0.3226  0.1086
 9375TIP3   OH249539   3.621   0.566   2.520  0.4140 -0.3740 -0.5469
 9375TIP3    H149540   3.544   0.541   2.571 -0.6503 -0.7940 -2.2498
 9375TIP3    H249541   3.585   0.614   2.445  2.0200  1.5730 -0.1574
 9376TIP3   OH249542   0.653   4.175   0.246 -0.3713  0.3785 -0.0822
 9376TIP3    H149543   0.727   4.195   0.303  0.3430 -1.2736 -0.3921
 9376TIP3    H249544   0.647   4.080   0.245 -1.4538  0.4243 -1.4115
 9377TIP3   OH249545   6.691   1.943  11.141 -0.2372 -0.0629  0.4324
 9377TIP3    H149546   6.616   1.908  11.094 -0.8766  1.5230  0.2275
 9377TIP3    H249547   6.695   2.035  11.116  1.4659  0.0101  0.8433
 9378TIP3   OH249548   0.267   5.974  11.991  0.1227 -0.1670 -0.0664
 9378TIP3    H149549   0.272   5.907  12.059 -1.5698 -0.0433  0.2157
 9378TIP3    H249550   0.305   6.052  12.031 -0.9310 -0.0725  0.7749
 9379TIP3   OH249551   5.992   1.959  11.428  0.2220  0.3289  0.1136
 9379TIP3    H149552   5.953   1.875  11.451  0.1822  0.6357  1.1970
 9379TIP3    H249553   6.075   1.936  11.386 -1.2290 -0.3498 -2.6009
 9380TIP3   OH249554   4.353   1.273  14.871 -0.2677  0.3340  0.5258
 9380TIP3    H149555   4.372   1.240  14.783  0.4130 -0.2267  0.8746
 9380TIP3    H249556   4.261   1.301  14.866 -0.4652 -0.3725 -0.1611
 9381TIP3   OH249557   4.588   6.481  15.925 -0.0497  0.3682  0.6766
 9381TIP3    H149558   4.606   6.575  15.930 -0.7931  0.4796  1.4450
 9381TIP3    H249559   4.505   6.469  15.971  0.9979 -0.9392  2.3776
 9382TIP3   OH249560   2.797   5.803   6.515  0.1299 -0.0674  0.2887
 9382TIP3    H149561   2.720   5.747   6.520  0.4878 -0.4907  1.1502
 9382TIP3    H249562   2.762   5.890   6.493 -0.7446  0.0651  2.0248
 9383TIP3   OH249563   2.932   5.225  15.253  0.1760  0.1833  0.3387
 9383TIP3    H149564   2.877   5.154  15.286  0.4855 -0.5561 -0.6879
 9383TIP3    H249565   3.017   5.212  15.296  1.3619 -2.2516 -2.3801
 9384TIP3   OH249566   2.291   1.307  11.006  0.4346 -0.3577 -0.1814
 9384TIP3    H149567   2.368   1.343  11.051  0.1103  0.3181 -0.1466
 9384TIP3    H249568   2.221   1.312  11.070 -0.0065  0.5052 -0.7017
 9385TIP3   OH249569   5.385   4.905   1.336 -0.1839  0.7443 -0.0040
 9385TIP3    H149570   5.458   4.964   1.315 -0.1529  0.6937 -0.0393
 9385TIP3    H249571   5.408   4.868   1.421  0.8006 -0.7534 -0.8641
 9386TIP3   OH249572   6.643   2.852   3.606  0.2240  0.6442  0.2539
 9386TIP3    H149573   6.552   2.881   3.620 -0.4757 -0.5518 -1.4513
 9386TIP3    H249574   6.686   2.927   3.567 -0.1540  1.0888  0.6813
 9387TIP3   OH249575   1.423   0.957   6.113 -0.2544  0.2507 -0.1339
 9387TIP3    H149576   1.341   0.984   6.071 -0.0726  0.0828 -0.6065
 9387TIP3    H249577   1.461   1.038   6.147 -1.6841  0.0883  2.0763
 9388TIP3   OH249578   1.266   5.831  16.570  0.1250  0.0791 -0.2365
 9388TIP3    H149579   1.205   5.758  16.578  0.8252 -0.3303  1.9285
 9388TIP3    H249580   1.251   5.866  16.482 -2.9050 -0.2687  0.0552
 9389TIP3   OH249581   0.536   5.693   5.554  0.2740 -0.0865  0.1600
 9389TIP3    H149582   0.499   5.740   5.479 -0.3843  0.5509  0.8635
 9389TIP3    H249583   0.623   5.731   5.565 -0.0985  0.7152  0.4713
 9390TIP3   OH249584   0.227   1.448  13.307 -0.4013  0.0347 -0.1135
 9390TIP3    H149585   0.307   1.411  13.270 -0.5403 -0.6140  0.2235
 9390TIP3    H249586   0.175   1.372  13.333 -1.2744  0.4406 -0.6219
 9391TIP3   OH249587   4.044   2.641   2.119  0.1291 -0.6024  0.5669
 9391TIP3    H149588   3.969   2.639   2.178  1.5558 -0.6061  2.4552
 9391TIP3    H249589   4.056   2.733   2.097  0.2630 -0.4695  1.1901
 9392TIP3   OH249590   3.954   2.203   1.777 -0.4924 -0.8035  0.2625
 9392TIP3    H149591   3.928   2.290   1.805  2.0227  0.4752 -1.0587
 9392TIP3    H249592   3.887   2.177   1.712 -0.8920  0.4273  0.1650
 9393TIP3   OH249593   3.176   4.754   3.652 -0.2766  0.4529  0.1182
 9393TIP3    H149594   3.145   4.839   3.623 -0.6604  0.1786 -0.2783
 9393TIP3    H249595   3.235   4.774   3.725  0.1304  1.0947 -0.3756
 9394TIP3   OH249596   2.666   3.527  13.700 -0.2132  0.4534  0.0883
 9394TIP3    H149597   2.700   3.506  13.787  0.9079  0.9405 -0.2147
 9394TIP3    H249598   2.722   3.478  13.640  0.9373  2.3866 -0.4950
 9395TIP3   OH249599   5.017   5.237   4.110  0.2107  0.1015  0.3466
 9395TIP3    H149600   5.103   5.218   4.072  0.8049  2.0284  0.6220
 9395TIP3    H249601   5.028   5.220   4.204  1.7256  4.3212  1.1649
 9396TIP3   OH249602   5.131   6.345  11.838  0.2028  0.6999 -0.1764
 9396TIP3    H149603   5.167   6.411  11.898  0.1042  0.2294  0.4181
 9396TIP3    H249604   5.062   6.302  11.889  0.5011 -0.0960 -0.4261
 9397TIP3   OH249605   3.526   0.755   1.270 -0.0614 -0.8646 -0.1292
 9397TIP3    H149606   3.516   0.670   1.227 -1.6908 -0.6993 -0.1355
 9397TIP3    H249607   3.464   0.753   1.342  0.8583 -0.1747  0.7183
 9398TIP3   OH249608   2.897   1.548   1.064 -0.6710  0.6694 -0.0669
 9398TIP3    H149609   2.983   1.589   1.061  0.8159 -2.0529  1.4671
 9398TIP3    H249610   2.871   1.552   1.156 -0.4731 -1.5808  0.1594
 9399TIP3   OH249611   4.716   2.160  13.583  0.3158 -0.6133 -0.0447
 9399TIP3    H149612   4.797   2.147  13.533  1.0346 -0.0536  0.9377
 9399TIP3    H249613   4.706   2.079  13.634 -0.1125 -0.9532 -0.6567
 9400TIP3   OH249614   3.156   2.587   2.379  0.0864  0.4322  0.2483
 9400TIP3    H149615   3.222   2.525   2.409  0.0186  0.4850  0.5063
 9400TIP3    H249616   3.198   2.632   2.305 -0.3283 -0.7951 -0.7818
 9401TIP3   OH249617   6.244   0.780   2.347  0.0887 -0.0015 -0.4877
 9401TIP3    H149618   6.152   0.768   2.368 -0.3887  2.3547 -0.9565
 9401TIP3    H249619   6.263   0.711   2.283 -1.9100  0.6683 -1.9046
 9402TIP3   OH249620   3.248   0.183   6.699 -0.0509 -0.3015  0.0920
 9402TIP3    H149621   3.182   0.115   6.683  0.3952 -0.8685  0.6147
 9402TIP3    H249622   3.266   0.220   6.613 -0.3147 -0.8314 -0.1969
 9403TIP3   OH249623   5.863   0.984  16.597  0.1744 -0.2978  0.2020
 9403TIP3    H149624   5.816   0.918  16.547 -0.1429  0.1012 -0.0338
 9403TIP3    H249625   5.813   0.993  16.678 -0.5910  0.6567 -0.3582
 9404TIP3   OH249626   3.987   5.089  16.221  0.6554  0.2591 -0.1843
 9404TIP3    H149627   3.996   5.073  16.315 -0.2827  2.8809  0.4420
 9404TIP3    H249628   3.896   5.117  16.210  1.3020  2.0982 -1.4616
 9405TIP3   OH249629   4.489   6.721   3.078 -0.2584 -0.2631 -0.0355
 9405TIP3    H149630   4.446   6.640   3.106 -0.3622 -0.4462 -0.6957
 9405TIP3    H249631   4.538   6.696   2.999  0.4077  0.1262  0.2485
 9406TIP3   OH249632   5.839   6.325  13.054 -0.0242  0.3935  0.1844
 9406TIP3    H149633   5.841   6.387  13.127 -0.6731  1.7456 -0.8862
 9406TIP3    H249634   5.903   6.360  12.992 -0.8128  0.3334 -0.6875
 9407TIP3   OH249635   0.010   6.682   0.437  0.6585  0.2731  0.0239
 9407TIP3    H149636  -0.061   6.618   0.445 -0.1870  1.2951  1.0353
 9407TIP3    H249637   0.090   6.629   0.439  0.0115 -0.7161  1.4445
 9408TIP3   OH249638   0.018   5.230  10.838  0.1759  0.0198  0.4519
 9408TIP3    H149639  -0.055   5.291  10.838  0.6664  0.6142  0.1789
 9408TIP3    H249640   0.071   5.255  10.763  0.6018 -0.4834  0.5749
 9409TIP3   OH249641   2.872   5.334  16.829  0.3888 -0.1547  0.6040
 9409TIP3    H149642   2.903   5.410  16.780 -0.6474 -1.2183 -1.9063
 9409TIP3    H249643   2.788   5.360  16.864 -0.2845 -0.2876 -0.8269
 9410TIP3   OH249644   5.096   3.287  13.531  0.6916 -0.1277  0.2786
 9410TIP3    H149645   5.001   3.288  13.543  0.5680 -2.9253  0.2977
 9410TIP3    H249646   5.111   3.215  13.469  2.6929  1.4341 -1.1687
 9411TIP3   OH249647   3.058   2.818  15.758 -0.0408 -0.2424  0.3361
 9411TIP3    H149648   3.077   2.817  15.665 -0.1596  1.1590  0.2739
 9411TIP3    H249649   3.036   2.909  15.777 -4.9606 -1.2606  0.7583
 9412TIP3   OH249650   6.709   2.690  12.887  0.1265  0.1150  0.7345
 9412TIP3    H149651   6.616   2.673  12.876 -0.1028  1.8991 -0.4975
 9412TIP3    H249652   6.751   2.607  12.865 -1.1005 -0.3069 -0.1497
 9413TIP3   OH249653   0.477   3.947  16.866 -0.4454  0.3615  0.6157
 9413TIP3    H149654   0.429   3.865  16.850  0.9648 -0.2369 -0.8643
 9413TIP3    H249655   0.564   3.930  16.830  0.5750  1.7594  2.3297
 9414TIP3   OH249656   5.127   0.577   3.192  0.0637 -0.3129  0.1161
 9414TIP3    H149657   5.101   0.626   3.270  0.1968 -3.1957  2.1375
 9414TIP3    H249658   5.053   0.519   3.174  0.8070 -1.0567 -0.6958
 9415TIP3   OH249659   0.112   2.059   5.592  0.4303  0.3864 -0.0431
 9415TIP3    H149660   0.086   2.110   5.668 -0.9942  1.1953 -1.0229
 9415TIP3    H249661   0.109   1.968   5.621 -0.3178  0.6673  0.8014
 9416TIP3   OH249662   4.802   3.443  13.308  0.4082  0.0675  0.0387
 9416TIP3    H149663   4.823   3.387  13.383  1.5779 -0.7920 -0.8872
 9416TIP3    H249664   4.879   3.437  13.251  0.0526  1.6775 -0.6686
 9417TIP3   OH249665   2.572   3.286   4.470 -0.2652 -0.1592 -0.5120
 9417TIP3    H149666   2.495   3.241   4.436  0.0204 -0.0717 -1.2994
 9417TIP3    H249667   2.610   3.330   4.394 -1.0453  2.1855  0.3388
 9418TIP3   OH249668   4.113   6.208  14.930 -0.7446  0.1158  0.0911
 9418TIP3    H149669   4.186   6.266  14.954 -1.6690  1.4463 -0.1944
 9418TIP3    H249670   4.135   6.179  14.841 -0.2919  0.0541  0.2190
 9419TIP3   OH249671   2.270   4.459  11.891  0.4208  0.1264 -0.2272
 9419TIP3    H149672   2.253   4.388  11.952  1.5444 -1.1671 -1.3551
 9419TIP3    H249673   2.198   4.455  11.828  1.7126 -1.6718 -1.7077
 9420TIP3   OH249674   4.292   5.523   5.538  0.4770  0.3684  0.1208
 9420TIP3    H149675   4.366   5.582   5.553  1.4628 -0.9757  0.8377
 9420TIP3    H249676   4.313   5.445   5.590 -1.6636  0.1068  0.6688
 9421TIP3   OH249677   1.585   4.875  15.280  0.0858  0.2676  0.3254
 9421TIP3    H149678   1.646   4.883  15.354  0.6068  1.2203 -0.1800
 9421TIP3    H249679   1.618   4.938  15.215 -1.2912  0.6195 -0.0666
 9422TIP3   OH249680   5.212   1.710  16.439 -0.3481  0.1449 -0.7168
 9422TIP3    H149681   5.208   1.758  16.356  1.4832  0.4169 -0.6889
 9422TIP3    H249682   5.257   1.629  16.417  0.1529  0.2206  0.0017
 9423TIP3   OH249683   5.028   5.414  10.855 -0.3245 -0.1441  0.2477
 9423TIP3    H149684   5.035   5.379  10.766 -0.2876 -1.2240  0.6708
 9423TIP3    H249685   5.049   5.341  10.912 -1.0749  0.3371  1.1747
 9424TIP3   OH249686   1.908   2.693   3.282  0.0444  0.3320 -0.3999
 9424TIP3    H149687   1.938   2.781   3.303 -0.0326  0.4481 -0.7802
 9424TIP3    H249688   1.908   2.689   3.186  1.4285 -0.5374 -0.4082
 9425TIP3   OH249689   5.685   4.811  14.288 -0.1235 -0.0859  0.1819
 9425TIP3    H149690   5.671   4.727  14.245  0.5867 -0.5811  0.8859
 9425TIP3    H249691   5.771   4.841  14.258 -0.5780  0.6394 -0.4438
 9426TIP3   OH249692   2.335   2.413  14.186 -0.5041 -0.2315  0.0165
 9426TIP3    H149693   2.399   2.357  14.143 -1.3696 -1.0470 -0.2457
 9426TIP3    H249694   2.311   2.478  14.119 -1.5779 -1.2754 -0.6576
 9427TIP3   OH249695   5.774   0.848  11.096  0.0534 -0.5164 -0.0347
 9427TIP3    H149696   5.757   0.842  11.002  0.3242 -0.0885 -0.1137
 9427TIP3    H249697   5.867   0.871  11.102 -0.0643 -0.1243  0.3257
 9428TIP3   OH249698   0.751   5.403   0.018 -0.0097 -0.4114 -0.3039
 9428TIP3    H149699   0.702   5.425   0.098  0.2657 -0.6029 -0.0777
 9428TIP3    H249700   0.717   5.318  -0.008  1.5894 -1.5294  1.0104
 9429TIP3   OH249701   6.639   3.508  11.173 -0.3951 -0.0036 -0.1645
 9429TIP3    H149702   6.599   3.438  11.122  1.4158 -1.1995 -0.0129
 9429TIP3    H249703   6.725   3.520  11.133 -0.5764  2.0136 -0.0487
 9430TIP3   OH249704   0.498   5.879   1.051  0.5957  0.3196 -0.2867
 9430TIP3    H149705   0.423   5.832   1.088  0.0655  2.0558  0.9538
 9430TIP3    H249706   0.491   5.865   0.956 -0.2284 -1.0372 -0.0556
 9431TIP3   OH249707   1.450   1.543  16.163  0.4746 -0.4847  0.6595
 9431TIP3    H149708   1.487   1.571  16.079 -0.5069 -0.0960  0.3471
 9431TIP3    H249709   1.357   1.532  16.146  0.2447 -0.3063  1.7282
 9432TIP3   OH249710   2.027   5.918   0.513 -0.0320 -0.3826 -0.3960
 9432TIP3    H149711   1.998   5.954   0.429 -1.5617 -2.1496 -0.6895
 9432TIP3    H249712   1.999   5.826   0.510  0.6255 -0.6959  1.7178
 9433TIP3   OH249713   1.949   1.250   2.572 -0.1173 -0.0668  0.2255
 9433TIP3    H149714   1.970   1.342   2.586 -2.7158  0.4196  1.4017
 9433TIP3    H249715   1.993   1.204   2.644  0.2342  0.3821  0.3039
 9434TIP3   OH249716   4.512   2.521  15.426 -0.5578 -0.0238 -0.0761
 9434TIP3    H149717   4.447   2.535  15.494  1.3729  2.0903  1.5098
 9434TIP3    H249718   4.592   2.561  15.461  0.8506  0.1145 -3.1064
 9435TIP3   OH249719   2.351   1.352  16.534  0.0209  0.4979 -0.0088
 9435TIP3    H149720   2.390   1.433  16.502 -1.6333  1.0162 -0.8349
 9435TIP3    H249721   2.396   1.283  16.485 -0.3718  1.1085 -1.2803
 9436TIP3   OH249722   3.806   6.755  15.101  0.3005  0.1929 -0.3909
 9436TIP3    H149723   3.813   6.850  15.094 -0.8446  0.2932 -0.2662
 9436TIP3    H249724   3.735   6.739  15.163 -0.7246 -0.7212 -1.7246
 9437TIP3   OH249725   4.020   0.960  11.296 -0.9165 -0.3624  0.1941
 9437TIP3    H149726   4.034   0.897  11.226  0.2004  0.2475 -0.1513
 9437TIP3    H249727   3.948   1.015  11.265  0.4747  0.7788 -1.1242
 9438TIP3   OH249728   4.332   6.569   5.124  0.2380  0.1446 -0.4604
 9438TIP3    H149729   4.349   6.475   5.118  0.4736  0.1062  0.6335
 9438TIP3    H249730   4.236   6.576   5.133  0.2605 -0.0205 -0.0860
 9439TIP3   OH249731   1.690   3.814   1.409  0.0746  0.3786  0.2371
 9439TIP3    H149732   1.762   3.810   1.471  1.9698  0.6480 -1.8271
 9439TIP3    H249733   1.713   3.751   1.341 -3.2398 -1.9249  0.9831
 9440TIP3   OH249734   3.341   5.571  14.506 -0.4207  0.2651 -0.4798
 9440TIP3    H149735   3.380   5.649  14.546 -0.7193 -0.2899  0.9489
 9440TIP3    H249736   3.397   5.553  14.431 -0.5043  1.9989 -0.9970
 9441TIP3   OH249737   5.673   6.192   1.036  0.1827 -0.6945  0.3121
 9441TIP3    H149738   5.625   6.119   0.997  1.5757 -1.1504 -0.6385
 9441TIP3    H249739   5.681   6.256   0.965  0.9402 -0.6260  0.4468
 9442TIP3   OH249740   6.557   3.476   1.228  0.2851 -0.1245  0.3467
 9442TIP3    H149741   6.547   3.382   1.247  0.9987 -0.2751 -0.0036
 9442TIP3    H249742   6.629   3.504   1.285  0.2275  0.1605  0.2811
 9443TIP3   OH249743   0.111   5.136   2.586 -0.3779  0.1548  0.6743
 9443TIP3    H149744   0.095   5.149   2.679  0.6521 -0.2907  0.9312
 9443TIP3    H249745   0.167   5.209   2.561 -2.6624  1.7252 -0.2193
 9444TIP3   OH249746   6.694   2.593   5.933  0.1319 -0.3479 -0.6607
 9444TIP3    H149747   6.738   2.651   5.871 -2.8411  1.1818 -1.5300
 9444TIP3    H249748   6.606   2.581   5.896 -0.2578 -3.2121  0.9384
 9445TIP3   OH249749   4.155   3.858  11.665  0.5872 -0.1225 -0.3057
 9445TIP3    H149750   4.129   3.802  11.592 -0.8390 -1.0781  0.8686
 9445TIP3    H249751   4.150   3.947  11.630  0.6558 -0.5937 -1.5667
 9446TIP3   OH249752   3.087   0.681  16.994  0.4175 -0.2056 -0.1033
 9446TIP3    H149753   3.027   0.750  17.021  0.0656  0.0389 -1.4817
 9446TIP3    H249754   3.044   0.638  16.921  1.9757  0.0769 -1.2443
 9447TIP3   OH249755   0.818   1.360  13.179 -0.2542 -0.0609 -1.0887
 9447TIP3    H149756   0.895   1.374  13.123  1.1252 -1.3733  0.3579
 9447TIP3    H249757   0.825   1.430  13.245  2.5687 -2.7848  1.8805
 9448TIP3   OH249758   3.788   2.005  11.030 -0.9432  0.3643 -0.1591
 9448TIP3    H149759   3.836   2.040  11.105 -1.6090 -0.3568  0.6160
 9448TIP3    H249760   3.790   2.076  10.966  0.8698  0.4870 -0.0375
 9449TIP3   OH249761   0.632   0.882  16.354  0.8839 -0.0683 -0.2295
 9449TIP3    H149762   0.552   0.895  16.404  0.3879 -1.1460 -0.7222
 9449TIP3    H249763   0.653   0.969  16.319 -0.3371  0.1343 -0.4954
 9450TIP3   OH249764   6.268   2.614   0.805  0.4081 -0.2532 -0.4906
 9450TIP3    H149765   6.229   2.527   0.796  0.1840 -0.1124 -0.9222
 9450TIP3    H249766   6.208   2.661   0.863  1.0035 -0.6616  0.4755
 9451TIP3   OH249767   0.168   0.807   5.605 -0.4412  0.0222 -0.0237
 9451TIP3    H149768   0.231   0.745   5.642  0.1138  0.0080 -0.9615
 9451TIP3    H249769   0.099   0.814   5.671  0.1677 -0.5460  0.6872
 9452TIP3   OH249770   1.536   2.839   1.185  0.1443  0.2504  0.0159
 9452TIP3    H149771   1.554   2.767   1.246  1.3244 -0.6588 -1.3345
 9452TIP3    H249772   1.544   2.918   1.239  1.0426 -0.5188  1.0801
 9453TIP3   OH249773   2.455   5.281   0.071 -0.0592  0.3233  0.4500
 9453TIP3    H149774   2.482   5.350   0.010  2.4716  0.5251  1.6807
 9453TIP3    H249775   2.496   5.202   0.037  0.0758  0.1368  1.0345
 9454TIP3   OH249776   3.449   1.457   5.831 -0.1528 -0.0711  0.5802
 9454TIP3    H149777   3.356   1.440   5.848 -0.2872 -1.8826 -1.5613
 9454TIP3    H249778   3.488   1.467   5.918 -2.3708  1.0311  1.5110
 9455TIP3   OH249779   1.566   4.672   0.123 -0.1192  0.1881 -0.2850
 9455TIP3    H149780   1.577   4.607   0.192 -1.5398 -0.3326 -0.5121
 9455TIP3    H249781   1.592   4.627   0.043  0.6760  0.5085 -0.2155
 9456TIP3   OH249782   3.595   0.628  12.249  0.0051  0.1326 -0.5354
 9456TIP3    H149783   3.627   0.632  12.339 -0.1118 -0.7226 -0.4414
 9456TIP3    H249784   3.502   0.647  12.254 -0.5906 -2.5218 -0.0839
 9457TIP3   OH249785   3.323   5.987  14.705 -0.4570 -0.7618  0.2446
 9457TIP3    H149786   3.364   6.069  14.732  0.7558 -0.8570 -1.1481
 9457TIP3    H249787   3.388   5.919  14.725  0.1682 -0.9112 -2.0013
 9458TIP3   OH249788   6.448   6.662  14.345 -0.0902 -0.5254  0.0642
 9458TIP3    H149789   6.353   6.659  14.359 -0.2893 -0.5619 -1.1399
 9458TIP3    H249790   6.480   6.580  14.384 -1.0038 -2.1152 -2.2517
 9459TIP3   OH249791   2.234   1.839   2.633  0.4496 -0.3264 -0.1882
 9459TIP3    H149792   2.256   1.894   2.708  1.7961 -1.3722  0.2370
 9459TIP3    H249793   2.139   1.833   2.634  0.3605  0.8009  0.5989
 9460TIP3   OH249794   1.522   0.033  12.610  0.5505 -0.1278  0.0931
 9460TIP3    H149795   1.495  -0.025  12.681  1.5503 -0.1008  0.5149
 9460TIP3    H249796   1.614   0.011  12.595  0.6735  0.6817 -0.4026
 9461TIP3   OH249797   6.790   0.126   3.437 -0.1595  0.2884  0.4093
 9461TIP3    H149798   6.700   0.160   3.431 -0.0868  0.4424  0.1569
 9461TIP3    H249799   6.783   0.035   3.411 -0.0969  0.5469 -0.5498
 9462TIP3   OH249800   5.865   4.644   1.935  0.1483  0.2251  0.3181
 9462TIP3    H149801   5.936   4.694   1.976  0.9595 -0.5609 -0.0740
 9462TIP3    H249802   5.910   4.587   1.872 -0.8064 -0.5445  0.3155
 9463TIP3   OH249803   6.357   0.496  11.483  0.3875  0.0312 -0.5380
 9463TIP3    H149804   6.392   0.558  11.419 -0.0204 -0.0282 -0.8298
 9463TIP3    H249805   6.421   0.426  11.487  1.7746  1.3234  1.1696
 9464TIP3   OH249806   2.742   0.829   4.576  0.1626 -0.8909  0.4823
 9464TIP3    H149807   2.815   0.874   4.533  1.3326 -0.8945  2.3590
 9464TIP3    H249808   2.665   0.878   4.548  1.2127  1.1691  0.9423
 9465TIP3   OH249809   3.643   3.020  11.276  0.1131  0.2185 -0.1247
 9465TIP3    H149810   3.595   3.099  11.302  1.3743  0.7091  0.8117
 9465TIP3    H249811   3.729   3.052  11.250 -0.1282 -0.6200 -2.0573
 9466TIP3   OH249812   2.798   1.852  14.581 -0.4541 -0.4396 -0.4059
 9466TIP3    H149813   2.721   1.878  14.632  1.0727 -1.4348  2.6415
 9466TIP3    H249814   2.857   1.927  14.587 -0.7957  0.0051 -2.0503
 9467TIP3   OH249815   3.065   6.721  13.145  0.3253 -0.6149 -0.3112
 9467TIP3    H149816   3.158   6.709  13.128  1.1566  0.8016  2.5220
 9467TIP3    H249817   3.050   6.815  13.133 -1.0044 -0.9445 -1.5789
 9468TIP3   OH249818   1.781   0.757   5.493 -0.6250  0.3989 -0.6360
 9468TIP3    H149819   1.777   0.852   5.480  0.1497  0.5056 -0.1613
 9468TIP3    H249820   1.822   0.747   5.579 -3.3508 -0.2972  0.7036
 9469TIP3   OH249821   3.492   1.430   4.486  0.1805 -0.0254  0.0301
 9469TIP3    H149822   3.463   1.357   4.540  1.4900  0.7601  1.9014
 9469TIP3    H249823   3.553   1.479   4.542  1.7553  0.7613 -2.2266
 9470TIP3   OH249824   4.574   5.327   4.628  0.5225 -0.7054 -0.1252
 9470TIP3    H149825   4.587   5.363   4.715 -0.6593 -0.4566 -0.0379
 9470TIP3    H249826   4.540   5.239   4.643  0.1971 -0.6166 -0.3253
 9471TIP3   OH249827   5.239   1.950  13.127  0.7118  0.3073  0.7672
 9471TIP3    H149828   5.301   2.020  13.149  1.1368  0.1921  0.0093
 9471TIP3    H249829   5.252   1.937  13.033 -0.3829  0.1885  0.6250
 9472TIP3   OH249830   4.856   5.610  15.574  0.7094 -0.1623 -0.2186
 9472TIP3    H149831   4.878   5.522  15.604  1.7646  0.5256  1.0951
 9472TIP3    H249832   4.859   5.665  15.652  1.6102  1.3323 -1.2236
 9473TIP3   OH249833   5.464   4.367  13.647  0.2500 -0.2894  0.0479
 9473TIP3    H149834   5.518   4.443  13.670 -1.1279  0.9214 -0.5853
 9473TIP3    H249835   5.512   4.325  13.575  1.6596 -0.8045  1.2220
 9474TIP3   OH249836   5.459   3.831   4.046  0.1789  0.3508 -0.0698
 9474TIP3    H149837   5.414   3.760   4.001  0.7470 -0.1765  0.1813
 9474TIP3    H249838   5.552   3.810   4.037  0.3262  0.6790  0.6194
 9475TIP3   OH249839   0.493   3.141   3.624 -0.2591 -0.6240  0.2924
 9475TIP3    H149840   0.551   3.171   3.554  0.1087 -0.2265  0.7597
 9475TIP3    H249841   0.550   3.134   3.701 -0.2385 -2.8729  0.1273
 9476TIP3   OH249842   5.216   2.340  10.910 -0.1453 -0.0855 -1.1878
 9476TIP3    H149843   5.212   2.252  10.873 -0.5358 -0.1543 -0.9850
 9476TIP3    H249844   5.251   2.328  10.998 -3.0970 -0.4401  0.0491
 9477TIP3   OH249845   6.533   5.099  16.475 -0.3266 -0.1315  0.6291
 9477TIP3    H149846   6.493   5.177  16.514 -0.6415 -0.5931  1.2492
 9477TIP3    H249847   6.506   5.101  16.383  0.3655  0.9321  0.4370
 9478TIP3   OH249848   1.928   3.470  12.138 -0.0551  0.0295  0.8527
 9478TIP3    H149849   1.912   3.388  12.091 -0.1099 -0.1160  1.1200
 9478TIP3    H249850   1.995   3.448  12.203 -0.3509  0.0970  1.1844
 9479TIP3   OH249851   6.320   3.197  11.149  0.1574  0.1287 -0.5095
 9479TIP3    H149852   6.410   3.175  11.173 -0.3061 -1.3865 -0.0855
 9479TIP3    H249853   6.282   3.233  11.230 -0.2246 -1.2634 -0.0300
 9480TIP3   OH249854   0.800   3.660   0.366  0.8349  0.3655  0.3829
 9480TIP3    H149855   0.805   3.576   0.321  1.0447  0.0748  0.9450
 9480TIP3    H249856   0.880   3.665   0.418  0.2567  0.3559  1.3067
 9481TIP3   OH249857   1.363   3.133  14.102  0.3055 -0.4809  0.7000
 9481TIP3    H149858   1.277   3.163  14.133  0.2419 -0.5817  0.6228
 9481TIP3    H249859   1.365   3.159  14.010  0.8986  0.7233  1.0199
 9482TIP3   OH249860   1.673   0.433  16.208  0.2648 -0.1776 -0.1989
 9482TIP3    H149861   1.752   0.478  16.237  0.6473 -1.2617  0.4788
 9482TIP3    H249862   1.699   0.388  16.128  0.2461 -0.2819 -0.1464
 9483TIP3   OH249863   1.859   3.173  12.605  0.4531  0.1875 -0.1421
 9483TIP3    H149864   1.815   3.097  12.566  1.9896 -1.5244  1.2728
 9483TIP3    H249865   1.789   3.236  12.619 -1.1606 -1.5121 -0.0807
 9484TIP3   OH249866   5.192   4.206  10.391 -0.3691 -0.1595 -0.0104
 9484TIP3    H149867   5.124   4.140  10.409  1.4523 -1.3685  3.2911
 9484TIP3    H249868   5.177   4.275  10.456  1.0020 -0.0344  0.2100
 9485TIP3   OH249869   3.453   4.752   3.090  0.3670 -0.4584  0.3941
 9485TIP3    H149870   3.395   4.816   3.130  0.4753 -0.1716  0.0976
 9485TIP3    H249871   3.456   4.777   2.997  1.0366 -0.4153  0.4207
 9486TIP3   OH249872   3.181   5.826  15.918 -0.2777 -0.1807  0.1111
 9486TIP3    H149873   3.138   5.761  15.861  0.9890 -1.8865  1.0222
 9486TIP3    H249874   3.273   5.825  15.891  0.5567 -1.7062  2.6946
 9487TIP3   OH249875   5.509   0.706  13.000 -0.1208 -0.2800 -0.7104
 9487TIP3    H149876   5.523   0.617  12.969 -0.4844 -1.0107  1.1026
 9487TIP3    H249877   5.424   0.703  13.044  0.1933  0.7887  0.0097
 9488TIP3   OH249878   3.993   4.593  12.465 -0.3028 -0.2985 -0.1628
 9488TIP3    H149879   3.903   4.572  12.440 -0.5531  0.4520  0.0693
 9488TIP3    H249880   4.015   4.669  12.412  1.0794 -1.8893 -2.0197
 9489TIP3   OH249881   4.243   6.019   1.003 -0.5118 -0.4410 -0.2669
 9489TIP3    H149882   4.179   5.952   0.979 -0.9045 -0.1331 -0.0802
 9489TIP3    H249883   4.283   6.043   0.920 -1.5563  0.2978 -0.5789
 9490TIP3   OH249884   3.601   6.397  12.165 -0.2276  0.0838 -1.0116
 9490TIP3    H149885   3.529   6.422  12.108 -0.0258  0.8364 -0.9407
 9490TIP3    H249886   3.561   6.388  12.252 -0.2641  0.3671 -0.9987
 9491TIP3   OH249887   1.686   0.569   1.550  0.6299 -0.3253 -0.5863
 9491TIP3    H149888   1.626   0.641   1.532 -1.6895 -1.9648  0.1676
 9491TIP3    H249889   1.743   0.566   1.472 -2.8330 -1.1384 -3.3395
 9492TIP3   OH249890   6.237   5.211   4.962  0.2108  0.2745 -0.4955
 9492TIP3    H149891   6.329   5.185   4.948 -0.5177 -2.1807 -1.2672
 9492TIP3    H249892   6.188   5.130   4.948 -2.0181  1.3336  0.8158
 9493TIP3   OH249893   4.492   0.113  16.187 -0.2458  0.5042 -0.0320
 9493TIP3    H149894   4.491   0.019  16.208  0.3106  0.9138  2.1272
 9493TIP3    H249895   4.539   0.119  16.105  0.3000 -1.0628  0.1276
 9494TIP3   OH249896   1.554   1.052   0.286  0.3533 -0.1106  0.4187
 9494TIP3    H149897   1.465   1.081   0.309 -0.7376 -1.7497 -1.3854
 9494TIP3    H249898   1.571   1.093   0.202  0.5560 -1.2007 -0.0885
 9495TIP3   OH249899   2.368   2.954  12.988  0.3155  0.5040  0.8829
 9495TIP3    H149900   2.451   2.937  13.031 -0.2868 -0.6359  1.6449
 9495TIP3    H249901   2.360   2.884  12.923  0.0960  0.7928  0.5927
 9496TIP3   OH249902   1.320   2.512  12.089  0.0900 -0.0757 -0.2753
 9496TIP3    H149903   1.359   2.427  12.069  2.3323  0.2726  2.1045
 9496TIP3    H249904   1.389   2.575  12.072 -1.3817  1.2936 -1.5232
 9497TIP3   OH249905   4.132   1.423   5.035 -0.1021 -0.1509 -0.6058
 9497TIP3    H149906   4.159   1.466   4.954  1.0352 -2.1680 -1.3835
 9497TIP3    H249907   4.036   1.424   5.032 -0.1326  2.2141 -0.5677
 9498TIP3   OH249908   0.962   2.779  11.521 -0.1365  0.0751 -0.1847
 9498TIP3    H149909   1.032   2.837  11.491 -1.6811  2.4847  0.5041
 9498TIP3    H249910   0.926   2.741  11.441  1.2268 -0.3541 -0.6205
 9499TIP3   OH249911   0.744   4.124   3.680 -0.8134  0.1301 -0.1489
 9499TIP3    H149912   0.747   4.154   3.589 -0.6880 -0.4528 -0.3427
 9499TIP3    H249913   0.814   4.173   3.723  0.1016 -0.6542 -0.7028
 9500TIP3   OH249914   1.100   1.184  11.438  0.6759 -0.1353  0.3929
 9500TIP3    H149915   1.166   1.117  11.420  0.1954  0.0106 -2.3070
 9500TIP3    H249916   1.020   1.135  11.456  0.7710 -0.2744  0.4398
 9501TIP3   OH249917   6.550   4.829   4.303 -0.3850 -0.1204  0.6055
 9501TIP3    H149918   6.639   4.795   4.299 -0.1436  0.5903 -0.5127
 9501TIP3    H249919   6.494   4.751   4.299  0.1038 -0.4483 -3.7030
 9502TIP3   OH249920   1.656   0.672   1.816  0.2598  0.0000  0.7809
 9502TIP3    H149921   1.727   0.731   1.791 -0.3474  1.1289  1.6013
 9502TIP3    H249922   1.604   0.662   1.735 -0.2704  1.5561  0.8808
 9503TIP3   OH249923   6.134   2.193   5.460  0.0073  0.0934  0.2548
 9503TIP3    H149924   6.151   2.206   5.553  0.4898 -1.6059  0.4221
 9503TIP3    H249925   6.204   2.135   5.430 -0.5600  0.0272 -1.0052
 9504TIP3   OH249926   5.816   6.523   4.442  0.1767  0.1699 -0.4930
 9504TIP3    H149927   5.781   6.516   4.353 -1.5011  1.4715  0.0213
 9504TIP3    H249928   5.739   6.519   4.499  1.1578  0.0352  0.8796
 9505TIP3   OH249929   3.308   4.971   4.171  0.5065 -0.4471  0.5445
 9505TIP3    H149930   3.287   4.965   4.264  0.2360  0.6721  0.5743
 9505TIP3    H249931   3.391   5.019   4.168  0.7938 -0.9547  0.2285
 9506TIP3   OH249932   0.118   0.211   4.820  0.4071  0.0218 -0.0623
 9506TIP3    H149933   0.101   0.177   4.732 -0.1010  1.0186 -0.3612
 9506TIP3    H249934   0.213   0.218   4.825  0.6646 -2.5617  0.4608
 9507TIP3   OH249935   5.877   6.155  11.337  0.2146  0.4468 -0.3387
 9507TIP3    H149936   5.800   6.116  11.379  0.9117 -0.5180  0.0771
 9507TIP3    H249937   5.906   6.089  11.274 -0.0775  1.3659 -1.4747
 9508TIP3   OH249938   5.704   4.436   0.776 -0.3030  0.1371  0.9013
 9508TIP3    H149939   5.673   4.523   0.751 -0.1906 -0.1488 -0.2786
 9508TIP3    H249940   5.786   4.452   0.823  1.2151  0.5569 -1.7346
 9509TIP3   OH249941   5.756   3.447  15.514 -0.3472  0.7577 -0.0539
 9509TIP3    H149942   5.703   3.442  15.435  0.6001 -0.9404 -0.6329
 9509TIP3    H249943   5.841   3.479  15.484  0.1778 -0.3740  0.1460
 9510TIP3   OH249944   3.613   2.397  11.688  0.0050 -0.2552  0.1308
 9510TIP3    H149945   3.669   2.474  11.702 -0.1621 -0.3787  1.7558
 9510TIP3    H249946   3.661   2.326  11.731  0.3306 -1.1544 -1.6677
 9511TIP3   OH249947   0.045   4.714  14.346 -0.0168 -0.3144 -0.0435
 9511TIP3    H149948   0.003   4.640  14.303 -0.3479 -0.1857  0.0572
 9511TIP3    H249949   0.121   4.733  14.291  0.0123 -0.6619 -0.1262
 9512TIP3   OH249950   6.122   6.604   0.430  0.4423  0.2607 -0.0471
 9512TIP3    H149951   6.077   6.648   0.502 -2.0132  0.0718 -1.3676
 9512TIP3    H249952   6.058   6.602   0.360  3.1601  1.7628 -2.8379
 9513TIP3   OH249953   5.426   4.276   4.878  0.0509  0.3879 -0.1636
 9513TIP3    H149954   5.351   4.245   4.828  0.5418 -1.3972  0.1223
 9513TIP3    H249955   5.409   4.369   4.893 -1.1829  0.4404 -1.6884
 9514TIP3   OH249956   5.319   3.081   2.881 -0.1261 -0.3411  0.6421
 9514TIP3    H149957   5.334   3.060   2.789 -0.1382 -1.0449  0.7971
 9514TIP3    H249958   5.406   3.073   2.921  0.0883  1.0346  0.4942
 9515TIP3   OH249959   4.657   5.816  13.226 -0.3974  0.3458 -0.0833
 9515TIP3    H149960   4.736   5.837  13.176 -0.7215 -0.8871 -1.1947
 9515TIP3    H249961   4.588   5.810  13.159 -1.9053  3.2402  1.0315
 9516TIP3   OH249962   4.733   1.549   2.568 -0.1109  0.5745  0.1920
 9516TIP3    H149963   4.681   1.627   2.547 -0.8767 -0.1343 -0.6422
 9516TIP3    H249964   4.714   1.531   2.660 -1.4354  0.2699 -0.1284
 9517TIP3   OH249965   3.268   4.182  16.439  0.3209 -0.0390 -0.1576
 9517TIP3    H149966   3.180   4.204  16.408  0.0630  1.3043  1.3677
 9517TIP3    H249967   3.327   4.236  16.386  0.3486 -1.5257 -1.7336
 9518TIP3   OH249968   1.878   4.304  10.700 -0.0684  0.2328 -0.4434
 9518TIP3    H149969   1.897   4.360  10.625  0.7348 -1.2417 -1.3969
 9518TIP3    H249970   1.798   4.257  10.676 -0.0306  0.0460 -0.2152
 9519TIP3   OH249971   5.522   0.256  11.945  0.0978 -0.1178 -0.0360
 9519TIP3    H149972   5.442   0.263  11.997  1.4439 -0.3044  2.1693
 9519TIP3    H249973   5.592   0.281  12.005  1.6501  0.9976 -2.1879
 9520TIP3   OH249974   6.416   3.809  15.075  0.0467 -0.6456  0.0001
 9520TIP3    H149975   6.462   3.879  15.029 -0.7992  1.0044  1.5357
 9520TIP3    H249976   6.485   3.756  15.114  0.8082  1.5606  1.9446
 9521TIP3   OH249977   5.147   3.256  12.955  0.9376  0.3462  0.4880
 9521TIP3    H149978   5.192   3.323  12.903  0.2356  0.0284 -0.5736
 9521TIP3    H249979   5.065   3.298  12.981  1.6837  0.8298  2.1808
 9522TIP3   OH249980   1.682   3.620  15.674  0.0504 -0.1150  0.6097
 9522TIP3    H149981   1.756   3.591  15.621  1.6870  0.5724  2.3847
 9522TIP3    H249982   1.609   3.626  15.613  1.5230 -0.5426 -1.2743
 9523TIP3   OH249983   5.423   4.066   5.351 -0.2645 -0.4307  0.2770
 9523TIP3    H149984   5.396   4.064   5.259 -1.4258 -1.1004  0.6174
 9523TIP3    H249985   5.361   4.009   5.396 -1.4866  1.9982  1.9382
 9524TIP3   OH249986   2.655   2.112  10.819  0.0527  0.2889 -0.9090
 9524TIP3    H149987   2.645   2.031  10.870 -1.6764  2.0712  1.8344
 9524TIP3    H249988   2.574   2.118  10.768  1.0195 -0.5867 -2.6572
 9525TIP3   OH249989   5.621   3.550  11.964  0.4792 -0.7723  0.1967
 9525TIP3    H149990   5.641   3.587  12.050  0.7051  0.9639 -0.5579
 9525TIP3    H249991   5.530   3.575  11.948  0.2633 -1.5625  0.1430
 9526TIP3   OH249992   1.676   2.020  15.846  0.3008 -0.4918 -0.1163
 9526TIP3    H149993   1.685   2.046  15.754 -1.2655  3.8308  0.7376
 9526TIP3    H249994   1.756   2.051  15.888 -0.5865  1.0315  0.5354
 9527TIP3   OH249995   4.622   0.951  16.677 -0.7098 -0.3555 -0.8770
 9527TIP3    H149996   4.662   0.985  16.757 -0.3362  0.9101 -1.5759
 9527TIP3    H249997   4.541   0.909  16.707  0.5053 -1.9357  0.4204
 9528TIP3   OH249998   6.295   3.078   1.429  0.3714 -0.3536  0.4563
 9528TIP3    H149999   6.337   3.092   1.514 -0.3144  0.1493  0.7159
 9528TIP3    H250000   6.241   3.156   1.416  1.4955  0.2279 -1.0575
 9529TIP3   OH250001   1.300   3.903   3.739 -1.0911 -0.3827 -0.1297
 9529TIP3    H150002   1.220   3.864   3.775 -1.4612 -0.1476 -0.6781
 9529TIP3    H250003   1.272   3.989   3.707 -0.7091 -0.4537 -0.6782
 9530TIP3   OH250004   6.704   0.196   1.758 -0.4159  0.4030  0.2981
 9530TIP3    H150005   6.766   0.249   1.809 -0.2052 -1.1995  1.7999
 9530TIP3    H250006   6.619   0.212   1.800 -0.3718 -0.3058  0.6765
 9531TIP3   OH250007   4.736   0.253  12.698  0.1111 -0.0176 -0.1042
 9531TIP3    H150008   4.815   0.249  12.645  0.0797 -2.1248 -0.0798
 9531TIP3    H250009   4.720   0.347  12.711  2.1926  0.4596 -0.6831
 9532TIP3   OH250010   1.249   0.641   6.037  0.1077 -0.1999  0.0221
 9532TIP3    H150011   1.240   0.577   5.967  0.3363 -2.0569  1.5951
 9532TIP3    H250012   1.171   0.627   6.091  0.2075  0.8113  0.4426
 9533TIP3   OH250013   6.189   6.253   5.144 -0.1990 -0.3626 -0.1165
 9533TIP3    H150014   6.176   6.169   5.189 -0.7657 -0.7864 -1.0232
 9533TIP3    H250015   6.190   6.230   5.051  3.6505  0.1020 -0.3391
 9534TIP3   OH250016   3.855   3.453  11.662 -0.3866 -0.4287 -0.1751
 9534TIP3    H150017   3.843   3.547  11.677  0.1371 -0.5283  0.9735
 9534TIP3    H250018   3.929   3.447  11.602 -1.4533 -0.0732 -1.5944
 9535TIP3   OH250019   1.705   3.193   4.177 -0.5432 -0.6243 -0.6495
 9535TIP3    H150020   1.709   3.238   4.261  0.9628  1.7905 -1.8883
 9535TIP3    H250021   1.623   3.145   4.179 -0.4774 -0.7703  2.2250
 9536TIP3   OH250022   1.429   4.951  13.313 -0.1555  0.4003  0.4474
 9536TIP3    H150023   1.477   5.015  13.261  0.5443 -0.6758 -0.2655
 9536TIP3    H250024   1.449   4.974  13.404  4.6381 -1.9334  0.3104
 9537TIP3   OH250025   4.057   3.279  10.821  0.2993  0.5107  0.3302
 9537TIP3    H150026   4.045   3.211  10.755  0.6664  0.1799  0.5961
 9537TIP3    H250027   4.137   3.254  10.867  0.5993  1.2875  0.2428
 9538TIP3   OH250028   3.077   1.052  14.106 -0.2946 -0.3365 -0.1472
 9538TIP3    H150029   3.108   0.975  14.058 -1.5631 -0.6920 -0.4191
 9538TIP3    H250030   3.037   1.108  14.040  0.2895  0.4002  0.1072
 9539TIP3   OH250031   0.048   3.523  10.278 -0.4965  0.4123  0.2074
 9539TIP3    H150032   0.007   3.469  10.211 -0.4672  0.6566 -0.0115
 9539TIP3    H250033  -0.024   3.575  10.314 -1.1263 -1.8485  2.5115
 9540TIP3   OH250034   3.714   6.737   2.516 -0.2435 -0.1453  0.8268
 9540TIP3    H150035   3.620   6.733   2.535 -0.3853  1.0869  0.4740
 9540TIP3    H250036   3.755   6.686   2.586 -1.1690 -0.6564  1.0110
 9541TIP3   OH250037   3.248   0.534   0.249 -0.4990  0.2449  0.3382
 9541TIP3    H150038   3.238   0.629   0.256  1.2754  0.4321  0.7161
 9541TIP3    H250039   3.262   0.518   0.155 -0.6629  0.3676  0.2922
 9542TIP3   OH250040   4.805   4.514  14.233 -0.6565  0.3287  0.1588
 9542TIP3    H150041   4.801   4.433  14.283 -0.6352  0.3749  0.2350
 9542TIP3    H250042   4.830   4.486  14.145  2.0452  0.5091  0.7948
 9543TIP3   OH250043   4.530   5.513  12.681 -0.1197 -0.3963 -0.3194
 9543TIP3    H150044   4.498   5.442  12.736  1.2349 -0.7117  0.0896
 9543TIP3    H250045   4.519   5.592  12.734  1.9515 -0.7936  0.7949
 9544TIP3   OH250046   1.592   2.027  11.541  0.0438 -0.0732  0.6966
 9544TIP3    H150047   1.535   2.003  11.614 -0.1711 -0.9881  0.2452
 9544TIP3    H250048   1.537   2.014  11.463  1.1255 -1.8709  0.1769
 9545TIP3   OH250049   4.015   4.236  14.178  0.0203  0.6286  0.4913
 9545TIP3    H150050   3.965   4.165  14.219 -0.9137  1.0545  0.1027
 9545TIP3    H250051   3.969   4.316  14.202  0.2926  0.9999 -0.1849
 9546TIP3   OH250052   6.283   4.644  11.834 -0.4577 -0.1017  0.5940
 9546TIP3    H150053   6.323   4.702  11.899  1.5052  0.3250 -0.8805
 9546TIP3    H250054   6.219   4.699  11.789 -0.0748  0.3270  0.5661
 9547TIP3   OH250055   3.800   0.613  12.878 -0.8393  0.8313 -0.5101
 9547TIP3    H150056   3.894   0.632  12.883 -0.0551 -2.1250 -1.6445
 9547TIP3    H250057   3.783   0.559  12.955 -1.4944  0.8994 -0.6008
 9548TIP3   OH250058   4.880   4.624   0.812 -0.4859 -0.0916  0.6611
 9548TIP3    H150059   4.889   4.713   0.777 -1.1230 -0.9217 -1.8016
 9548TIP3    H250060   4.787   4.613   0.827 -0.7352 -1.0454 -1.2469
 9549TIP3   OH250061   4.140   5.270  13.467  0.2680  0.6151 -0.2869
 9549TIP3    H150062   4.060   5.260  13.415  0.3177  0.8598 -0.4160
 9549TIP3    H250063   4.114   5.250  13.557  0.3546 -0.5740 -0.5175
 9550TIP3   OH250064   0.520   5.765   3.862 -0.1297  0.3595  0.0399
 9550TIP3    H150065   0.458   5.763   3.788 -0.0157  0.9568 -0.0788
 9550TIP3    H250066   0.466   5.749   3.939 -0.5450  1.4559 -0.0020
 9551TIP3   OH250067   0.446   3.337  15.829 -0.3312 -0.3285  1.0740
 9551TIP3    H150068   0.364   3.382  15.812 -0.4635 -1.2292 -0.9325
 9551TIP3    H250069   0.436   3.251  15.789  1.3953 -0.6621  1.2558
 9552TIP3   OH250070   3.825   5.967  13.389 -0.5513  0.0233  0.6747
 9552TIP3    H150071   3.897   5.999  13.334  0.2914 -0.7346  1.3122
 9552TIP3    H250072   3.864   5.896  13.440 -1.3360  0.6414  2.1882
 9553TIP3   OH250073   0.674   2.373   1.666  0.0590  0.0384 -0.0170
 9553TIP3    H150074   0.703   2.416   1.746  0.9045 -0.4139 -0.0647
 9553TIP3    H250075   0.646   2.445   1.609  1.6718  0.5892 -0.1844
 9554TIP3   OH250076   1.837   3.875  16.939 -1.0577  0.3697 -0.0369
 9554TIP3    H150077   1.803   3.849  17.024  0.9096  0.3634  0.7926
 9554TIP3    H250078   1.877   3.796  16.904 -2.6191  0.1206 -1.4346
 9555TIP3   OH250079   0.718   4.617   0.464 -0.1974 -0.2497 -0.3236
 9555TIP3    H150080   0.732   4.612   0.369  1.8011 -1.0571 -0.0492
 9555TIP3    H250081   0.674   4.701   0.478  1.6929  1.0695 -1.7859
 9556TIP3   OH250082   4.895   5.048  11.818  0.1272  0.2322 -0.6193
 9556TIP3    H150083   4.814   5.070  11.864  0.1042 -0.2181 -0.4426
 9556TIP3    H250084   4.877   4.963  11.778  0.4222  0.2532 -0.7945
 9557TIP3   OH250085   2.858   0.231   6.239 -0.9182  0.2617 -0.5745
 9557TIP3    H150086   2.771   0.247   6.202 -1.7540  0.0714  1.2143
 9557TIP3    H250087   2.848   0.249   6.333  1.2185  1.1858 -0.4623
 9558TIP3   OH250088   5.927   3.067   4.700 -0.0370 -0.2977  0.4334
 9558TIP3    H150089   5.952   3.128   4.770  0.6249 -0.4739  0.3525
 9558TIP3    H250090   5.859   3.114   4.651  1.1385  0.7728 -0.2028
 9559TIP3   OH250091   5.326   5.386   5.567 -0.3614 -0.0574 -0.1541
 9559TIP3    H150092   5.241   5.388   5.613  0.1832  0.8400  0.8727
 9559TIP3    H250093   5.307   5.343   5.484 -1.3006 -2.1729  1.0667
 9560TIP3   OH250094   6.212   0.706  16.078  0.3091  0.0779  0.2001
 9560TIP3    H150095   6.134   0.758  16.094 -0.5848 -1.4855  1.2045
 9560TIP3    H250096   6.188   0.646  16.007  0.6673 -0.2385  0.3361
 9561TIP3   OH250097   3.679   5.775  14.552  0.2420  0.1046 -0.8998
 9561TIP3    H150098   3.658   5.709  14.487  0.8827 -0.7473 -0.2662
 9561TIP3    H250099   3.684   5.857  14.503  2.4376 -0.7642 -2.2470
 9562TIP3   OH250100   3.807   2.613  15.128  0.1893  0.5485 -0.7571
 9562TIP3    H150101   3.724   2.570  15.151 -0.0630  1.5251  0.2436
 9562TIP3    H250102   3.858   2.545  15.085 -0.8874 -0.2473 -0.8203
 9563TIP3   OH250103   5.359   2.259   4.499 -0.2293 -0.1299  0.0241
 9563TIP3    H150104   5.451   2.272   4.474 -0.1242  0.4095  0.6509
 9563TIP3    H250105   5.328   2.189   4.441  1.0060 -1.3920  0.8233
 9564TIP3   OH250106   2.754   4.224  14.738  0.0125  0.3804  0.7683
 9564TIP3    H150107   2.841   4.264  14.744  0.8897 -1.5333  1.8356
 9564TIP3    H250108   2.710   4.249  14.820 -0.8304  2.0630 -0.1429
 9565TIP3   OH250109   5.832   1.195  14.229  0.6827  0.8964 -0.2456
 9565TIP3    H150110   5.919   1.218  14.195  0.9819  2.2360  1.2752
 9565TIP3    H250111   5.805   1.272  14.279 -1.6132  0.6824 -1.0524
 9566TIP3   OH250112   0.508   4.389  15.744  0.1317 -0.0110  0.3408
 9566TIP3    H150113   0.521   4.350  15.658  0.0305  0.0069  0.3169
 9566TIP3    H250114   0.418   4.365  15.768 -0.2885  1.0418 -0.1147
 9567TIP3   OH250115   2.997   3.294   1.227 -0.4109  0.3983  0.1148
 9567TIP3    H150116   2.933   3.357   1.262 -0.6906  0.7278 -0.9379
 9567TIP3    H250117   3.065   3.349   1.188  1.6143  0.1011  2.9568
 9568TIP3   OH250118   5.885   0.304   1.032  0.1759 -0.0571  0.6180
 9568TIP3    H150119   5.873   0.396   1.007 -1.6185  0.3009  2.5322
 9568TIP3    H250120   5.868   0.255   0.952  0.9374  1.2421 -0.3802
 9569TIP3   OH250121   1.357   0.127   0.469 -0.6162 -0.3580 -0.5788
 9569TIP3    H150122   1.422   0.082   0.524 -1.4623 -0.5539  0.2932
 9569TIP3    H250123   1.283   0.142   0.528 -1.4480 -0.3307 -1.6115
 9570TIP3   OH250124   2.415   0.928   3.974  0.3428 -0.6436 -0.8688
 9570TIP3    H150125   2.400   1.015   3.937 -0.4897 -0.7026 -0.6911
 9570TIP3    H250126   2.445   0.945   4.063 -0.6018 -0.5428 -0.5638
 9571TIP3   OH250127   4.984   4.480   5.521 -0.0126 -0.2871 -0.2616
 9571TIP3    H150128   5.022   4.399   5.554 -0.1337 -0.0892  0.3759
 9571TIP3    H250129   4.992   4.542   5.593  1.0272  0.5875 -1.0809
 9572TIP3   OH250130   4.098   6.802  15.333 -0.2251  0.0740  0.3019
 9572TIP3    H150131   4.020   6.847  15.364 -0.0121  0.0991  0.8009
 9572TIP3    H250132   4.148   6.782  15.412  1.1390  1.6123 -0.1196
 9573TIP3   OH250133   1.217   2.678  11.011 -0.0368  0.0202 -0.5539
 9573TIP3    H150134   1.309   2.705  11.006 -0.0430 -0.0862 -1.2581
 9573TIP3    H250135   1.173   2.752  11.052  0.5156 -0.3237  0.7549
 9574TIP3   OH250136   6.470   0.793   0.982  0.1417  0.2574 -0.6209
 9574TIP3    H150137   6.385   0.749   0.978  0.1082  0.3496 -0.9502
 9574TIP3    H250138   6.495   0.788   1.074  0.7258 -1.5716 -0.8368
 9575TIP3   OH250139   1.240   1.416  11.474  0.0105 -0.2750 -0.1517
 9575TIP3    H150140   1.160   1.370  11.450  0.1213 -0.6456  0.1815
 9575TIP3    H250141   1.270   1.373  11.554 -0.6447  1.2658  0.9835
 9576TIP3   OH250142   2.594   5.058   6.239 -0.0680 -0.4234  0.0906
 9576TIP3    H150143   2.631   5.033   6.155  0.1938 -0.8540  0.3302
 9576TIP3    H250144   2.656   5.025   6.304 -0.6422 -0.7705  0.4780
 9577TIP3   OH250145   1.216   6.799   2.179 -0.1744 -0.2104 -0.3931
 9577TIP3    H150146   1.210   6.806   2.274  0.0639  0.8937 -0.4392
 9577TIP3    H250147   1.298   6.753   2.163  0.2575  0.4368 -0.0735
 9578TIP3   OH250148   5.701   1.868   2.872  0.3962 -0.3852  0.4013
 9578TIP3    H150149   5.769   1.846   2.936 -0.0520  0.5492  1.2249
 9578TIP3    H250150   5.744   1.859   2.787  1.4447 -0.1638  0.8925
 9579TIP3   OH250151   3.089   1.908   6.236 -0.3406 -0.5272  0.4530
 9579TIP3    H150152   3.112   1.980   6.295 -0.1634 -1.3017  1.3395
 9579TIP3    H250153   3.173   1.881   6.199 -0.5069  0.2975 -0.5813
 9580TIP3   OH250154   5.899   6.042  10.738 -0.6311  0.1094 -0.1548
 9580TIP3    H150155   5.845   6.006  10.668 -0.2924  1.0582 -0.9254
 9580TIP3    H250156   5.968   6.091  10.693  0.1541 -0.0520  0.8317
 9581TIP3   OH250157   6.699   6.770   0.011 -0.4020 -0.1061  0.3976
 9581TIP3    H150158   6.722   6.787   0.102  0.5717  1.6156 -0.1102
 9581TIP3    H250159   6.751   6.834  -0.039 -1.0409 -0.8814 -1.3453
 9582TIP3   OH250160   3.466   5.528   5.798  0.2054 -0.1617  0.5692
 9582TIP3    H150161   3.406   5.524   5.873  0.7951  2.9636  1.3402
 9582TIP3    H250162   3.410   5.549   5.723 -0.0553 -0.7338  0.5928
 9583TIP3   OH250163   5.238   2.480  13.248  0.1153  0.1582  0.2469
 9583TIP3    H150164   5.251   2.508  13.157  1.9057 -0.9373  0.1194
 9583TIP3    H250165   5.196   2.394  13.241 -1.2587  0.7648  0.5407
 9584TIP3   OH250166   3.632   4.200  12.720 -0.1188  0.3025  0.2995
 9584TIP3    H150167   3.700   4.252  12.763 -1.6766  0.8485  2.2539
 9584TIP3    H250168   3.583   4.264  12.668 -0.9234  0.4913  1.2621
 9585TIP3   OH250169   1.232   0.210   4.553 -0.4611 -0.4850 -0.3653
 9585TIP3    H150170   1.259   0.301   4.546  1.7456 -0.8509  1.9186
 9585TIP3    H250171   1.183   0.193   4.473  0.8607  2.1134 -1.8450
 9586TIP3   OH250172   3.865   2.724   2.320  0.7803  0.7353  0.3097
 9586TIP3    H150173   3.784   2.770   2.340  1.0808  1.5652 -0.3342
 9586TIP3    H250174   3.909   2.716   2.405  0.1441  0.4912  0.6268
 9587TIP3   OH250175   3.160   6.649  12.755  0.4734 -0.2364  0.0319
 9587TIP3    H150176   3.065   6.652  12.769  0.4411 -0.3256 -0.1662
 9587TIP3    H250177   3.184   6.559  12.779  0.4962 -0.2362  0.0092
 9588TIP3   OH250178   1.254   1.663  13.946  0.3874  0.0648  0.5025
 9588TIP3    H150179   1.242   1.575  13.909 -0.9768  0.3254  0.2440
 9588TIP3    H250180   1.215   1.721  13.880  1.4129  0.8918  0.6000
 9589TIP3   OH250181   5.556   0.763   5.095 -0.1240 -0.2199 -0.5289
 9589TIP3    H150182   5.541   0.831   5.161  0.2850 -1.4749  0.9276
 9589TIP3    H250183   5.501   0.789   5.021 -0.4012  1.3832  0.1922
 9590TIP3   OH250184   5.853   5.829  12.904  0.4585 -0.2990 -0.0065
 9590TIP3    H150185   5.791   5.767  12.866 -0.7040  1.2640 -0.8190
 9590TIP3    H250186   5.885   5.880  12.830  2.4092 -0.7689  0.4669
 9591TIP3   OH250187   1.652   4.977   3.871  0.0847  0.5385 -0.0336
 9591TIP3    H150188   1.587   5.004   3.935 -0.4943  0.2840 -0.5021
 9591TIP3    H250189   1.611   4.903   3.825 -0.2538  1.7773 -1.8662
 9592TIP3   OH250190   4.666   0.121   1.093  0.3360  0.0352 -0.2584
 9592TIP3    H150191   4.629   0.190   1.148  0.5518  0.5612 -0.7710
 9592TIP3    H250192   4.664   0.156   1.005 -1.6373 -1.4701 -0.8900
 9593TIP3   OH250193   3.815   5.086   5.296  0.1765  0.0230 -0.7475
 9593TIP3    H150194   3.777   5.174   5.297  0.4188  0.1266 -0.3402
 9593TIP3    H250195   3.741   5.028   5.317  0.1798  0.1979 -0.2482
 9594TIP3   OH250196   5.797   1.020  12.092  0.2791 -0.1614  0.2572
 9594TIP3    H150197   5.859   0.953  12.062 -0.8567 -0.5477 -1.3555
 9594TIP3    H250198   5.796   1.011  12.187  0.4363 -2.1800  0.1087
 9595TIP3   OH250199   4.920   4.377   4.950 -0.1889 -0.2616  0.5101
 9595TIP3    H150200   4.998   4.325   4.967 -0.1531 -0.4240 -0.1497
 9595TIP3    H250201   4.928   4.453   5.008  0.9274  0.2068 -0.2315
 9596TIP3   OH250202   1.097   5.205  12.662 -0.7203  0.5028  0.3399
 9596TIP3    H150203   1.115   5.129  12.717 -0.8686  0.8838  0.9201
 9596TIP3    H250204   1.164   5.201  12.593 -1.4847 -0.8613 -0.3898
 9597TIP3   OH250205   5.288   6.352   1.632 -0.3113  0.2566  0.1340
 9597TIP3    H150206   5.192   6.356   1.632 -0.3749 -0.5731 -1.2882
 9597TIP3    H250207   5.308   6.265   1.596  0.9680  0.6358 -0.1008
 9598TIP3   OH250208   6.384   6.784  16.256 -0.1082 -0.0440 -0.1422
 9598TIP3    H150209   6.394   6.817  16.345 -0.5416  0.3633 -0.2386
 9598TIP3    H250210   6.342   6.698  16.267 -3.5446  1.4761 -0.0634
 9599TIP3   OH250211   3.436   4.604   5.808 -0.1246  0.0333 -0.3816
 9599TIP3    H150212   3.356   4.631   5.763 -0.6524 -1.0796 -0.1495
 9599TIP3    H250213   3.428   4.642   5.896  0.4045  1.3172 -0.8702
 9600TIP3   OH250214   2.223   1.164  11.605 -0.0700  0.2806 -0.0411
 9600TIP3    H150215   2.265   1.154  11.519  0.4140 -0.2914  0.2497
 9600TIP3    H250216   2.135   1.195  11.586 -1.4246 -3.6443 -1.0504
 9601TIP3   OH250217   5.540   2.094  15.841 -0.2048 -0.2555  0.0981
 9601TIP3    H150218   5.595   2.152  15.893 -3.1157  1.0402  1.9632
 9601TIP3    H250219   5.535   2.013  15.891 -1.2621  0.2294  0.8213
 9602TIP3   OH250220   0.292   0.625   1.347 -0.0221  0.3748 -0.6486
 9602TIP3    H150221   0.238   0.660   1.418  0.9892  0.4566  0.1125
 9602TIP3    H250222   0.263   0.534   1.337  0.4011  0.0899  0.4897
 9603TIP3   OH250223   3.519   3.935   2.762 -0.7323 -0.0525  0.1864
 9603TIP3    H150224   3.459   4.010   2.759 -0.6673  0.1627  2.6012
 9603TIP3    H250225   3.563   3.936   2.677 -0.5336  2.8245  0.2297
 9604TIP3   OH250226   4.646   2.587   5.986  0.1656  0.0213 -0.0593
 9604TIP3    H150227   4.585   2.590   6.060 -1.4020  0.8038 -1.3401
 9604TIP3    H250228   4.598   2.542   5.917  0.7668  1.2910 -1.3446
 9605TIP3   OH250229   5.022   3.947  10.412 -0.2040  0.4528  0.4119
 9605TIP3    H150230   5.019   3.851  10.412 -0.2228  0.4443 -0.3610
 9605TIP3    H250231   4.931   3.974  10.426 -0.0572  0.3730  1.6111
 9606TIP3   OH250232   4.598   4.969   0.090 -0.1141  0.8546  0.2804
 9606TIP3    H150233   4.589   5.011   0.176  1.4888  2.5245 -0.2956
 9606TIP3    H250234   4.666   5.020   0.046  1.8429 -2.2671 -0.6029
 9607TIP3   OH250235   3.031   5.035   5.419  0.5677  0.0486  0.1006
 9607TIP3    H150236   3.061   4.961   5.367  4.3447 -0.0694  2.1298
 9607TIP3    H250237   3.002   4.996   5.501 -0.4045  0.6445  0.0602
 9608TIP3   OH250238   4.979   1.125  14.980 -0.1531 -0.2121 -0.2779
 9608TIP3    H150239   4.994   1.203  14.926  1.0696 -1.0276 -1.1846
 9608TIP3    H250240   4.920   1.071  14.927 -0.5656 -0.1468  0.1123
 9609TIP3   OH250241   6.745   6.306  16.936 -0.0198 -0.2221 -0.0504
 9609TIP3    H150242   6.653   6.331  16.922 -0.1806  0.4301  1.9248
 9609TIP3    H250243   6.786   6.321  16.851 -1.4357  0.9229 -0.5913
 9610TIP3   OH250244   2.686   1.612  11.686  0.3525 -0.3789 -0.4895
 9610TIP3    H150245   2.607   1.568  11.655  0.6264 -1.0303 -0.2906
 9610TIP3    H250246   2.656   1.699  11.714 -0.7349 -1.3553  1.6603
 9611TIP3   OH250247   4.115   1.069  13.053  0.2065  0.1880 -0.1713
 9611TIP3    H150248   4.098   0.989  13.103 -0.2074 -0.7818 -1.8252
 9611TIP3    H250249   4.165   1.125  13.114 -0.6904 -0.7452  1.4782
 9612TIP3   OH250250   6.588   1.186   0.006 -0.2134  0.7139 -0.5471
 9612TIP3    H150251   6.514   1.245  -0.012  1.5677  2.4475 -2.6963
 9612TIP3    H250252   6.582   1.120  -0.063 -0.6247 -0.0804  0.2326
 9613TIP3   OH250253   5.977   4.348   5.048  0.4554 -0.0786  0.0222
 9613TIP3    H150254   5.936   4.283   4.991  0.4569 -0.1145  0.0615
 9613TIP3    H250255   6.055   4.303   5.082 -0.5677 -0.7713  1.5928
 9614TIP3   OH250256   3.304   5.342   1.840  0.2130  0.1045  0.1722
 9614TIP3    H150257   3.211   5.367   1.844 -0.0869 -0.7454 -0.8693
 9614TIP3    H250258   3.316   5.284   1.915 -0.6548 -1.3730 -0.7594
 9615TIP3   OH250259   0.234   6.239  14.311  0.2322 -0.4809 -0.2521
 9615TIP3    H150260   0.195   6.167  14.361  0.5817  0.5537  1.5716
 9615TIP3    H250261   0.328   6.230  14.327  0.2701  0.4152  0.0373
 9616TIP3   OH250262   0.443   0.293  11.796 -0.4053  0.6628 -0.5903
 9616TIP3    H150263   0.538   0.291  11.782 -0.1513 -1.5143  0.9109
 9616TIP3    H250264   0.430   0.361  11.862  0.2721  0.3057 -0.0659
 9617TIP3   OH250265   2.017   4.954   3.854  0.4729 -0.0313  0.1637
 9617TIP3    H150266   1.968   5.034   3.835  2.0380  0.7722 -0.7044
 9617TIP3    H250267   1.968   4.884   3.810 -1.3831  0.2597  1.6346
 9618TIP3   OH250268   5.553   3.407   4.747 -0.0855 -0.2856  0.1364
 9618TIP3    H150269   5.602   3.432   4.669  1.8440  1.8704  1.8972
 9618TIP3    H250270   5.463   3.431   4.727  0.3865  0.3972 -1.3438
 9619TIP3   OH250271   5.837   4.352  15.986 -0.1063 -0.0659 -0.0701
 9619TIP3    H150272   5.744   4.341  16.009 -0.0292  0.2237  0.3809
 9619TIP3    H250273   5.844   4.314  15.898 -0.5391 -0.6040  0.1184
 9620TIP3   OH250274   3.480   6.680   3.655 -0.0853  0.1821  0.2776
 9620TIP3    H150275   3.389   6.708   3.647 -0.2717 -0.4246  0.3027
 9620TIP3    H250276   3.513   6.727   3.732 -0.6417 -0.3115  0.8237
 9621TIP3   OH250277   1.108   3.073  16.988  0.3248  0.2932  0.0544
 9621TIP3    H150278   1.186   3.113  17.027 -0.4606  1.9959 -0.0594
 9621TIP3    H250279   1.142   3.024  16.914  1.2175  1.7970 -0.5758
 9622TIP3   OH250280   0.010   3.521  16.150 -0.1162  0.1358 -0.1966
 9622TIP3    H150281   0.102   3.547  16.146  0.2525 -0.9744  0.6692
 9622TIP3    H250282  -0.024   3.564  16.228 -0.1927  0.1263 -0.2244
 9623TIP3   OH250283   2.653   6.411  12.864  0.0261 -0.4188 -0.0311
 9623TIP3    H150284   2.631   6.497  12.828  2.2811  0.0040 -0.5509
 9623TIP3    H250285   2.626   6.415  12.956 -0.5493  0.5532 -0.2274
 9624TIP3   OH250286   6.398   0.758  14.327  0.1624 -0.8011  0.3846
 9624TIP3    H150287   6.478   0.806  14.348 -0.6547  1.5704 -1.3842
 9624TIP3    H250288   6.344   0.765  14.405  0.2878  0.8148  0.3666
 9625TIP3   OH250289   0.177   2.472   5.945  0.1389 -0.1440  0.0234
 9625TIP3    H150290   0.252   2.506   5.993 -0.4804  1.1026  0.1466
 9625TIP3    H250291   0.110   2.458   6.012 -0.5860  1.1994 -0.3903
 9626TIP3   OH250292   2.901   4.326   2.515  0.4486  0.1799  0.3504
 9626TIP3    H150293   2.961   4.351   2.586 -0.1940  2.2381  0.2365
 9626TIP3    H250294   2.890   4.406   2.464 -0.5206 -0.7952 -1.0391
 9627TIP3   OH250295   3.666   1.436   1.350  0.1318 -0.8935 -0.5403
 9627TIP3    H150296   3.658   1.437   1.255 -0.8515 -2.8721 -0.5311
 9627TIP3    H250297   3.684   1.344   1.372  1.7845 -0.2433  1.1026
 9628TIP3   OH250298   2.623   3.641   4.661  0.1828  0.2630 -0.2222
 9628TIP3    H150299   2.653   3.727   4.690  0.6072  0.1653 -0.3624
 9628TIP3    H250300   2.689   3.613   4.598  0.4989 -0.5250  0.4331
 9629TIP3   OH250301   0.061   5.607  11.017  0.1055  0.1016 -0.0266
 9629TIP3    H150302   0.144   5.597  10.970  0.5324 -0.4982  0.8336
 9629TIP3    H250303  -0.001   5.552  10.969 -0.0243  1.1828 -1.1535
 9630TIP3   OH250304   4.700   4.717   2.065  0.2282  0.2649 -0.4415
 9630TIP3    H150305   4.700   4.644   2.128  0.5289 -0.3711 -1.1668
 9630TIP3    H250306   4.669   4.792   2.116  0.5005 -0.2304  0.4815
 9631TIP3   OH250307   3.510   3.373  16.864  0.3926 -0.7048 -0.6319
 9631TIP3    H150308   3.502   3.314  16.789 -0.2298  0.0683 -1.1987
 9631TIP3    H250309   3.600   3.404  16.861  1.0097 -2.2982  0.2171
 9632TIP3   OH250310   6.040   2.918   5.499  0.1391  0.1018 -0.1410
 9632TIP3    H150311   6.127   2.919   5.458  0.2926  2.6577  0.0582
 9632TIP3    H250312   5.990   2.855   5.448  2.0865 -1.4570 -0.2591
 9633TIP3   OH250313   2.961   1.360  12.759 -1.0506 -0.3239  0.1779
 9633TIP3    H150314   3.001   1.277  12.782 -0.6561 -0.1321  0.1924
 9633TIP3    H250315   2.909   1.342  12.681  3.1158  0.4648 -3.1010
 9634TIP3   OH250316   0.397   2.497   1.397 -0.3208 -0.5661 -0.1882
 9634TIP3    H150317   0.359   2.488   1.310 -0.0255 -0.5252 -0.3242
 9634TIP3    H250318   0.326   2.531   1.451 -0.5881 -0.8665 -0.3470
 9635TIP3   OH250319   5.599   2.724  14.992 -0.0270  0.5823 -0.2168
 9635TIP3    H150320   5.678   2.677  15.015 -0.9701  0.0905  2.2677
 9635TIP3    H250321   5.530   2.658  14.989 -0.6320  1.2083 -0.8847
 9636TIP3   OH250322   0.024   6.064  13.655 -0.3404 -0.2433 -0.0277
 9636TIP3    H150323  -0.033   6.117  13.600 -1.2538 -0.6383  0.5119
 9636TIP3    H250324   0.008   5.974  13.626 -1.7845 -0.5982  1.6546
 9637TIP3   OH250325   5.508   3.720  15.580  0.3533  0.4285  0.1819
 9637TIP3    H150326   5.550   3.722  15.494  0.3659  1.7449  0.1925
 9637TIP3    H250327   5.436   3.658  15.571 -0.4990  1.5759 -1.1934
 9638TIP3   OH250328   5.694   4.112   0.362 -0.3270  0.5353  0.0003
 9638TIP3    H150329   5.702   4.195   0.408 -1.7593  0.0451  1.2190
 9638TIP3    H250330   5.768   4.059   0.393 -0.1011  0.9276  0.1366
 9639TIP3   OH250331   6.608   2.804   3.290 -0.7266  0.3028 -0.1073
 9639TIP3    H150332   6.631   2.721   3.333  1.4986  1.4650  1.1467
 9639TIP3    H250333   6.675   2.815   3.222  0.5252  2.1307  1.3179
 9640TIP3   OH250334   6.099   1.338  15.969  0.2560 -0.0133  0.1462
 9640TIP3    H150335   6.181   1.350  15.921  0.9377 -0.1585  1.2433
 9640TIP3    H250336   6.116   1.264  16.027 -0.2323  0.7130  1.2532
 9641TIP3   OH250337   3.731   2.649  11.619 -0.3985  0.0315  0.0697
 9641TIP3    H150338   3.796   2.655  11.549  1.0845  0.8455  1.4384
 9641TIP3    H250339   3.661   2.708  11.591 -0.2421 -0.3138 -1.1122
 9642TIP3   OH250340   6.351   0.811   1.688  0.2197  0.3861 -0.0646
 9642TIP3    H150341   6.302   0.758   1.626 -2.5003  2.2240  0.3223
 9642TIP3    H250342   6.323   0.779   1.774  0.2703  0.9585  0.1703
 9643TIP3   OH250343   1.254   6.105   3.554  0.2566  0.0248  0.1353
 9643TIP3    H150344   1.260   6.175   3.619 -1.8087 -0.5256  1.0043
 9643TIP3    H250345   1.276   6.147   3.471 -0.6098  1.6417  0.6760
 9644TIP3   OH250346   3.512   3.754   1.336  0.6089  0.4329  0.0442
 9644TIP3    H150347   3.446   3.817   1.308  0.7686  0.5781 -0.0008
 9644TIP3    H250348   3.594   3.803   1.337  0.9832 -0.1148 -1.3380
 9645TIP3   OH250349   4.371   6.380  16.869 -0.4170  0.1228 -0.5525
 9645TIP3    H150350   4.277   6.398  16.868  0.1014  3.6712 -2.2376
 9645TIP3    H250351   4.395   6.370  16.776  1.1416  1.3819 -0.3332
 9646TIP3   OH250352   4.438   2.951  14.208  0.0514  0.4409  0.0695
 9646TIP3    H150353   4.519   2.957  14.157  0.4365 -0.2045  0.5974
 9646TIP3    H250354   4.434   2.859  14.236 -1.4636  0.1566 -0.9317
 9647TIP3   OH250355   3.719   6.395   5.307 -0.0034 -0.1767  0.4795
 9647TIP3    H150356   3.648   6.412   5.369 -0.1234 -1.1294  0.6208
 9647TIP3    H250357   3.755   6.310   5.335  0.7590 -0.0167  0.0070
 9648TIP3   OH250358   5.632   5.379  14.821  0.1431 -0.1574  0.2675
 9648TIP3    H150359   5.645   5.284  14.820 -1.8889 -0.4812  0.4982
 9648TIP3    H250360   5.600   5.398  14.909  4.1334  1.3824  1.5954
 9649TIP3   OH250361   1.902   5.213  15.094 -0.3560  0.0034  0.0237
 9649TIP3    H150362   1.863   5.277  15.034 -1.3101  0.2981  0.9268
 9649TIP3    H250363   1.968   5.263  15.142  1.1185 -0.4618 -1.4062
 9650TIP3   OH250364   6.088   3.852  12.623 -0.1058 -0.1101 -0.1284
 9650TIP3    H150365   6.093   3.833  12.717 -0.2018 -1.1276 -0.3081
 9650TIP3    H250366   6.026   3.924  12.616  1.3513  1.3060  0.7362
 9651TIP3   OH250367   1.561   0.815   0.666 -0.2745 -0.7407  0.5655
 9651TIP3    H150368   1.506   0.790   0.741 -1.2428  1.7222  0.7534
 9651TIP3    H250369   1.521   0.770   0.591 -0.9009 -1.1305  1.1184
 9652TIP3   OH250370   4.008   5.337   1.408 -0.6701  0.0390 -0.5164
 9652TIP3    H150371   3.973   5.250   1.389 -2.5405  0.5335  0.4549
 9652TIP3    H250372   4.068   5.323   1.482 -0.0479 -0.5695 -1.1184
 9653TIP3   OH250373   0.281   4.684  13.791  0.2615 -0.6068  0.7568
 9653TIP3    H150374   0.327   4.601  13.803  0.8827 -1.0408 -3.1521
 9653TIP3    H250375   0.189   4.660  13.780  0.3903 -0.7837 -0.0080
 9654TIP3   OH250376   5.622   6.406   1.189 -0.1396  0.1152 -0.1872
 9654TIP3    H150377   5.621   6.320   1.147 -0.4857  0.2652 -0.4972
 9654TIP3    H250378   5.714   6.425   1.203 -0.1060 -1.3398  2.0548
 9655TIP3   OH250379   0.139   6.472  14.156 -0.3962  0.4735  0.5278
 9655TIP3    H150380   0.182   6.395  14.195 -2.9596 -0.5485  1.5111
 9655TIP3    H250381   0.160   6.465  14.063  1.3763 -0.0575  0.9146
 9656TIP3   OH250382   0.007   4.629  13.765 -0.4618  0.5960  0.2697
 9656TIP3    H150383  -0.047   4.672  13.832 -1.0349  1.3870 -0.6770
 9656TIP3    H250384  -0.044   4.637  13.684 -0.8768 -2.3513  0.0930
 9657TIP3   OH250385   4.683   2.828  15.074 -0.2330 -0.2634  0.1649
 9657TIP3    H150386   4.637   2.757  15.118 -3.7856  1.6988  0.0208
 9657TIP3    H250387   4.641   2.835  14.988  1.3486  0.7961 -0.5748
 9658TIP3   OH250388   2.173   0.382  11.725 -0.3935 -0.3357  0.4412
 9658TIP3    H150389   2.190   0.399  11.632  0.4061  1.0226  0.8105
 9658TIP3    H250390   2.151   0.289  11.729 -1.4964 -0.1881 -1.2485
 9659TIP3   OH250391   4.308   0.337  12.129  0.4511 -0.4097  0.1322
 9659TIP3    H150392   4.271   0.250  12.140  0.5170 -0.4733 -0.1422
 9659TIP3    H250393   4.371   0.327  12.058  0.8739 -0.2664  0.4861
 9660TIP3   OH250394   4.526   6.092  14.126 -0.1068  0.1409  0.2096
 9660TIP3    H150395   4.580   6.019  14.096 -0.8894 -0.7465  0.8875
 9660TIP3    H250396   4.503   6.139  14.046  1.4316  0.4021 -0.1191
 9661TIP3   OH250397   2.296   6.815  13.683  0.7176  0.0403  0.5766
 9661TIP3    H150398   2.225   6.874  13.659  1.3718  1.0605  1.1277
 9661TIP3    H250399   2.283   6.797  13.776  0.5678 -0.6490  0.4353
 9662TIP3   OH250400   5.464   3.058  12.964  0.1353 -0.2545  0.8001
 9662TIP3    H150401   5.519   3.136  12.954  0.1860 -0.2186  1.3455
 9662TIP3    H250402   5.375   3.091  12.967  0.0017 -0.3714 -0.8758
 9663TIP3   OH250403   1.102   3.900  14.040 -0.2855  0.1675 -0.1842
 9663TIP3    H150404   1.193   3.877  14.019 -0.3227 -1.3245  1.0901
 9663TIP3    H250405   1.093   3.877  14.133 -1.9150  0.4529 -0.2515
 9664TIP3   OH250406   0.967   4.405   3.618  0.1315  0.3545 -0.3334
 9664TIP3    H150407   1.014   4.460   3.555 -1.3393  2.4004  0.2384
 9664TIP3    H250408   1.017   4.411   3.699  0.6358 -0.1752 -0.6005
 9665TIP3   OH250409   3.863   1.495   4.687 -1.1448  0.1881 -0.4900
 9665TIP3    H150410   3.773   1.516   4.712 -0.7487  0.9539  0.3585
 9665TIP3    H250411   3.908   1.580   4.686  0.0693 -0.3648  1.2287
 9666TIP3   OH250412   4.459   1.184  12.459 -0.2207  0.5020 -0.1523
 9666TIP3    H150413   4.550   1.172  12.488 -0.6930 -0.9568  0.7931
 9666TIP3    H250414   4.456   1.145  12.371  0.6990  3.0579 -1.4202
 9667TIP3   OH250415   1.950   2.416   0.320 -0.1564 -0.1356 -0.6427
 9667TIP3    H150416   1.916   2.477   0.385 -0.6359 -1.0241 -0.0260
 9667TIP3    H250417   2.039   2.444   0.304  0.2840 -0.4190  1.0922
 9668TIP3   OH250418   3.035   2.529   5.294 -0.3248 -0.0739  0.5515
 9668TIP3    H150419   3.092   2.606   5.298  1.6412 -1.4968  1.7685
 9668TIP3    H250420   3.056   2.490   5.209 -0.9313  0.4113  0.1675
 9669TIP3   OH250421   0.982   1.069  10.876 -0.2856  0.2679  0.3684
 9669TIP3    H150422   0.931   1.122  10.815 -1.6417 -0.3785  0.8903
 9669TIP3    H250423   1.037   1.015  10.821 -1.4727 -0.2924 -0.3017
 9670TIP3   OH250424   0.388   6.583   1.939  0.4948 -0.1721 -0.1950
 9670TIP3    H150425   0.302   6.540   1.938  0.6449 -0.5146  0.5476
 9670TIP3    H250426   0.422   6.565   2.027 -0.1817  2.9440  0.8428
 9671TIP3   OH250427   4.139   1.153   2.433 -0.2314 -0.2550  0.3170
 9671TIP3    H150428   4.094   1.124   2.513  0.5140 -0.4214  0.6824
 9671TIP3    H250429   4.102   1.099   2.364 -1.8670  0.7901  0.2997
 9672TIP3   OH250430   5.409   3.260   5.856 -0.5852 -0.4026 -0.1572
 9672TIP3    H150431   5.440   3.267   5.946 -0.9724  0.8601 -0.0988
 9672TIP3    H250432   5.367   3.175   5.851  1.4564 -1.4955  0.1982
 9673TIP3   OH250433   1.430   4.719   4.849 -0.2002 -0.0172  0.1149
 9673TIP3    H150434   1.375   4.687   4.777 -0.5682  0.1630  0.3071
 9673TIP3    H250435   1.518   4.726   4.812 -0.1807 -0.9239 -0.0175
 9674TIP3   OH250436   6.447   4.056   0.787  0.1260 -0.5367 -0.4204
 9674TIP3    H150437   6.449   4.065   0.882  2.4273  0.8699 -0.5149
 9674TIP3    H250438   6.478   3.967   0.770  1.2831 -0.2521  0.1322
 9675TIP3   OH250439   2.200   4.280   2.962  0.7190  0.3157 -0.1163
 9675TIP3    H150440   2.252   4.221   2.907  0.9914 -0.3482  0.8263
 9675TIP3    H250441   2.264   4.318   3.022  0.3428  0.5887  0.1147
 9676TIP3   OH250442   5.098   6.294   1.143 -0.3515 -0.2594 -0.0108
 9676TIP3    H150443   5.102   6.325   1.053  0.9843 -0.1644  0.0569
 9676TIP3    H250444   5.172   6.338   1.187  0.6682 -2.3098  0.4551
 9677TIP3   OH250445   0.836   4.561  12.975  0.0687 -0.2179  0.2061
 9677TIP3    H150446   0.752   4.516  12.982 -0.1374 -0.0215 -0.8422
 9677TIP3    H250447   0.890   4.501  12.923 -0.4744  1.0509 -1.9463
 9678TIP3   OH250448   1.297   0.213   3.621  0.1214  0.4013 -0.4533
 9678TIP3    H150449   1.271   0.300   3.589  0.8406  1.0924  0.7511
 9678TIP3    H250450   1.214   0.167   3.635 -0.4309  1.7423  1.1263
 9679TIP3   OH250451   4.735   3.181  10.770  0.2127 -0.0697  0.2451
 9679TIP3    H150452   4.663   3.232  10.732  0.6445 -0.1753 -0.7388
 9679TIP3    H250453   4.726   3.094  10.729 -0.7401 -0.9302  2.1666
 9680TIP3   OH250454   1.415   6.228   2.895 -0.3520  0.0051  0.2178
 9680TIP3    H150455   1.370   6.147   2.922  0.6562 -0.4515  0.5546
 9680TIP3    H250456   1.391   6.238   2.802 -1.1253 -0.2351  0.3786
 9681TIP3   OH250457   4.056   6.685  15.820 -0.6836  0.0008 -0.3142
 9681TIP3    H150458   4.054   6.621  15.892  2.3735 -2.6160 -2.2720
 9681TIP3    H250459   3.986   6.656  15.762  0.9698 -2.1391 -1.4233
 9682TIP3   OH250460   1.055   4.508   4.112 -0.3723 -0.0665  0.1401
 9682TIP3    H150461   1.013   4.507   4.026  0.4585  0.1191 -0.2781
 9682TIP3    H250462   1.013   4.437   4.160 -1.6003  0.5062 -0.0419
 9683TIP3   OH250463   2.294   1.997  13.413 -0.2575  0.2834  0.0414
 9683TIP3    H150464   2.379   2.042  13.411 -0.9942  1.8809 -3.2539
 9683TIP3    H250465   2.244   2.043  13.480  0.2167  2.0905 -0.7794
 9684TIP3   OH250466   3.883   2.143  12.741  0.2136 -0.0895 -0.1220
 9684TIP3    H150467   3.934   2.216  12.708  0.0166  0.8950  1.6431
 9684TIP3    H250468   3.907   2.136  12.834 -1.6749 -0.5879  0.3772
 9685TIP3   OH250469   4.630   2.782   4.433  0.3027  0.3230  0.2568
 9685TIP3    H150470   4.697   2.790   4.502  1.0955 -1.7147 -0.2054
 9685TIP3    H250471   4.658   2.705   4.382 -1.6681  0.2534 -0.7823
 9686TIP3   OH250472   2.798   0.132   6.503  0.0805 -0.0644  1.0555
 9686TIP3    H150473   2.739   0.166   6.570 -1.1531 -0.5001  0.2287
 9686TIP3    H250474   2.749   0.060   6.462  0.2438  0.9715 -1.1290
 9687TIP3   OH250475   5.774   6.606  11.312  0.4649 -0.9013 -0.5283
 9687TIP3    H150476   5.818   6.622  11.228 -1.3779  1.3290 -1.1624
 9687TIP3    H250477   5.711   6.677  11.320  0.9731 -0.6681  3.0749
 9688TIP3   OH250478   3.477   6.416  11.416  0.8786  0.0028 -0.3473
 9688TIP3    H150479   3.524   6.384  11.493 -0.1853 -0.2276  0.2166
 9688TIP3    H250480   3.538   6.401  11.343  0.8459 -2.3850  0.0379
 9689TIP3   OH250481   2.765   5.397  15.738  0.0752 -0.0664  0.5161
 9689TIP3    H150482   2.787   5.447  15.659  0.8309  0.0045  0.7562
 9689TIP3    H250483   2.840   5.337  15.750 -0.1364 -0.2348  1.0448
 9690TIP3   OH250484   6.673   6.726   1.279 -0.7626  0.6396 -0.0608
 9690TIP3    H150485   6.670   6.799   1.341 -0.2603  0.6174 -0.0045
 9690TIP3    H250486   6.585   6.722   1.242 -0.7476  1.3789 -0.1866
 9691TIP3   OH250487   2.953   3.084   5.020  0.4149  0.0692 -0.2650
 9691TIP3    H150488   2.962   3.149   4.951  1.3605 -0.5863 -0.7840
 9691TIP3    H250489   2.917   3.007   4.976  0.6776 -0.2321  0.0418
 9692TIP3   OH250490   6.794   2.479  16.197  0.2945  0.1917 -0.1811
 9692TIP3    H150491   6.792   2.571  16.170  0.4994  0.0378 -0.7433
 9692TIP3    H250492   6.836   2.434  16.124  1.3183 -0.1740  0.6165
 9693TIP3   OH250493   3.633   2.078   3.546  0.1403  0.1970 -0.0462
 9693TIP3    H150494   3.687   2.138   3.598  0.0386  1.1357 -0.9914
 9693TIP3    H250495   3.548   2.121   3.541 -0.4611 -0.8591  0.6977
 9694TIP3   OH250496   6.708   3.281  12.282 -0.7027 -0.0120 -0.2879
 9694TIP3    H150497   6.649   3.268  12.356 -0.2401  0.4315  0.1655
 9694TIP3    H250498   6.735   3.192  12.257  1.5720 -0.0951  2.0702
 9695TIP3   OH250499   2.589   3.496  16.946  0.3574 -0.1590 -0.1425
 9695TIP3    H150500   2.626   3.506  17.034  1.1283 -1.2563 -0.3225
 9695TIP3    H250501   2.550   3.409  16.946  1.7647 -0.8486 -1.3501
 9696TIP3   OH250502   0.121   0.381   1.323 -0.2501 -0.1590  0.3038
 9696TIP3    H150503   0.032   0.346   1.315  0.4783 -2.5495  1.7333
 9696TIP3    H250504   0.170   0.338   1.254  0.0668  0.2828  0.2498
 9697TIP3   OH250505   1.227   2.735  16.355 -0.1100 -0.5306 -0.4978
 9697TIP3    H150506   1.303   2.685  16.387 -0.1486 -0.1177  0.2661
 9697TIP3    H250507   1.261   2.783  16.279  0.5565  0.0964  0.1796
 9698TIP3   OH250508   5.563   0.836   3.245  0.1726 -0.0307 -0.0674
 9698TIP3    H150509   5.553   0.747   3.281 -0.4429 -0.0188 -0.1952
 9698TIP3    H250510   5.655   0.857   3.259 -0.0944  0.0675  1.7321
 9699TIP3   OH250511   4.656   4.932  15.090 -0.2593 -0.0308  0.2422
 9699TIP3    H150512   4.599   4.857  15.072  0.4753 -0.5213 -0.0531
 9699TIP3    H250513   4.596   4.999  15.126 -0.7574 -1.1168  1.5244
 9700TIP3   OH250514   0.587   5.694   1.258  0.2923 -0.5460  0.3713
 9700TIP3    H150515   0.552   5.744   1.184 -1.1569 -0.3491  1.1343
 9700TIP3    H250516   0.611   5.609   1.221  0.8091 -0.0101 -0.5502
 9701TIP3   OH250517   0.464   5.502   4.382 -0.5987 -0.0792 -0.0944
 9701TIP3    H150518   0.494   5.506   4.291 -1.7986 -0.4914 -0.5363
 9701TIP3    H250519   0.385   5.556   4.383 -2.0897 -2.1392  0.0398
 9702TIP3   OH250520   2.242   1.116   4.182 -0.7480 -0.0059 -0.4553
 9702TIP3    H150521   2.194   1.067   4.116 -0.5865 -0.4958 -0.2079
 9702TIP3    H250522   2.323   1.067   4.195 -0.1936  0.7758 -0.8302
 9703TIP3   OH250523   4.887   4.824   6.233  0.1964  0.0662  0.3516
 9703TIP3    H150524   4.965   4.856   6.280  1.1455  1.0757 -1.7834
 9703TIP3    H250525   4.834   4.902   6.219  0.9952  0.2373 -2.1042
 9704TIP3   OH250526   3.849   5.937   2.768 -0.0805  0.2599 -0.0311
 9704TIP3    H150527   3.777   5.926   2.830 -1.9609  1.8069 -1.8190
 9704TIP3    H250528   3.812   5.914   2.683  1.4056  1.5013 -1.0795
 9705TIP3   OH250529   0.054   6.807   5.911  0.0731  0.5377  0.1091
 9705TIP3    H150530   0.086   6.754   5.838  0.6169 -0.1108  0.7907
 9705TIP3    H250531  -0.034   6.775   5.928 -0.3346  1.1913 -0.7193
 9706TIP3   OH250532   1.223   3.401   4.176  0.0587  0.0095 -0.3614
 9706TIP3    H150533   1.176   3.419   4.257  0.5829  0.0536 -0.0618
 9706TIP3    H250534   1.256   3.312   4.188 -2.6756 -1.3473 -1.9000
 9707TIP3   OH250535   0.739   1.017   0.165 -0.0091  0.0586  0.2579
 9707TIP3    H150536   0.683   0.950   0.125 -1.7409  0.1624  2.3117
 9707TIP3    H250537   0.725   1.007   0.259  1.5277  1.7775  0.7327
 9708TIP3   OH250538   2.876   3.599  10.970 -0.2334  0.4591  0.5252
 9708TIP3    H150539   2.937   3.603  11.044  1.9550  1.0798 -1.1998
 9708TIP3    H250540   2.920   3.646  10.900 -2.7779  0.9927 -0.8434
 9709TIP3   OH250541   4.531   2.209  13.972  0.5418 -0.2272  0.3556
 9709TIP3    H150542   4.498   2.158  14.046  0.4255  1.1502  1.2884
 9709TIP3    H250543   4.626   2.209  13.983  0.5118  0.1517  0.6341
 9710TIP3   OH250544   4.631   5.089   2.845 -0.2446 -0.0206 -0.6845
 9710TIP3    H150545   4.712   5.054   2.807 -0.1439 -1.8498  1.0238
 9710TIP3    H250546   4.594   5.015   2.893 -1.4433  1.5787  0.9733
 9711TIP3   OH250547   0.444   3.235  14.066  0.0627  0.0544 -0.1167
 9711TIP3    H150548   0.358   3.241  14.108 -0.3921 -1.0376 -0.8435
 9711TIP3    H250549   0.494   3.176  14.122  0.2586  0.4537  0.1415
 9712TIP3   OH250550   4.332   3.696  12.729  0.3517  0.1812  0.1793
 9712TIP3    H150551   4.403   3.706  12.792  0.2328  0.8438  0.2133
 9712TIP3    H250552   4.264   3.648  12.777 -0.6738  2.6493  1.3549
 9713TIP3   OH250553   4.304   3.731  13.635 -0.2033  0.2925 -0.2065
 9713TIP3    H150554   4.340   3.651  13.596 -1.0778  1.4419 -3.8640
 9713TIP3    H250555   4.253   3.701  13.710  0.3683 -2.4424 -0.7983
 9714TIP3   OH250556   1.775   1.781  12.930 -0.1707  0.3756  0.0899
 9714TIP3    H150557   1.814   1.819  13.009  0.1886 -0.0649  0.1246
 9714TIP3    H250558   1.769   1.688  12.949 -3.6247  0.6639  1.1393
 9715TIP3   OH250559   2.118   6.063  11.858  0.1201  0.1315  0.0476
 9715TIP3    H150560   2.202   6.100  11.883 -0.0805 -0.7126  2.2759
 9715TIP3    H250561   2.136   6.012  11.779  1.4042  1.0136 -0.2533
 9716TIP3   OH250562   5.794   1.377   0.302 -0.7790 -0.1465 -0.4860
 9716TIP3    H150563   5.884   1.354   0.279 -0.2303  0.5441  0.8599
 9716TIP3    H250564   5.801   1.462   0.345 -2.0495 -0.1804 -0.1616
 9717TIP3   OH250565   5.423   2.099   2.447 -0.1635  0.7423  0.3518
 9717TIP3    H150566   5.463   2.185   2.461  0.8962  0.3795 -0.2889
 9717TIP3    H250567   5.365   2.112   2.372 -1.5683  1.3518  1.4870
 9718TIP3   OH250568   3.134   3.862   5.284 -0.4150 -0.0109 -0.2889
 9718TIP3    H150569   3.076   3.788   5.299 -0.4256 -0.1266 -0.8664
 9718TIP3    H250570   3.204   3.852   5.348 -0.3081 -0.6352 -0.5012
 9719TIP3   OH250571   0.916   3.983  15.416  0.1441 -0.3266 -0.2870
 9719TIP3    H150572   0.937   4.032  15.337  4.0423  0.4584  0.9938
 9719TIP3    H250573   0.922   4.048  15.487 -0.1554 -1.5621  0.9148
 9720TIP3   OH250574   6.151   4.728   9.926  0.1013  0.0083 -0.3940
 9720TIP3    H150575   6.127   4.728   9.834 -1.8696  1.5244  0.0658
 9720TIP3    H250576   6.068   4.724   9.973  0.8830  1.6865  1.2905
 9721TIP3   OH250577   3.118   0.591  14.234 -0.6536 -0.8474 -0.0353
 9721TIP3    H150578   3.106   0.663  14.296  1.1101  0.5800 -1.2274
 9721TIP3    H250579   3.190   0.540  14.271 -1.5002 -1.6740  0.5018
 9722TIP3   OH250580   4.842   0.288  16.237  0.3061  0.6255  0.3299
 9722TIP3    H150581   4.925   0.251  16.268 -0.9051 -1.8492  0.8228
 9722TIP3    H250582   4.868   0.349  16.168  2.5422  0.1473  0.6563
 9723TIP3   OH250583   3.686   6.442  11.622  0.1568  0.3515 -0.4041
 9723TIP3    H150584   3.718   6.391  11.696 -0.4139 -0.7075 -0.8597
 9723TIP3    H250585   3.719   6.530  11.637  0.3810  0.0641  0.8988
 9724TIP3   OH250586   0.865   3.410   0.316  0.2587 -0.2293 -0.1556
 9724TIP3    H150587   0.890   3.427   0.225 -2.2544  1.5958 -0.6016
 9724TIP3    H250588   0.856   3.315   0.320 -0.6186 -0.2849 -2.1611
 9725TIP3   OH250589   0.881   5.083  13.682  0.3034  0.2189  0.0104
 9725TIP3    H150590   0.953   5.021  13.676  0.5467  0.3783  1.0797
 9725TIP3    H250591   0.809   5.040  13.636  0.9879 -0.0727 -0.8029
 9726TIP3   OH250592   0.914   4.132  13.851 -0.2721  0.0747  0.1893
 9726TIP3    H150593   0.953   4.113  13.937 -2.8376 -1.4093  1.1121
 9726TIP3    H250594   0.922   4.227  13.843  0.5656  0.1874  1.7892
 9727TIP3   OH250595   0.330   1.173   0.217  0.0638 -0.1249 -0.1719
 9727TIP3    H150596   0.410   1.123   0.233  0.9712  0.3739 -2.7001
 9727TIP3    H250597   0.269   1.109   0.183  0.2553 -0.0515 -0.6603
 9728TIP3   OH250598   3.577   0.533  11.993  0.7274  0.5611 -0.5401
 9728TIP3    H150599   3.512   0.591  11.952  1.1972  0.7560 -1.0307
 9728TIP3    H250600   3.584   0.565  12.083 -0.5673 -0.0887 -0.1840
 9729TIP3   OH250601   1.566   5.454   1.363  0.8055  0.0086 -0.4190
 9729TIP3    H150602   1.631   5.445   1.432 -0.1530  0.1682  0.5259
 9729TIP3    H250603   1.519   5.534   1.384 -0.0575 -0.3940 -0.7736
 9730TIP3   OH250604   5.979   0.620  12.446  0.0276  0.2885  0.8284
 9730TIP3    H150605   6.063   0.646  12.408  0.6243 -0.7974  1.3554
 9730TIP3    H250606   5.948   0.698  12.492 -0.2709  1.3523 -1.0672
 9731TIP3   OH250607   6.009   4.677  16.320 -0.1179  0.7670  0.1642
 9731TIP3    H150608   6.058   4.621  16.259 -2.1955  1.6356 -2.5013
 9731TIP3    H250609   6.064   4.755  16.330  0.7569  0.1449  0.3237
 9732TIP3   OH250610   3.169   0.496  11.868 -0.0091 -0.0825 -0.1759
 9732TIP3    H150611   3.092   0.523  11.918  0.5566  1.6678 -0.1864
 9732TIP3    H250612   3.149   0.407  11.838 -2.3529  0.6204 -0.8573
 9733TIP3   OH250613   1.823   5.204   3.129 -0.3201 -0.4267  0.0933
 9733TIP3    H150614   1.767   5.197   3.052  0.2435  2.4243 -0.6807
 9733TIP3    H250615   1.773   5.259   3.190 -0.6292 -2.3820  1.7371
 9734TIP3   OH250616   2.006   6.319  13.007  0.1439  0.5308  0.7988
 9734TIP3    H150617   1.938   6.286  12.949 -0.0776  1.2818  0.6134
 9734TIP3    H250618   1.968   6.312  13.095  1.0293 -1.9783  1.0625
 9735TIP3   OH250619   4.975   3.605   1.499 -0.0802 -0.4777  0.2127
 9735TIP3    H150620   5.006   3.515   1.513  1.9212  0.3152  1.3282
 9735TIP3    H250621   4.981   3.646   1.585  3.2075  1.8667 -0.9228
 9736TIP3   OH250622   1.333   5.109   2.356 -0.1798  0.0266 -0.3217
 9736TIP3    H150623   1.391   5.103   2.280  0.7304 -0.9956  0.4196
 9736TIP3    H250624   1.259   5.052   2.334 -0.7609  1.0658 -1.1277
 9737TIP3   OH250625   5.746   3.761   4.129 -0.3332  0.4643 -0.0424
 9737TIP3    H150626   5.827   3.711   4.117  0.2643  1.7016 -1.6067
 9737TIP3    H250627   5.774   3.841   4.175 -0.3754  1.4714 -1.6667
 9738TIP3   OH250628   5.434   6.642   0.817 -0.3652  0.4538  0.2343
 9738TIP3    H150629   5.479   6.707   0.764  0.3355  1.0572  1.5256
 9738TIP3    H250630   5.451   6.668   0.908  0.0179 -1.5886  0.8010
 9739TIP3   OH250631   2.082   5.825   4.436  0.1808 -0.2800 -0.3827
 9739TIP3    H150632   2.107   5.733   4.442  0.4201 -0.2169 -0.4168
 9739TIP3    H250633   2.090   5.847   4.344  1.2080  0.0763 -0.2214
 9740TIP3   OH250634   4.926   3.216   2.463 -0.9082 -0.4187  0.1605
 9740TIP3    H150635   4.956   3.205   2.372 -0.8350 -0.3485  0.1756
 9740TIP3    H250636   4.992   3.170   2.515 -1.3925 -1.1780  0.1253
 9741TIP3   OH250637   0.008   3.426   1.994  0.3640 -0.2376  0.0390
 9741TIP3    H150638  -0.063   3.403   2.055 -1.8859 -0.2088 -2.3901
 9741TIP3    H250639   0.036   3.343   1.957  1.0029 -0.1515  0.3060
 9742TIP3   OH250640   5.992   3.225  12.282 -0.1291 -0.3625  0.5278
 9742TIP3    H150641   6.072   3.275  12.300  0.4956 -0.8255 -0.8115
 9742TIP3    H250642   6.023   3.150  12.230 -1.6907  0.6821 -2.0927
 9743TIP3   OH250643   6.103   0.987   5.422 -0.0606  0.6227 -0.5938
 9743TIP3    H150644   6.178   0.988   5.483 -1.1503  0.1083  0.8235
 9743TIP3    H250645   6.091   0.895   5.401 -0.2592  0.7069 -0.8464
 9744TIP3   OH250646   6.574   4.500   0.353 -0.1570 -0.4207  0.2933
 9744TIP3    H150647   6.517   4.486   0.277  0.8101  1.6521 -0.9099
 9744TIP3    H250648   6.549   4.586   0.387  0.2080 -0.8138  1.6434
 9745TIP3   OH250649   6.245   3.132   2.090  0.3848  0.5757 -0.7434
 9745TIP3    H150650   6.288   3.135   2.175  2.0937 -1.7993 -1.4023
 9745TIP3    H250651   6.174   3.196   2.096  0.3406  0.3832  2.4883
 9746TIP3   OH250652   1.952   5.084   3.505 -0.5957 -0.6464 -0.7437
 9746TIP3    H150653   1.984   5.037   3.428  0.4757 -0.7372 -0.2609
 9746TIP3    H250654   1.886   5.144   3.471 -1.3495 -1.8638 -1.5011
 9747TIP3   OH250655   4.892   1.001  12.640  0.1278 -0.4654  0.4349
 9747TIP3    H150656   4.946   1.057  12.696  0.1506  0.0590 -0.0930
 9747TIP3    H250657   4.906   0.913  12.672 -0.2064 -0.1331  1.5428
 9748TIP3   OH250658   2.138   3.358  16.931 -0.7188 -0.0872  0.3245
 9748TIP3    H150659   2.093   3.410  16.864 -1.9948 -2.4038 -0.7351
 9748TIP3    H250660   2.206   3.311  16.883 -0.9023 -0.9107  0.8433
 9749TIP3   OH250661   3.687   3.313  16.535  0.1545 -0.2040  0.0596
 9749TIP3    H150662   3.701   3.260  16.457  0.3728  0.7299 -0.5561
 9749TIP3    H250663   3.601   3.354  16.523  0.3541  0.2454  0.1191
 9750TIP3   OH250664   6.709   0.146  14.170 -0.2834  0.4005 -0.3417
 9750TIP3    H150665   6.798   0.153  14.135 -0.1573  0.9840  0.0783
 9750TIP3    H250666   6.652   0.148  14.093  0.0891 -0.4980 -0.6487
 9751TIP3   OH250667   0.834   3.132  14.867 -0.3674  0.3681 -0.0229
 9751TIP3    H150668   0.858   3.225  14.863 -0.9951  0.5076 -0.8722
 9751TIP3    H250669   0.818   3.108  14.776 -0.2330 -0.5713  0.1976
 9752TIP3   OH250670   0.471   4.213  12.997  0.1855 -0.3486 -0.1876
 9752TIP3    H150671   0.399   4.250  12.947  1.2605  1.2216 -0.6263
 9752TIP3    H250672   0.449   4.231  13.088  0.2938  0.6413 -0.3522
 9753TIP3   OH250673   1.122   3.592  15.205  1.0160  0.4709 -0.2476
 9753TIP3    H150674   1.184   3.578  15.134  2.1538  0.0055  0.7961
 9753TIP3    H250675   1.150   3.532  15.274 -0.1893  0.7472  0.5225
 9754TIP3   OH250676   6.020   6.629  12.256  1.1989 -0.6272  0.2519
 9754TIP3    H150677   5.977   6.689  12.316  1.2132  0.0672 -0.4126
 9754TIP3    H250678   6.009   6.669  12.169 -0.3927 -2.4709 -0.4857
 9755TIP3   OH250679   5.042   2.376   1.268 -0.2104  0.2862  0.6108
 9755TIP3    H150680   4.967   2.318   1.272  0.3673 -0.5091  0.1304
 9755TIP3    H250681   5.021   2.447   1.330 -1.1102 -0.1940  0.8686
 9756TIP3   OH250682   5.789   3.124  16.549  0.1115 -0.1840 -0.0367
 9756TIP3    H150683   5.726   3.116  16.478  0.3471  2.1967 -0.6044
 9756TIP3    H250684   5.739   3.109  16.629 -0.4617 -1.4575 -0.6167
 9757TIP3   OH250685   3.244   0.550   3.021  0.4451  0.0113 -0.1670
 9757TIP3    H150686   3.206   0.472   2.980 -0.4063  0.3277  0.0156
 9757TIP3    H250687   3.215   0.623   2.967 -0.1299  0.3640  0.5998
 9758TIP3   OH250688   5.751   5.811   2.293 -0.2582 -0.1776 -0.2564
 9758TIP3    H150689   5.755   5.782   2.201  1.3983 -2.0797  0.3333
 9758TIP3    H250690   5.840   5.840   2.312 -1.4304  4.1504 -0.3052
 9759TIP3   OH250691   2.722   3.297  13.551  0.2804 -0.2513  0.0677
 9759TIP3    H150692   2.647   3.239  13.566 -0.9413  1.6792  2.1774
 9759TIP3    H250693   2.792   3.260  13.604  1.0865 -2.3098 -2.2404
 9760TIP3   OH250694   4.489   3.900   4.376  0.7676  0.0050  0.0691
 9760TIP3    H150695   4.409   3.874   4.420 -0.4309  1.9577 -0.8091
 9760TIP3    H250696   4.460   3.933   4.290  2.4622  0.8970 -0.2171
 9761TIP3   OH250697   3.997   3.160  12.044  0.2264 -0.2280  1.0315
 9761TIP3    H150698   4.085   3.196  12.032  0.4305 -1.3301 -1.2008
 9761TIP3    H250699   3.976   3.119  11.961 -2.8804  0.9713  1.0943
 9762TIP3   OH250700   4.611   0.168   0.829 -0.3225  0.6594  1.1685
 9762TIP3    H150701   4.543   0.196   0.768 -1.0772  0.8953  2.1053
 9762TIP3    H250702   4.661   0.102   0.781 -1.8474 -0.2741  0.8167
 9763TIP3   OH250703   2.590   0.893   1.658 -0.6279  0.8952  0.5008
 9763TIP3    H150704   2.639   0.819   1.623  0.9683  1.6299  1.0764
 9763TIP3    H250705   2.499   0.862   1.664  0.3402 -1.8420  2.9381
 9764TIP3   OH250706   3.057   1.484  11.925  0.1720  0.0454  0.0548
 9764TIP3    H150707   3.091   1.414  11.869  1.7609  0.1047  0.8856
 9764TIP3    H250708   3.135   1.530  11.956 -0.7522  0.9717  1.0950
 9765TIP3   OH250709   0.603   0.785   4.232  0.2678 -0.4156 -0.2541
 9765TIP3    H150710   0.535   0.789   4.165  0.0722 -1.5591 -0.1526
 9765TIP3    H250711   0.555   0.781   4.315  0.4556 -0.8402 -0.1603
 9766TIP3   OH250712   0.053   3.048   2.332 -0.2206  0.2482 -0.6562
 9766TIP3    H150713  -0.021   3.000   2.368 -0.2830  0.2704 -0.7540
 9766TIP3    H250714   0.124   2.983   2.329 -0.1220  0.3303 -0.2004
 9767TIP3   OH250715   4.845   4.978  15.521 -0.1307 -0.1143  0.3716
 9767TIP3    H150716   4.911   4.961  15.454  1.7485 -0.0305  2.0955
 9767TIP3    H250717   4.793   5.050  15.486  1.5433  0.7339 -0.5160
 9768TIP3   OH250718   0.508   4.146  10.972  0.0728 -0.7112  0.1169
 9768TIP3    H150719   0.497   4.057  10.936 -1.5749 -0.0253 -1.2126
 9768TIP3    H250720   0.555   4.194  10.904  0.4251 -0.3867  0.5798
 9769TIP3   OH250721   3.597   0.988   0.313  0.1216  0.1011 -0.0195
 9769TIP3    H150722   3.627   0.960   0.399 -0.1667  0.5625  0.2384
 9769TIP3    H250723   3.518   0.936   0.296  0.6117 -0.5487 -0.3532
 9770TIP3   OH250724   1.808   1.969  11.398 -0.1858  0.1935 -0.5880
 9770TIP3    H150725   1.745   1.999  11.463 -0.5749  0.2873 -1.0036
 9770TIP3    H250726   1.890   1.958  11.447 -0.9937 -1.8693  0.3940
 9771TIP3   OH250727   5.438   3.318  14.888  0.5888  0.2582  0.2325
 9771TIP3    H150728   5.472   3.282  14.806 -0.7720 -0.4357 -0.0656
 9771TIP3    H250729   5.419   3.409  14.869 -1.9391 -0.4320 -1.0190
 9772TIP3   OH250730   3.354   5.997   2.515  0.0615 -0.1847 -0.0971
 9772TIP3    H150731   3.398   6.079   2.541 -1.0752  1.4940 -2.9018
 9772TIP3    H250732   3.293   5.978   2.585  0.0056  1.6933  0.4110
 9773TIP3   OH250733   5.509   5.320   1.898  0.1502 -0.2335  0.5768
 9773TIP3    H150734   5.545   5.355   1.816 -0.8574 -0.9632 -0.2034
 9773TIP3    H250735   5.503   5.226   1.883 -0.3474 -0.3377  1.3720
 9774TIP3   OH250736   2.653   1.192  13.405 -0.6701 -0.2584  0.1040
 9774TIP3    H150737   2.625   1.256  13.470  0.9777  0.8129 -0.1998
 9774TIP3    H250738   2.671   1.243  13.326 -4.8025 -1.7246 -2.1020
 9775TIP3   OH250739   6.054   1.497  14.093 -0.0735 -0.3844 -0.0719
 9775TIP3    H150740   6.058   1.536  14.180  3.1236  0.8499 -0.6365
 9775TIP3    H250741   6.082   1.406  14.106  0.1102 -0.2824  0.2527
 9776TIP3   OH250742   5.980   1.991  12.375  0.2785 -0.6475  0.0441
 9776TIP3    H150743   6.023   1.966  12.293  0.4514 -1.0013  0.2392
 9776TIP3    H250744   5.912   2.053  12.349  0.5331 -0.5270 -0.3317
 9777TIP3   OH250745   6.558   6.804  12.452 -0.4087  0.2781 -0.1349
 9777TIP3    H150746   6.516   6.883  12.417 -1.6418 -0.6469 -0.8098
 9777TIP3    H250747   6.629   6.786  12.390  0.5740  1.4096  0.5931
 9778TIP3   OH250748   1.183   4.750  16.757  0.4819  0.1538  0.6644
 9778TIP3    H150749   1.104   4.793  16.725  1.1197  1.1908  0.4129
 9778TIP3    H250750   1.173   4.746  16.852 -0.7695 -1.6087  0.5140
 9779TIP3   OH250751   2.422   5.020   2.147 -0.1741  0.2479 -0.5091
 9779TIP3    H150752   2.503   5.027   2.097  0.2239  0.2200  0.1237
 9779TIP3    H250753   2.361   5.079   2.103 -0.0897 -0.3966 -1.5190
 9780TIP3   OH250754   4.864   4.281  16.143  0.0636  0.2183 -0.4396
 9780TIP3    H150755   4.896   4.361  16.183  0.4071 -0.6341  1.0858
 9780TIP3    H250756   4.868   4.297  16.049 -0.4961  2.2069 -0.1653
 9781TIP3   OH250757   5.816   1.055   4.528 -0.1027  0.0302  0.6388
 9781TIP3    H150758   5.789   0.975   4.484 -0.2276 -0.8889  2.3051
 9781TIP3    H250759   5.820   1.032   4.621  1.4627  1.5035  1.0019
 9782TIP3   OH250760   1.082   4.130  13.393  0.0385  0.2832 -0.3065
 9782TIP3    H150761   1.157   4.075  13.370  0.4048 -0.3751  2.0885
 9782TIP3    H250762   1.122   4.211  13.427 -0.4346  0.9394 -1.2595
 9783TIP3   OH250763   2.625   2.514  11.215  0.9240  0.6273  0.4333
 9783TIP3    H150764   2.595   2.441  11.161  1.1380  0.4474  0.5500
 9783TIP3    H250765   2.627   2.478  11.304  0.9705  0.7945  0.5001
 9784TIP3   OH250766   2.718   1.127   0.255 -0.5915 -0.1504 -0.1707
 9784TIP3    H150767   2.675   1.131   0.170  0.3492 -1.5264 -0.7598
 9784TIP3    H250768   2.810   1.112   0.234  0.1767  2.2678  1.0446
 9785TIP3   OH250769   1.313   3.303  13.300 -0.3505  0.3805  0.1896
 9785TIP3    H150770   1.286   3.230  13.244  0.7434 -1.1706  1.5757
 9785TIP3    H250771   1.231   3.340  13.332 -0.9797  0.9775 -1.9614
 9786TIP3   OH250772   3.039   0.773  10.865 -0.1536  0.0772 -0.4730
 9786TIP3    H150773   3.126   0.756  10.899 -0.0472  0.3640 -0.5975
 9786TIP3    H250774   2.990   0.809  10.939 -0.1306  0.0315 -0.4356
 9787TIP3   OH250775   5.251   3.036  11.187  0.0803 -0.0791 -0.4606
 9787TIP3    H150776   5.160   3.035  11.158 -0.7675  1.2265  1.9029
 9787TIP3    H250777   5.247   3.013  11.280  2.2671 -0.8228 -0.4888
 9788TIP3   OH250778   4.784   4.430  10.868  0.0301  0.2617  0.1667
 9788TIP3    H150779   4.811   4.339  10.857 -0.7049  0.1245 -0.6876
 9788TIP3    H250780   4.841   4.480  10.808 -0.7314  0.1254 -0.7010
 9789TIP3   OH250781   1.922   5.246   6.380 -0.3538  0.1108  0.6322
 9789TIP3    H150782   1.948   5.334   6.353 -0.9953  0.3918  0.9051
 9789TIP3    H250783   2.004   5.200   6.395 -0.0073  0.9173  1.2840
 9790TIP3   OH250784   1.626   2.248   4.726  0.6843  0.1661 -0.1663
 9790TIP3    H150785   1.595   2.182   4.663  0.3813  1.3719 -1.3201
 9790TIP3    H250786   1.558   2.249   4.793 -0.0936  0.3726 -0.9343
 9791TIP3   OH250787   4.762   4.241  14.546  0.6435 -0.1904 -0.2740
 9791TIP3    H150788   4.810   4.242  14.463  0.4414  0.2897 -0.3927
 9791TIP3    H250789   4.783   4.325  14.586 -0.0918  0.0275 -0.3256
 9792TIP3   OH250790   3.757   2.131  14.161  0.6489 -0.0336 -0.0510
 9792TIP3    H150791   3.673   2.111  14.121  0.0986  0.4728  0.7944
 9792TIP3    H250792   3.781   2.217  14.125 -0.5208  1.0884  1.6274
 9793TIP3   OH250793   5.664   0.635  16.093  0.3128 -0.5066 -0.5129
 9793TIP3    H150794   5.638   0.726  16.107 -0.2411 -0.7347 -0.0072
 9793TIP3    H250795   5.626   0.612  16.008  0.5288 -0.2408 -0.6815
 9794TIP3   OH250796   4.313   3.291  13.611  0.3381  0.0242 -0.2620
 9794TIP3    H150797   4.386   3.353  13.603  1.2382 -0.8296  1.0017
 9794TIP3    H250798   4.334   3.239  13.689 -0.5543 -1.6668 -1.1105
 9795TIP3   OH250799   5.820   6.163  10.974 -0.0035 -0.7281  0.1895
 9795TIP3    H150800   5.867   6.246  10.977 -1.3100  0.0514 -0.2811
 9795TIP3    H250801   5.839   6.128  10.887 -0.6824 -0.1659 -0.1938
 9796TIP3   OH250802   6.363   5.448  16.947  0.2208  0.0602  0.3253
 9796TIP3    H150803   6.320   5.529  16.920  1.7828  0.7881 -0.1066
 9796TIP3    H250804   6.304   5.379  16.918 -1.3402  1.0315  1.0525
 9797TIP3   OH250805   3.351   5.967   1.801 -0.5305  0.2556  0.0728
 9797TIP3    H150806   3.350   6.022   1.880 -0.9831 -0.1339  0.3473
 9797TIP3    H250807   3.259   5.952   1.781 -0.5315 -2.9479  1.8449
 9798TIP3   OH250808   6.796   2.149  11.740  0.3604 -0.0114 -0.4397
 9798TIP3    H150809   6.818   2.185  11.826  0.6054  0.6259 -0.7625
 9798TIP3    H250810   6.727   2.086  11.757  1.1046 -0.6338  0.3553
 9799TIP3   OH250811   6.423   2.089  15.107  0.3732 -0.2313  0.0484
 9799TIP3    H150812   6.386   2.003  15.088  1.8413 -1.1222  1.0528
 9799TIP3    H250813   6.496   2.097  15.046  0.9176 -0.1939  0.6909
 9800TIP3   OH250814   0.549   5.638  12.352 -0.1092  0.0160 -0.6718
 9800TIP3    H150815   0.623   5.596  12.306 -0.1587 -1.7072  0.7117
 9800TIP3    H250816   0.578   5.727  12.368  1.7186 -0.6217 -0.1718
 9801TIP3   OH250817   0.270   1.753   2.884 -0.0719  0.7807  0.4707
 9801TIP3    H150818   0.275   1.754   2.789  0.8811  1.7231  0.5090
 9801TIP3    H250819   0.282   1.661   2.908  0.2227  0.6144 -0.2959
 9802TIP3   OH250820   1.873   6.467  15.938 -0.1400  0.5072 -0.5547
 9802TIP3    H150821   1.877   6.374  15.963 -3.8719 -0.1155 -1.7974
 9802TIP3    H250822   1.964   6.496  15.945  1.1276 -3.0740  0.3978
 9803TIP3   OH250823   4.403   0.196  11.637 -0.3068 -0.3360  0.4406
 9803TIP3    H150824   4.350   0.238  11.570 -0.2747 -0.1079  0.5588
 9803TIP3    H250825   4.402   0.103  11.614 -0.6873 -0.3196  0.3951
 9804TIP3   OH250826   4.726   2.819   1.037 -0.4777  0.1803  0.6723
 9804TIP3    H150827   4.774   2.799   0.956 -1.3641  3.0564 -0.6758
 9804TIP3    H250828   4.788   2.870   1.090 -0.4197 -0.3828  1.1622
 9805TIP3   OH250829   2.296   3.996   2.561  0.3192 -0.2919  0.1938
 9805TIP3    H150830   2.382   4.023   2.591 -0.5215  0.7433  1.7783
 9805TIP3    H250831   2.247   4.077   2.550 -0.7485 -0.9045  0.2550
 9806TIP3   OH250832   4.748   4.699  14.835  0.4569 -0.1824 -0.2886
 9806TIP3    H150833   4.670   4.667  14.790 -0.0772  0.3043  0.2646
 9806TIP3    H250834   4.716   4.730  14.920  1.2177  0.2212 -0.1352
 9807TIP3   OH250835   1.275   6.000  12.312 -0.1629 -0.5953 -0.1842
 9807TIP3    H150836   1.236   5.948  12.242  1.0688 -2.4639  0.4257
 9807TIP3    H250837   1.207   6.006  12.379 -0.8286 -0.0907 -0.8906
 9808TIP3   OH250838   2.592   3.232  16.409  0.2454  0.4614  0.3772
 9808TIP3    H150839   2.602   3.141  16.381  0.0042 -0.0470  1.8521
 9808TIP3    H250840   2.617   3.232  16.501 -0.6545  1.7079  0.6588
 9809TIP3   OH250841   2.411   1.078  16.835 -0.3926 -0.0985 -0.4059
 9809TIP3    H150842   2.447   1.042  16.753 -0.7950  0.0179 -0.6375
 9809TIP3    H250843   2.319   1.049  16.835  0.0721 -1.7486  0.9494
 9810TIP3   OH250844   6.224   1.134  16.604 -0.4287 -0.1497  0.1314
 9810TIP3    H150845   6.170   1.178  16.539  0.2392 -2.8914 -2.5263
 9810TIP3    H250846   6.176   1.053  16.624  0.0244  0.0164  2.1344
 9811TIP3   OH250847   5.524   2.276   5.595 -0.6172  0.4502  0.0930
 9811TIP3    H150848   5.601   2.276   5.651 -0.6727  0.3318  0.1698
 9811TIP3    H250849   5.556   2.252   5.508 -0.9837 -2.6717  0.6960
 9812TIP3   OH250850   6.550   3.692  15.548 -0.2395  0.3263  0.2192
 9812TIP3    H150851   6.640   3.718  15.529 -0.7344  1.7149 -0.4037
 9812TIP3    H250852   6.496   3.760  15.507 -1.6237 -1.2569 -0.7321
 9813TIP3   OH250853   4.982   4.711  13.698 -0.4705  0.2402 -0.4148
 9813TIP3    H150854   4.956   4.630  13.654 -1.5656  0.3754 -0.0424
 9813TIP3    H250855   5.006   4.770  13.626  0.6667 -0.5024 -0.6729
 9814TIP3   OH250856   6.284   5.217  14.374 -0.2681  0.3263  0.5254
 9814TIP3    H150857   6.257   5.240  14.285  0.4055  0.5535  0.3716
 9814TIP3    H250858   6.361   5.162  14.362 -0.5891 -0.2207  0.9559
 9815TIP3   OH250859   4.227   5.692   0.769 -0.1219 -0.0088 -0.0525
 9815TIP3    H150860   4.214   5.598   0.754 -0.8052 -0.0777  0.8403
 9815TIP3    H250861   4.146   5.720   0.811  0.7878  0.5909  1.3723
 9816TIP3   OH250862   4.905   6.284   0.709  0.4267 -0.0366 -0.2265
 9816TIP3    H150863   4.880   6.309   0.620 -0.0415  0.5258  0.0563
 9816TIP3    H250864   4.849   6.209   0.729 -1.0481  1.1846  0.3841
 9817TIP3   OH250865   0.089   4.717   0.570 -0.2863 -0.0721  0.0675
 9817TIP3    H150866   0.158   4.698   0.633  0.7143  2.1394 -0.2932
 9817TIP3    H250867   0.112   4.664   0.493  0.7090  0.2128  0.1548
 9818TIP3   OH250868   1.163   4.535  15.181 -0.1295 -0.4140 -0.2657
 9818TIP3    H150869   1.136   4.600  15.116  1.7279  0.5530 -0.1646
 9818TIP3    H250870   1.098   4.466  15.175 -0.3517 -0.0942 -2.7440
 9819TIP3   OH250871   6.314   4.869   0.476 -0.3414  0.1532  0.4472
 9819TIP3    H150872   6.243   4.877   0.412  0.5510  0.1715 -0.5559
 9819TIP3    H250873   6.276   4.903   0.557 -1.3704  0.4835 -0.1507
 9820TIP3   OH250874   1.747   3.419  14.829  0.3947  0.2309  0.0923
 9820TIP3    H150875   1.726   3.336  14.871 -1.6538  1.0881  0.9075
 9820TIP3    H250876   1.807   3.396  14.758  1.0172 -1.7329  1.1735
 9821TIP3   OH250877   4.093   0.355   1.288  0.7521  0.1629 -0.3248
 9821TIP3    H150878   4.120   0.446   1.276 -0.1562  0.7729  1.7909
 9821TIP3    H250879   3.997   0.359   1.288  0.7026 -0.6062  0.8283
 9822TIP3   OH250880   2.329   6.234   4.210 -0.3374 -0.0705 -0.0153
 9822TIP3    H150881   2.397   6.189   4.260 -0.4041  0.6171  0.7083
 9822TIP3    H250882   2.329   6.190   4.125  0.9959 -0.0903 -0.0244
 9823TIP3   OH250883   4.369   0.344  16.219  0.1822 -0.5589  0.3614
 9823TIP3    H150884   4.416   0.261  16.206 -2.0906 -1.7784 -0.5721
 9823TIP3    H250885   4.277   0.319  16.224 -0.4873  1.8179  1.3648
 9824TIP3   OH250886   1.968   2.880  15.579 -0.4553 -0.0681 -0.8230
 9824TIP3    H150887   1.935   2.911  15.495 -0.4020 -0.7561 -1.1030
 9824TIP3    H250888   1.892   2.882  15.637 -0.4603  0.5359 -0.8463
 9825TIP3   OH250889   4.212   3.912  16.336  0.3074 -0.6168  0.4246
 9825TIP3    H150890   4.129   3.950  16.306 -0.4591 -0.8115  2.2166
 9825TIP3    H250891   4.229   3.841  16.274 -1.3971 -1.2359  0.6156
 9826TIP3   OH250892   1.598   4.189  12.723 -0.3827 -0.1362  0.1736
 9826TIP3    H150893   1.689   4.215  12.743 -0.9630  0.9149  1.6588
 9826TIP3    H250894   1.547   4.225  12.796 -1.8488 -1.7975  0.0227
 9827TIP3   OH250895   4.661   4.527   2.730 -0.0562 -0.6330 -0.0459
 9827TIP3    H150896   4.575   4.505   2.694 -1.3770  2.5509  0.7774
 9827TIP3    H250897   4.722   4.475   2.679 -2.0686  0.6243 -4.2451
 9828TIP3   OH250898   4.599   2.369   0.479 -0.3459 -0.2952  0.1876
 9828TIP3    H150899   4.692   2.347   0.483  0.5371  2.1653 -2.4927
 9828TIP3    H250900   4.590   2.447   0.534 -0.2758  0.7168 -1.1683
 9829TIP3   OH250901   1.550   2.881  15.066 -0.4164  0.0215 -0.2744
 9829TIP3    H150902   1.625   2.861  15.010 -0.0018 -0.8357  0.5472
 9829TIP3    H250903   1.477   2.832  15.028 -0.3801  0.2583 -0.6461
 9830TIP3   OH250904   4.274   0.941   4.777  0.5937 -0.2371 -0.6543
 9830TIP3    H150905   4.353   0.991   4.753 -0.1868  1.5756  0.3446
 9830TIP3    H250906   4.223   0.936   4.696  0.5651  0.8697 -0.7214
 9831TIP3   OH250907   1.079   5.761  12.526  0.3743  0.6024 -0.5231
 9831TIP3    H150908   1.027   5.681  12.517 -2.2059  1.6703  2.8111
 9831TIP3    H250909   1.170   5.730  12.525 -0.5050 -2.3802  0.2790
 9832TIP3   OH250910   5.224   0.509  13.954 -0.1778  0.1692 -0.9145
 9832TIP3    H150911   5.295   0.567  13.924  1.6286 -1.9054 -0.9292
 9832TIP3    H250912   5.233   0.431  13.899 -3.3178  0.2701 -1.7475
 9833TIP3   OH250913   3.414   4.230   4.117 -0.2278  0.3270  0.0654
 9833TIP3    H150914   3.453   4.214   4.203  0.4964  0.8978 -0.1522
 9833TIP3    H250915   3.447   4.158   4.062  0.0653  0.4955  0.0226
 9834TIP3   OH250916   0.794   2.439  11.744 -0.0393 -0.2942  0.5741
 9834TIP3    H150917   0.745   2.512  11.781 -1.2269  0.0117 -1.4497
 9834TIP3    H250918   0.837   2.475  11.667 -0.5873 -1.6642 -0.4329
 9835TIP3   OH250919   1.548   0.384   1.065  0.3920 -0.2025  0.0018
 9835TIP3    H150920   1.557   0.325   1.141  0.9014 -0.1198  0.0100
 9835TIP3    H250921   1.638   0.411   1.046  0.3357 -0.6967 -1.0104
 9836TIP3   OH250922   5.611   4.595  16.241 -0.0025  0.1326 -0.1784
 9836TIP3    H150923   5.544   4.657  16.213 -1.0403 -1.2706 -0.9302
 9836TIP3    H250924   5.637   4.550  16.161  2.0224  0.7638  0.0542
 9837TIP3   OH250925   5.490   1.665  11.738 -0.0737 -0.0186  0.3664
 9837TIP3    H150926   5.423   1.639  11.802  0.4954 -1.0836  0.5621
 9837TIP3    H250927   5.568   1.679  11.791  0.2753 -0.4257 -0.0314
 9838TIP3   OH250928   6.690   2.924  14.610  0.0756  0.3641 -0.5863
 9838TIP3    H150929   6.763   2.956  14.558 -0.0537  1.8107  0.0669
 9838TIP3    H250930   6.614   2.932  14.551 -0.1234  2.2830 -0.1542
 9839TIP3   OH250931   6.780   1.835  11.377  0.3337  0.2446 -0.0796
 9839TIP3    H150932   6.734   1.869  11.301 -1.5641  0.7375  1.2060
 9839TIP3    H250933   6.858   1.891  11.385 -1.1198  2.3265  0.1779
 9840TIP3   OH250934   0.115   5.571  12.056  0.0954 -0.0660 -0.0353
 9840TIP3    H150935   0.158   5.558  12.141  0.8541 -1.0077 -0.5485
 9840TIP3    H250936   0.081   5.485  12.033 -0.1218  0.1925 -0.6920
 9841TIP3   OH250937   6.677   0.861  11.445  0.1477 -0.6731  0.3329
 9841TIP3    H150938   6.689   0.813  11.364  0.0595 -0.4226  0.1681
 9841TIP3    H250939   6.745   0.929  11.443 -0.0861 -0.4369  0.2923
 9842TIP3   OH250940   1.754   2.943   5.708 -0.4959 -0.3752 -0.6253
 9842TIP3    H150941   1.681   2.888   5.736 -0.1591 -0.0455  1.0119
 9842TIP3    H250942   1.831   2.903   5.749 -0.4062  2.0246  1.8099
 9843TIP3   OH250943   1.077   3.040  10.233  0.6524  0.4697 -0.1542
 9843TIP3    H150944   1.060   3.131  10.210 -0.6550  0.3166  0.1601
 9843TIP3    H250945   1.007   3.016  10.293  1.7987 -0.3103  0.9478
 9844TIP3   OH250946   5.208   2.830  12.303 -0.0511 -0.6091  0.5049
 9844TIP3    H150947   5.211   2.912  12.252  0.8437 -1.4418 -0.8592
 9844TIP3    H250948   5.299   2.801  12.305 -0.5914 -2.5955 -0.8339
 9845TIP3   OH250949   5.435   0.002  12.844  0.8389  0.3337 -0.1533
 9845TIP3    H150950   5.414   0.044  12.761  1.2620  0.6767 -0.0880
 9845TIP3    H250951   5.379  -0.076  12.846  0.7125  0.4064 -0.6843
 9846TIP3   OH250952   4.315   1.407  10.769  0.2178 -0.2890 -0.2798
 9846TIP3    H150953   4.382   1.407  10.701  0.3670 -1.0737 -0.1480
 9846TIP3    H250954   4.237   1.441  10.726 -0.0758 -2.0628 -1.2632
 9847TIP3   OH250955   4.301   5.071  11.627 -0.0595  0.1173 -0.6685
 9847TIP3    H150956   4.331   5.161  11.622 -0.4590  0.3901  1.2175
 9847TIP3    H250957   4.380   5.019  11.642  0.2608  0.0309 -2.4125
 9848TIP3   OH250958   0.397   2.700   5.308 -0.2180 -0.3043 -0.3896
 9848TIP3    H150959   0.372   2.609   5.291 -1.2909  0.0464 -0.7672
 9848TIP3    H250960   0.373   2.747   5.228  0.3633  0.3142 -0.2149
 9849TIP3   OH250961   3.435   3.245   4.117 -0.5420 -0.1750  0.0362
 9849TIP3    H150962   3.381   3.271   4.043 -0.2393 -0.0801 -0.1529
 9849TIP3    H250963   3.492   3.177   4.082  0.0183  0.2962  0.0283
 9850TIP3   OH250964   4.282   1.140   0.218 -0.0220  0.2912 -0.2174
 9850TIP3    H150965   4.188   1.123   0.227  0.1437 -0.4037  0.3062
 9850TIP3    H250966   4.301   1.209   0.281 -0.1455  0.2984 -0.1892
 9851TIP3   OH250967   0.947   1.063   1.189 -0.4003 -0.4926  0.4472
 9851TIP3    H150968   0.865   1.082   1.143  0.0815  0.8832  0.1249
 9851TIP3    H250969   1.013   1.114   1.143  0.5040 -0.9599  1.2059
 9852TIP3   OH250970   2.765   2.034   5.127  0.6078  0.1819 -0.1972
 9852TIP3    H150971   2.675   2.017   5.098  0.2427 -0.4121  1.2058
 9852TIP3    H250972   2.791   2.112   5.079  0.5151 -1.3950 -3.0604
 9853TIP3   OH250973   6.073   4.384  16.430  0.3278  0.8190 -0.2739
 9853TIP3    H150974   6.049   4.313  16.371 -2.3076  1.3862 -0.0427
 9853TIP3    H250975   6.082   4.343  16.516 -0.9773  0.6657 -0.1811
 9854TIP3   OH250976   3.257   6.798   2.280 -0.3870  0.2921  0.0584
 9854TIP3    H150977   3.182   6.743   2.302  0.3022 -0.1631  1.3622
 9854TIP3    H250978   3.272   6.851   2.358  0.0332  1.1086 -0.5583
 9855TIP3   OH250979   3.765   2.909   3.507  0.4906  0.4769  0.2226
 9855TIP3    H150980   3.693   2.971   3.512  1.2099  1.4430 -0.8743
 9855TIP3    H250981   3.830   2.943   3.569  1.6385  1.9057 -1.6643
 9856TIP3   OH250982   1.329   1.264  12.437 -0.0941  0.0782 -0.0750
 9856TIP3    H150983   1.284   1.288  12.518  0.4692  0.9005  0.0053
 9856TIP3    H250984   1.301   1.329  12.373  0.6740  0.3829 -0.1182
 9857TIP3   OH250985   1.271   5.656   5.025 -0.0023 -0.3898 -0.5136
 9857TIP3    H150986   1.281   5.661   5.120  0.5603 -1.5417 -0.4919
 9857TIP3    H250987   1.238   5.567   5.009 -1.6710  0.3300 -1.2881
 9858TIP3   OH250988   5.878   6.810  13.964  0.3027  0.1545  0.6349
 9858TIP3    H150989   5.813   6.852  13.908  0.7798  0.7795  0.5437
 9858TIP3    H250990   5.872   6.857  14.047  1.3794  0.9483  0.2873
 9859TIP3   OH250991   0.731   4.066  15.732  0.1354  0.2318 -0.1241
 9859TIP3    H150992   0.764   4.155  15.719  1.3871 -0.2447 -0.3279
 9859TIP3    H250993   0.699   4.065  15.822 -1.7013  1.4290 -0.7143
 9860TIP3   OH250994   5.779   0.670  15.016 -0.6384  0.2449  0.0398
 9860TIP3    H150995   5.809   0.735  14.952  1.8828 -2.0305 -1.2802
 9860TIP3    H250996   5.698   0.635  14.979  0.7879 -1.0515 -2.0728
 9861TIP3   OH250997   4.651   0.430  15.723  0.2189  0.6260  0.2861
 9861TIP3    H150998   4.626   0.472  15.641 -1.4487 -1.1766 -0.2044
 9861TIP3    H250999   4.624   0.339  15.713  0.9007  0.1198  2.4603
 9862TIP3   OH251000   4.209   5.044   2.573  0.9014 -0.0193  0.5006
 9862TIP3    H151001   4.285   5.100   2.560 -0.4283  2.5436  2.7482
 9862TIP3    H251002   4.210   5.023   2.666 -0.8293 -0.4151  0.4575
 9863TIP3   OH251003   0.630   3.498  12.515 -0.5753 -0.6855 -0.3489
 9863TIP3    H151004   0.690   3.432  12.480  2.1241  0.5077  1.6665
 9863TIP3    H251005   0.607   3.464  12.602 -1.7573 -0.4394 -0.5507
 9864TIP3   OH251006   3.249   5.829   4.139 -0.1811 -0.4518 -0.7647
 9864TIP3    H151007   3.211   5.792   4.219 -0.9073  1.7200 -0.0476
 9864TIP3    H251008   3.278   5.916   4.165  0.6270 -0.1488 -2.6054
 9865TIP3   OH251009   1.517   1.810  11.281 -0.1164 -0.0609  0.0159
 9865TIP3    H151010   1.593   1.800  11.337 -0.0449  0.0906 -0.0530
 9865TIP3    H251011   1.544   1.874  11.214 -0.3431  0.0894  0.0654
 9866TIP3   OH251012   6.484   2.580   5.735  0.1624 -0.5572  0.0490
 9866TIP3    H151013   6.421   2.534   5.680 -0.3852 -0.4047  0.5375
 9866TIP3    H251014   6.485   2.670   5.702  2.5433 -1.2404 -2.0651
 9867TIP3   OH251015   1.794   3.064   2.893 -0.8766 -0.1544 -0.4243
 9867TIP3    H151016   1.800   3.059   2.988  0.2735 -2.1857 -0.5452
 9867TIP3    H251017   1.718   3.010   2.872 -0.8356 -0.1124 -0.6775
 9868TIP3   OH251018   0.865   2.300  13.575  0.0659 -0.3193  0.5336
 9868TIP3    H151019   0.813   2.344  13.507  2.5585 -0.2365 -1.4894
 9868TIP3    H251020   0.920   2.369  13.610  1.1634 -1.0165  0.2171
 9869TIP3   OH251021   5.809   2.950  15.899  0.0548 -0.1269 -0.4993
 9869TIP3    H151022   5.877   2.998  15.852 -0.1083 -0.8119 -1.4582
 9869TIP3    H251023   5.842   2.943  15.989  0.9785  0.0632 -0.8172
 9870TIP3   OH251024   6.777   5.385   0.271  0.4288  0.5091  0.2106
 9870TIP3    H151025   6.762   5.331   0.349 -0.6779  0.4910  0.0061
 9870TIP3    H251026   6.789   5.473   0.305 -1.6710  0.8033  0.3685
 9871TIP3   OH251027   5.142   1.664   6.227 -0.5209 -0.1263  0.0218
 9871TIP3    H151028   5.197   1.743   6.234 -0.7013  0.0781 -0.7176
 9871TIP3    H251029   5.131   1.652   6.133 -2.6327  0.4659  0.1269
 9872TIP3   OH251030   1.236   0.276  16.808 -0.0703 -0.5725 -0.2659
 9872TIP3    H151031   1.244   0.354  16.753 -0.7876  0.1651  0.6306
 9872TIP3    H251032   1.311   0.222  16.784  0.2709  0.2516 -1.1343
 9873TIP3   OH251033   5.602   0.700   1.253  0.3448  0.2187  0.1165
 9873TIP3    H151034   5.585   0.610   1.282  0.0169 -0.1878 -1.2640
 9873TIP3    H251035   5.669   0.733   1.313 -1.1169 -0.1674  2.0458
 9874TIP3   OH251036   0.955   3.927  14.702  0.4044 -0.0044  0.3124
 9874TIP3    H151037   0.868   3.962  14.718  1.2262  2.8523 -0.8694
 9874TIP3    H251038   1.002   3.997  14.657  2.5228 -2.3948 -1.5240
 9875TIP3   OH251039   6.253   4.612  12.484 -0.1418 -0.1813  0.5409
 9875TIP3    H151040   6.245   4.640  12.393 -0.7960  1.3861  1.0511
 9875TIP3    H251041   6.172   4.640  12.525  0.6075  0.1276  1.8549
 9876TIP3   OH251042   0.093   0.384   3.917 -0.1750 -0.1668 -0.0787
 9876TIP3    H151043   0.149   0.352   3.988  0.5976  1.0071 -0.1290
 9876TIP3    H251044   0.106   0.478   3.917 -0.2506 -0.1281 -1.7087
 9877TIP3   OH251045   6.646   3.422  11.459  0.1006 -0.3660 -0.6418
 9877TIP3    H151046   6.633   3.493  11.522 -0.0972 -1.1761  0.2572
 9877TIP3    H251047   6.657   3.466  11.375  3.2229  0.9216  0.2949
 9878TIP3   OH251048   4.562   6.764  15.165 -0.3879  0.3548  0.3047
 9878TIP3    H151049   4.637   6.814  15.132 -0.5582  0.0257 -0.5839
 9878TIP3    H251050   4.487   6.821  15.153 -0.1232  1.3364  2.6442
 9879TIP3   OH251051   0.160   1.178   1.952  0.0341 -0.0833 -0.1883
 9879TIP3    H151052   0.198   1.265   1.940  0.8095 -0.5048 -0.8962
 9879TIP3    H251053   0.124   1.155   1.866 -1.3777  0.0870  0.3407
 9880TIP3   OH251054   6.700   0.553  11.608  0.2846 -0.3995 -0.4781
 9880TIP3    H151055   6.689   0.555  11.513  0.0682 -0.7745 -0.4620
 9880TIP3    H251056   6.612   0.537  11.643  0.4095 -0.5523 -0.2287
 9881TIP3   OH251057   2.383   4.391  15.247 -0.0995  0.0266  0.4538
 9881TIP3    H151058   2.317   4.322  15.236 -2.2965  2.0122  0.2513
 9881TIP3    H251059   2.394   4.427  15.159  1.1667 -0.1591  0.5211
 9882TIP3   OH251060   6.235   5.451   3.765  0.0777  0.2938 -0.7292
 9882TIP3    H151061   6.209   5.490   3.681  0.4672  1.6598 -0.2409
 9882TIP3    H251062   6.216   5.358   3.755 -2.9616  0.8528 -1.2003
 9883TIP3   OH251063   2.317   2.450   4.149  1.0096  0.9019  0.3461
 9883TIP3    H151064   2.341   2.540   4.167 -3.4142  3.1215 -2.8881
 9883TIP3    H251065   2.360   2.429   4.066  1.9047 -0.0053  1.0095
 9884TIP3   OH251066   5.657   5.322  13.287 -0.0424 -0.1121  0.0126
 9884TIP3    H151067   5.579   5.374  13.304  1.0385  1.3977  0.5556
 9884TIP3    H251068   5.683   5.345  13.198 -0.8332 -1.5202 -0.6333
 9885TIP3   OH251069   3.650   3.151  14.798 -0.1194 -0.1231 -0.7517
 9885TIP3    H151070   3.685   3.077  14.847  0.9212  0.5371 -0.4601
 9885TIP3    H251071   3.572   3.117  14.755  0.1882 -1.3049 -0.4055
 9886TIP3   OH251072   6.037   2.021  13.992  0.0337  0.1707  0.9619
 9886TIP3    H151073   6.049   2.057  14.080  0.1706  4.2655 -0.5198
 9886TIP3    H251074   5.951   2.053  13.964  1.8103  3.0719 -1.9233
 9887TIP3   OH251075   3.323   2.356  13.485 -0.0014 -0.1645 -0.6343
 9887TIP3    H151076   3.364   2.283  13.531  1.4455  0.4393 -0.9080
 9887TIP3    H251077   3.295   2.416  13.553 -1.3027 -0.9987 -0.4005
 9888TIP3   OH251078   0.111   1.090  11.930  0.4124  0.2818  0.0481
 9888TIP3    H151079   0.196   1.078  11.889  0.5155  2.3644 -0.4871
 9888TIP3    H251080   0.048   1.070  11.860  0.5731  2.1777 -0.7275
 9889TIP3   OH251081   0.925   6.650  16.433 -0.2471  0.1207  0.1902
 9889TIP3    H151082   0.946   6.562  16.400  0.0486 -0.0235  0.7586
 9889TIP3    H251083   0.951   6.648  16.525 -0.2210  0.8122  0.2018
 9890TIP3   OH251084   1.253   2.031   5.857 -0.0478 -0.3806  0.8011
 9890TIP3    H151085   1.321   1.973   5.892  0.9075 -1.0022 -1.8579
 9890TIP3    H251086   1.191   1.971   5.815  1.4462  0.3831 -2.8339
 9891TIP3   OH251087   1.875   0.773   5.036  0.4236  0.0865 -0.2367
 9891TIP3    H151088   1.825   0.835   5.088 -0.9112 -0.3475 -0.9545
 9891TIP3    H251089   1.964   0.808   5.036  0.3307  0.4614  1.7374
 9892TIP3   OH251090   0.177   6.046  16.175 -0.2345  0.3248 -0.3460
 9892TIP3    H151091   0.124   5.981  16.220  2.7174 -0.2494  2.7483
 9892TIP3    H251092   0.232   5.994  16.116 -0.1584  0.3736 -0.3181
 9893TIP3   OH251093   2.631   4.292  14.135 -0.1307 -0.1255  0.3711
 9893TIP3    H151094   2.704   4.236  14.109  0.1807  0.9338 -1.1502
 9893TIP3    H251095   2.662   4.339  14.212  0.6558  0.0448 -0.0442
 9894TIP3   OH251096   6.704   5.153   1.793 -0.7676 -0.3740  0.5216
 9894TIP3    H151097   6.648   5.220   1.832  0.9082  0.5638  1.4757
 9894TIP3    H251098   6.772   5.138   1.859  1.4821  0.3263 -1.4744
 9895TIP3   OH251099   3.399   0.824   0.954 -0.0691  0.2679 -0.3706
 9895TIP3    H151100   3.354   0.904   0.928 -0.7350 -0.1006 -0.3804
 9895TIP3    H251101   3.490   0.836   0.925 -0.2698  0.8197 -0.7794
 9896TIP3   OH251102   1.432   4.552  16.891  0.1945 -0.0228  0.1550
 9896TIP3    H151103   1.359   4.514  16.841 -1.4209  3.3233 -0.3259
 9896TIP3    H251104   1.391   4.620  16.944  2.7527  0.6180  1.4545
 9897TIP3   OH251105   3.642   4.080  12.127  0.3403  0.3388  0.1435
 9897TIP3    H151106   3.683   3.996  12.106 -0.7813 -0.2713  0.2920
 9897TIP3    H251107   3.642   4.084  12.222  0.7009  0.6749  0.1336
 9898TIP3   OH251108   6.371   3.961   5.307 -0.2329  0.3583  0.3334
 9898TIP3    H151109   6.335   4.042   5.344 -0.5745  0.0500  0.6943
 9898TIP3    H251110   6.304   3.894   5.327 -0.4052  0.1736 -0.8222
 9899TIP3   OH251111   2.722   3.427   3.852 -0.0207  0.2625 -0.1460
 9899TIP3    H151112   2.638   3.471   3.867 -0.3181  0.4443 -2.1398
 9899TIP3    H251113   2.700   3.333   3.854  0.5320  0.0287  3.5998
 9900TIP3   OH251114   4.208   6.443  11.083 -0.2253 -0.1836 -0.4285
 9900TIP3    H151115   4.258   6.489  11.016  0.1475 -0.0037 -0.0303
 9900TIP3    H251116   4.196   6.507  11.153  2.2572 -1.2623  1.1456
 9901TIP3   OH251117   3.539   2.101   5.819 -0.3101  0.9503 -0.7765
 9901TIP3    H151118   3.497   2.186   5.830  1.4094  1.5874  2.0561
 9901TIP3    H251119   3.539   2.063   5.907  3.1276  0.1609 -0.9699
 9902TIP3   OH251120   5.343   6.358  13.513 -0.0672  0.0676 -0.2759
 9902TIP3    H151121   5.253   6.391  13.514  0.0329  0.3256  0.3117
 9902TIP3    H251122   5.350   6.312  13.429 -0.8768 -0.3141 -0.1496
 9903TIP3   OH251123   2.724   3.938  13.218 -0.3085 -0.0355 -0.0883
 9903TIP3    H151124   2.812   3.972  13.233 -1.0641  2.4246 -0.8058
 9903TIP3    H251125   2.684   3.936  13.306 -0.9981  3.4310 -0.1685
 9904TIP3   OH251126   2.389   6.628   2.255  0.1038  0.0793  0.3021
 9904TIP3    H151127   2.461   6.581   2.213  0.1383 -0.6566  1.1720
 9904TIP3    H251128   2.429   6.710   2.285  0.8843 -0.8191  1.8109
 9905TIP3   OH251129   6.228   6.009  14.596 -0.3689 -0.5404 -0.3953
 9905TIP3    H151130   6.141   6.003  14.557 -0.2983  2.1379 -1.1650
 9905TIP3    H251131   6.287   5.979  14.526 -0.3464  2.9995 -2.1138
 9906TIP3   OH251132   0.792   2.106   0.849 -0.3556  0.6499  0.6115
 9906TIP3    H151133   0.887   2.107   0.837 -0.2451 -1.5847  0.8990
 9906TIP3    H251134   0.759   2.154   0.773  0.9614  0.0647 -0.3861
 9907TIP3   OH251135   2.931   4.362   6.485  0.3257 -0.3769 -0.4031
 9907TIP3    H151136   2.996   4.432   6.495 -0.4534  0.1412  1.4711
 9907TIP3    H251137   2.945   4.329   6.396  1.1342  1.7270 -1.1290
 9908TIP3   OH251138   5.970   5.037   3.619  0.7403  0.0873 -0.0838
 9908TIP3    H151139   6.066   5.035   3.626  0.7791  0.0200 -0.5648
 9908TIP3    H251140   5.941   4.963   3.672  0.9787 -0.1329 -0.2541
 9909TIP3   OH251141   3.444   1.961   5.008 -0.1454 -0.7027 -0.1629
 9909TIP3    H151142   3.407   2.030   5.062 -1.4930 -1.2845 -0.2943
 9909TIP3    H251143   3.534   1.988   4.992 -0.4911  0.7509  0.2241
 9910TIP3   OH251144   5.867   4.957  16.628  0.0522 -0.0652  0.2355
 9910TIP3    H151145   5.826   4.885  16.675  3.0412 -2.0066  0.1864
 9910TIP3    H251146   5.866   5.030  16.690  0.9179 -1.5625  2.1360
 9911TIP3   OH251147   3.701   4.814   2.572 -0.8736 -0.9067  0.0308
 9911TIP3    H151148   3.713   4.900   2.614 -2.5446 -0.8142  0.3952
 9911TIP3    H251149   3.775   4.762   2.604  0.0367  0.3014  0.0044
 9912TIP3   OH251150   0.415   0.285   0.971 -0.3698  0.5093 -0.0856
 9912TIP3    H151151   0.426   0.250   1.059  1.8751 -0.2202 -0.5962
 9912TIP3    H251152   0.327   0.258   0.945 -1.4364  1.5376  2.2235
 9913TIP3   OH251153   3.915   4.427   4.474 -0.8130 -0.1342  0.2045
 9913TIP3    H151154   3.968   4.348   4.468  1.6803  1.4122  0.5238
 9913TIP3    H251155   3.963   4.485   4.533 -2.9590  1.3522  0.6484
 9914TIP3   OH251156   6.030   4.704   3.441 -0.0303  0.5209 -0.6115
 9914TIP3    H151157   6.059   4.699   3.532  1.3236 -0.4727 -1.0673
 9914TIP3    H251158   6.111   4.715   3.391 -0.7499  0.9807 -1.7018
 9915TIP3   OH251159   1.935   6.183  14.329 -0.4798  0.0098  0.3792
 9915TIP3    H151160   1.917   6.234  14.250  1.0513  1.1528  0.7340
 9915TIP3    H251161   2.022   6.212  14.358  0.1305 -2.2572  1.0277
 9916TIP3   OH251162   5.816   6.438  16.463 -0.5403  0.0556  0.2183
 9916TIP3    H151163   5.753   6.368  16.448 -0.2960 -0.4121  1.3077
 9916TIP3    H251164   5.809   6.494  16.385 -1.3426 -0.7068 -0.2688
 9917TIP3   OH251165   0.067   2.537  13.790 -0.5515 -0.6426 -0.1378
 9917TIP3    H151166   0.025   2.486  13.859 -1.1050 -1.4554 -1.0527
 9917TIP3    H251167   0.160   2.511  13.793 -0.6086 -0.8086  0.1814
 9918TIP3   OH251168   3.057   6.737  13.881  0.1521  0.1015  0.2083
 9918TIP3    H151169   3.050   6.700  13.969  2.0117  0.8691  0.7233
 9918TIP3    H251170   2.998   6.684  13.828  2.1108 -3.1678  1.0352
 9919TIP3   OH251171   4.227   1.849   0.885  0.7209  0.4397 -0.1708
 9919TIP3    H151172   4.147   1.893   0.915 -0.5415 -0.5357 -1.9829
 9919TIP3    H251173   4.283   1.847   0.963  0.1014  3.5180  0.4987
 9920TIP3   OH251174   6.296   6.805  13.494  0.0901 -0.3369 -0.5594
 9920TIP3    H151175   6.200   6.806  13.498  0.1061  0.0746 -0.3013
 9920TIP3    H251176   6.324   6.769  13.578  0.1389 -1.8303 -1.1657
 9921TIP3   OH251177   4.439   5.249   5.403  0.1358 -0.0315  0.8390
 9921TIP3    H151178   4.348   5.277   5.414 -0.7968 -1.6684 -1.6903
 9921TIP3    H251179   4.484   5.327   5.370 -0.5813  0.5250  1.1524
 9922TIP3   OH251180   1.408   3.158   4.124  0.3865  0.1152  0.2708
 9922TIP3    H151181   1.391   3.064   4.134 -0.2467  0.1352 -0.5248
 9922TIP3    H251182   1.385   3.177   4.033  1.7464  0.7938  0.0374
 9923TIP3   OH251183   2.450   0.258   2.165  0.4467  0.0604  0.1145
 9923TIP3    H151184   2.389   0.246   2.092  0.6901  0.1378 -0.1027
 9923TIP3    H251185   2.440   0.350   2.190 -0.7491 -0.3278  1.1805
 9924TIP3   OH251186   0.329   2.082   0.411 -0.2564 -0.3495 -0.0654
 9924TIP3    H151187   0.399   2.066   0.474  0.5745  0.3842 -0.7590
 9924TIP3    H251188   0.323   2.001   0.361 -0.6135 -0.7768  0.6621
 9925TIP3   OH251189   6.456   1.733  12.428  0.1717 -0.1024 -0.4585
 9925TIP3    H151190   6.463   1.757  12.336 -0.0635  0.2908 -0.3777
 9925TIP3    H251191   6.465   1.817  12.475 -0.1977 -0.2348 -0.1480
 9926TIP3   OH251192   6.329   4.355   3.576 -0.1967 -0.2061  0.4271
 9926TIP3    H151193   6.416   4.338   3.612 -0.5092 -0.2481  1.1844
 9926TIP3    H251194   6.287   4.413   3.640 -1.1550 -1.1499  0.6999
 9927TIP3   OH251195   5.524   0.001   2.325  0.4180  0.1213  0.0943
 9927TIP3    H151196   5.573   0.024   2.246  0.3309  1.2633  0.3509
 9927TIP3    H251197   5.587   0.015   2.396  0.7624 -1.7057  0.1931
 9928TIP3   OH251198   6.192   5.055   5.492 -0.1361 -0.3473  0.2117
 9928TIP3    H151199   6.201   5.112   5.569 -0.6647 -0.4942  0.3844
 9928TIP3    H251200   6.278   5.059   5.449  0.2764 -0.5363  0.9962
 9929TIP3   OH251201   1.611   6.627  12.207  0.3298  0.1137 -0.4179
 9929TIP3    H151202   1.518   6.628  12.227  0.2948 -0.3409 -0.5495
 9929TIP3    H251203   1.620   6.682  12.129  0.3872  1.4043  0.4773
 9930TIP3   OH251204   1.772   0.019   5.303  0.4738 -0.1408  0.2225
 9930TIP3    H151205   1.709   0.091   5.300  1.8286  1.1034 -2.6472
 9930TIP3    H251206   1.726  -0.056   5.265 -0.6338 -0.6289  2.3549
 9931TIP3   OH251207   2.536   3.938  12.346 -0.1664  0.5241  0.5702
 9931TIP3    H151208   2.542   3.851  12.306  0.4343  0.8909 -0.1488
 9931TIP3    H251209   2.507   3.995  12.276 -1.3751  0.7721  1.2514
 9932TIP3   OH251210   2.900   0.212   3.122  0.0514 -0.0133  0.0750
 9932TIP3    H151211   2.939   0.217   3.209 -0.8310 -0.2895  0.5039
 9932TIP3    H251212   2.968   0.245   3.063  1.4903 -1.8053  0.6097
 9933TIP3   OH251213   2.729   5.358  11.527  0.0145  0.6529  0.0633
 9933TIP3    H151214   2.668   5.426  11.557 -0.9590 -0.5791  1.0023
 9933TIP3    H251215   2.674   5.280  11.515  1.1728 -0.1077 -0.5019
 9934TIP3   OH251216   0.601   4.958   0.924 -0.8240  0.2350  0.3339
 9934TIP3    H151217   0.561   4.984   0.841 -0.4791  0.9366  0.3864
 9934TIP3    H251218   0.663   4.889   0.900 -0.8960  0.2701  0.0413
 9935TIP3   OH251219   0.803   2.872  13.271 -0.2526  0.6941  0.1739
 9935TIP3    H151220   0.850   2.898  13.191 -0.7470  1.2432  0.0580
 9935TIP3    H251221   0.859   2.805  13.310 -1.3890 -1.7733 -2.1428
 9936TIP3   OH251222   4.888   4.263  11.933  0.1478  0.7121  0.1204
 9936TIP3    H151223   4.800   4.225  11.944  0.6605 -0.5929 -0.1051
 9936TIP3    H251224   4.935   4.198  11.881  0.8899  1.9672 -0.8212
 9937TIP3   OH251225   0.894   2.336  15.483  0.2928  0.4561 -0.3776
 9937TIP3    H151226   0.858   2.284  15.412  0.8436  2.2050 -2.0289
 9937TIP3    H251227   0.824   2.397  15.506 -0.2244 -0.7205  1.2837
 9938TIP3   OH251228   1.888   5.752   1.795  0.2031  0.7135 -0.1606
 9938TIP3    H151229   1.843   5.668   1.798  1.4684  0.0462  2.1484
 9938TIP3    H251230   1.823   5.812   1.758 -1.3026 -0.9373 -0.3159
 9939TIP3   OH251231   3.862   1.371   4.943  0.6979 -0.1557  0.5222
 9939TIP3    H151232   3.825   1.289   4.912 -0.1421  0.3213  0.2170
 9939TIP3    H251233   3.892   1.416   4.864 -0.1443  0.4417  0.5277
 9940TIP3   OH251234   3.844   0.833   2.470 -0.0708  0.0691 -0.2551
 9940TIP3    H151235   3.752   0.859   2.467 -0.2543 -0.5915 -2.8646
 9940TIP3    H251236   3.885   0.883   2.399  0.4415 -3.2782 -2.5754
 9941TIP3   OH251237   1.888   1.990  13.508 -0.7091 -0.6896  0.0673
 9941TIP3    H151238   1.848   1.953  13.587  1.4144  1.5073  2.3917
 9941TIP3    H251239   1.950   2.055  13.542 -0.0054  0.7058 -3.4876
 9942TIP3   OH251240   4.182   1.639   0.747  0.2398  0.6383 -0.4649
 9942TIP3    H151241   4.192   1.730   0.775  1.2345  0.4724 -0.2158
 9942TIP3    H251242   4.099   1.611   0.786  0.7628  0.9320  0.9238
 9943TIP3   OH251243   0.804   2.876   0.697 -0.0573  0.3515 -0.1519
 9943TIP3    H151244   0.728   2.898   0.643  0.3354  0.7541 -0.5424
 9943TIP3    H251245   0.769   2.818   0.764 -0.9255  1.3379  0.2904
 9944TIP3   OH251246   2.506   4.305  12.258  0.1778  0.1809 -0.1674
 9944TIP3    H151247   2.591   4.262  12.247  0.7061  1.3498 -0.8397
 9944TIP3    H251248   2.448   4.257  12.199  0.7653  0.3943 -0.9428
 9945TIP3   OH251249   5.755   3.684   1.720  0.6252  0.6123  0.2229
 9945TIP3    H151250   5.682   3.736   1.685  0.2337 -0.1880 -0.1783
 9945TIP3    H251251   5.769   3.616   1.654 -0.3862 -1.1891  1.7771
 9946TIP3   OH251252   5.566   0.341   0.850  0.5462 -0.4425 -0.0466
 9946TIP3    H151253   5.630   0.412   0.844  1.6204 -1.4375 -0.7374
 9946TIP3    H251254   5.613   0.270   0.894 -0.2668 -0.9868 -0.0421
 9947TIP3   OH251255   4.817   5.100  11.056 -0.4672 -0.0285 -0.0143
 9947TIP3    H151256   4.895   5.071  11.009 -0.3974 -0.2787  0.2571
 9947TIP3    H251257   4.752   5.113  10.987  0.1037  1.1839 -0.3623
 9948TIP3   OH251258   6.647   6.612  12.995 -0.0526  0.2656 -0.1692
 9948TIP3    H151259   6.673   6.645  13.081  0.3372 -1.5393  0.4384
 9948TIP3    H251260   6.658   6.687  12.936  2.1647  0.8291  0.8774
 9949TIP3   OH251261   1.303   3.092   2.772  0.0283  0.3332 -0.1246
 9949TIP3    H151262   1.268   3.176   2.800  0.0015  0.3954 -0.3427
 9949TIP3    H251263   1.246   3.064   2.701 -0.8735 -0.5886  0.9320
 9950TIP3   OH251264   6.672   0.395   2.682  0.0426  0.1755  0.4242
 9950TIP3    H151265   6.614   0.471   2.686 -1.6326 -1.0455  0.4016
 9950TIP3    H251266   6.692   0.375   2.774 -0.6201 -0.1199  0.5183
 9951TIP3   OH251267   6.527   4.652  16.216  0.6953 -0.3260  0.0728
 9951TIP3    H151268   6.547   4.599  16.138 -2.1067 -1.3575 -0.0402
 9951TIP3    H251269   6.473   4.724  16.182  2.5252  1.4138  0.5958
 9952TIP3   OH251270   6.365   4.232   0.583  0.3706  0.5326  0.1438
 9952TIP3    H151271   6.418   4.311   0.589 -1.2685  1.6047  1.9988
 9952TIP3    H251272   6.400   4.174   0.651 -0.0545  0.7648  0.5708
 9953TIP3   OH251273   0.948   4.557  11.297 -0.3455  0.4239  0.5081
 9953TIP3    H151274   0.878   4.596  11.244 -1.9203 -1.2094  1.2640
 9953TIP3    H251275   0.904   4.488  11.348  1.3562  0.9302  2.8397
 9954TIP3   OH251276   0.823   4.904   3.879  0.2733  0.0619 -0.6147
 9954TIP3    H151277   0.829   4.966   3.952 -0.0820 -1.8925  1.1825
 9954TIP3    H251278   0.914   4.888   3.854  0.3742  1.2334 -1.0985
 9955TIP3   OH251279   0.274   2.662  15.917  0.3453 -0.1572 -0.7079
 9955TIP3    H151280   0.261   2.742  15.967  1.0479  0.3518 -1.3025
 9955TIP3    H251281   0.321   2.691  15.838  1.3250 -1.2577 -0.5596
 9956TIP3   OH251282   4.827   2.578  14.775 -0.6894 -0.2743 -0.1139
 9956TIP3    H151283   4.850   2.513  14.709 -2.3728 -0.8438 -0.2066
 9956TIP3    H251284   4.836   2.531  14.858 -2.0311 -0.7255 -0.1875
 9957TIP3   OH251285   3.400   6.822  14.419  0.4593 -0.2095  0.2660
 9957TIP3    H151286   3.347   6.804  14.342  1.2819  0.4498 -0.4738
 9957TIP3    H251287   3.370   6.758  14.484 -0.9682 -0.0869 -0.2408
 9958TIP3   OH251288   0.285   5.616  13.023  0.5560  0.0548  0.2142
 9958TIP3    H151289   0.301   5.682  12.956 -1.0283  0.2796  0.0167
 9958TIP3    H251290   0.350   5.548  13.005  0.3473  0.2348 -1.4023
 9959TIP3   OH251291   0.293   2.631   0.287  0.1444  0.4696 -0.0290
 9959TIP3    H151292   0.264   2.668   0.370 -2.7747  1.3984 -1.3256
 9959TIP3    H251293   0.302   2.537   0.305  1.3558  0.8870  1.7377
 9960TIP3   OH251294   0.925   0.070   5.643  0.1476 -0.2160 -0.3422
 9960TIP3    H151295   1.010   0.075   5.600 -0.7119  0.2009 -2.0873
 9960TIP3    H251296   0.864   0.112   5.581 -1.2296  0.0340  1.1140
 9961TIP3   OH251297   1.888   1.607   4.410  0.3071  0.3392  0.0039
 9961TIP3    H151298   1.978   1.612   4.441  0.2833  0.8920 -0.0047
 9961TIP3    H251299   1.856   1.523   4.444  1.1941 -0.4525 -1.0463
 9962TIP3   OH251300   2.130   3.979   3.384  0.0921  0.1365  0.0578
 9962TIP3    H151301   2.168   4.016   3.305  0.5323  1.6638  0.9489
 9962TIP3    H251302   2.035   3.991   3.373  0.1907  0.8942  0.0281
 9963TIP3   OH251303   6.104   3.838   2.068  0.2600  0.1458 -0.1280
 9963TIP3    H151304   6.142   3.762   2.111  0.3230 -0.1699 -0.7351
 9963TIP3    H251305   6.103   3.815   1.975 -0.5350  0.5285 -0.2211
 9964TIP3   OH251306   3.907   2.111   4.518 -0.2273  0.0410  0.2213
 9964TIP3    H151307   3.870   2.030   4.554  2.0515 -0.2774  2.1091
 9964TIP3    H251308   3.831   2.160   4.486 -1.9762 -1.6374  1.5447
 9965TIP3   OH251309   3.642   2.310  16.116  0.3473  0.2413  0.6995
 9965TIP3    H151310   3.592   2.341  16.039  2.6552 -0.4957 -1.2165
 9965TIP3    H251311   3.671   2.222  16.092  0.6720 -0.2408  2.7032
 9966TIP3   OH251312   6.611   1.174  14.135  0.5055  0.2271 -0.4679
 9966TIP3    H151313   6.612   1.086  14.097 -1.4729 -0.4081  0.8205
 9966TIP3    H251314   6.523   1.206  14.118  0.0030  0.4801  2.2664
 9967TIP3   OH251315   4.415   0.729  16.496  0.4412  0.0941 -0.0832
 9967TIP3    H151316   4.401   0.803  16.555  0.3133  0.6640 -0.8207
 9967TIP3    H251317   4.448   0.659  16.553  1.8361  1.1239  0.4203
 9968TIP3   OH251318   3.409   1.848   0.445  0.7240 -0.1990  0.0493
 9968TIP3    H151319   3.373   1.873   0.531  0.3401 -1.5330  0.2964
 9968TIP3    H251320   3.502   1.834   0.461  0.7124 -0.1344  0.1764
 9969TIP3   OH251321   3.653   6.070  12.156 -0.8321  0.4208  0.2562
 9969TIP3    H151322   3.698   6.153  12.173  0.2357 -0.0499 -0.2002
 9969TIP3    H251323   3.561   6.088  12.174 -0.4664  1.4160  1.1965
 9970TIP3   OH251324   0.414   6.481  12.749 -0.1427 -0.1540 -0.0401
 9970TIP3    H151325   0.425   6.547  12.679 -1.2848  0.6177  0.4873
 9970TIP3    H251326   0.334   6.434  12.726 -0.1685 -0.3334  0.4063
 9971TIP3   OH251327   6.697   4.953  12.672  0.2245  0.8781 -0.0787
 9971TIP3    H151328   6.787   4.966  12.702 -0.7881  2.9712  2.4554
 9971TIP3    H251329   6.643   4.971  12.749 -2.3962 -0.6660 -1.3982
 9972TIP3   OH251330   2.253   5.792  12.145 -0.8853  0.6707 -0.5002
 9972TIP3    H151331   2.192   5.787  12.072  0.1377  0.8643 -1.4013
 9972TIP3    H251332   2.253   5.884  12.171 -0.8352  0.7056 -0.6252
 9973TIP3   OH251333   0.577   3.462   2.931 -0.5232 -0.0133  0.1110
 9973TIP3    H151334   0.529   3.532   2.886  0.4080 -0.0452 -0.9835
 9973TIP3    H251335   0.669   3.480   2.911 -0.1425 -0.5399  1.3085
 9974TIP3   OH251336   3.334   3.455  14.837  0.6175 -0.0904  0.0487
 9974TIP3    H151337   3.267   3.468  14.770  1.2880 -1.8465 -1.0474
 9974TIP3    H251338   3.416   3.475  14.792  1.3534 -3.9315 -0.6609
 9975TIP3   OH251339   3.003   0.005   3.556 -0.4753  0.0402  0.0563
 9975TIP3    H151340   2.980   0.053   3.635 -0.1994  0.7996 -0.3059
 9975TIP3    H251341   2.929   0.018   3.497 -0.0855  0.6700 -0.3151
 9976TIP3   OH251342   3.899   6.540  13.870  0.2048 -0.0780 -0.5640
 9976TIP3    H151343   3.913   6.618  13.924  0.6619 -0.5188 -0.0336
 9976TIP3    H251344   3.860   6.574  13.789  0.0328  0.6533 -0.1839
 9977TIP3   OH251345   4.077   6.061   2.679  0.0856  0.6188 -0.1714
 9977TIP3    H151346   4.056   6.046   2.587 -0.6717 -0.2352  0.1280
 9977TIP3    H251347   3.997   6.038   2.726 -0.5898  3.8698  0.5135
 9978TIP3   OH251348   1.726   5.362   4.521 -0.5591  0.5016 -0.3166
 9978TIP3    H151349   1.799   5.312   4.559 -0.2763  0.6556 -0.6482
 9978TIP3    H251350   1.745   5.364   4.427  0.3487  2.6592 -0.1631
 9979TIP3   OH251351   4.616   5.301   1.867 -0.0824 -0.8255 -0.2209
 9979TIP3    H151352   4.681   5.283   1.934 -0.2936 -0.3009  0.1339
 9979TIP3    H251353   4.561   5.370   1.905 -1.3446 -1.8203 -0.1745
 9980TIP3   OH251354   3.129   5.838   5.616  0.8767  0.3976  0.0780
 9980TIP3    H151355   3.178   5.765   5.577 -1.0858 -0.7812 -0.3030
 9980TIP3    H251356   3.067   5.796   5.676 -1.0925  1.6081 -0.9969
 9981TIP3   OH251357   1.970   3.120  15.102 -0.3308  0.1072 -0.4672
 9981TIP3    H151358   2.050   3.170  15.085 -0.1963  0.4528  0.9707
 9981TIP3    H251359   1.900   3.185  15.097 -0.2426  0.3112  0.5993
 9982TIP3   OH251360   3.602   3.475  12.524 -0.0569  0.1476 -0.0477
 9982TIP3    H151361   3.611   3.501  12.432  0.0679 -0.6315 -0.2618
 9982TIP3    H251362   3.537   3.405  12.523  1.1682 -1.0321  0.2239
 9983TIP3   OH251363   1.664   3.985   0.887  0.4346  0.0979  0.2629
 9983TIP3    H151364   1.670   4.060   0.947  0.8783 -0.0544  0.4115
 9983TIP3    H251365   1.581   3.943   0.911 -0.4663  1.2614 -0.6809
 9984TIP3   OH251366   4.824   6.750   1.576 -0.3828 -0.7279 -0.3686
 9984TIP3    H151367   4.821   6.739   1.481 -1.6615 -0.8686 -0.3316
 9984TIP3    H251368   4.870   6.833   1.589 -1.2681 -0.0856 -1.1763
 9985TIP3   OH251369   3.467   1.252   0.143 -0.6763  0.2739 -0.2779
 9985TIP3    H151370   3.507   1.339   0.140  1.5016 -0.6326 -0.0057
 9985TIP3    H251371   3.519   1.200   0.082 -1.1245 -1.1244  0.4736
 9986TIP3   OH251372   0.255   3.599  16.438  0.2122  0.3502 -0.0292
 9986TIP3    H151373   0.211   3.681  16.461  0.0542  0.2454  0.0537
 9986TIP3    H251374   0.338   3.601  16.486  0.9053  1.1531 -1.2385
 9987TIP3   OH251375   0.301   5.054  14.039  0.2506  0.4346 -0.2302
 9987TIP3    H151376   0.362   5.011  13.980 -0.0397 -0.5344  0.1574
 9987TIP3    H251377   0.273   5.132  13.991 -0.6300 -0.7517 -1.7727
 9988TIP3   OH251378   2.643   1.968   1.261  0.3013 -0.2328 -0.7348
 9988TIP3    H151379   2.575   1.962   1.328 -0.0874  2.1426 -0.8270
 9988TIP3    H251380   2.649   1.880   1.226 -1.2156 -0.9952  0.7437
 9989TIP3   OH251381   2.072   4.908   0.195 -0.5569 -0.1737 -0.5715
 9989TIP3    H151382   2.087   4.891   0.288 -0.6811 -1.8737 -0.8306
 9989TIP3    H251383   2.117   4.991   0.178  2.0176 -1.2762  0.3825
 9990TIP3   OH251384   5.385   1.339  12.401  0.3209  0.6498  0.2998
 9990TIP3    H151385   5.411   1.429  12.385 -0.1303  0.5219 -1.3631
 9990TIP3    H251386   5.348   1.309  12.317  1.9808 -1.6007  0.2527
 9991TIP3   OH251387   4.674   3.067   2.491 -0.0540 -0.0468  0.5069
 9991TIP3    H151388   4.610   3.103   2.553 -0.9865  1.6390 -1.3487
 9991TIP3    H251389   4.757   3.107   2.517 -0.6094  1.4152  0.1115
 9992TIP3   OH251390   0.522   2.253   0.704 -0.1214  0.5633  0.2211
 9992TIP3    H151391   0.604   2.293   0.733  0.0983  0.7191 -0.5858
 9992TIP3    H251392   0.547   2.201   0.628 -0.7422  0.4826  0.0712
 9993TIP3   OH251393   4.382   3.352  10.793 -0.1194 -0.0449  0.1128
 9993TIP3    H151394   4.366   3.358  10.699  0.3456 -0.6960 -0.0130
 9993TIP3    H251395   4.376   3.258  10.813  1.9473 -0.1682  0.3323
 9994TIP3   OH251396   4.084   2.890   1.905 -0.3713 -0.2377  0.2473
 9994TIP3    H151397   4.050   2.945   1.976 -0.3279 -1.3425  1.1648
 9994TIP3    H251398   4.171   2.925   1.887 -0.3703  0.0415  0.7708
 9995TIP3   OH251399   5.962   1.836  16.177  0.0278  0.3221 -0.4135
 9995TIP3    H151400   6.032   1.772  16.178 -0.0577  0.2277  0.3436
 9995TIP3    H251401   5.911   1.816  16.099  1.1759  0.7671 -1.3034
 9996TIP3   OH251402   0.567   5.439   5.411 -0.5907  0.1600  0.2386
 9996TIP3    H151403   0.653   5.410   5.383 -0.0589 -0.8012  2.6437
 9996TIP3    H251404   0.583   5.521   5.458 -0.8780 -0.3098  1.1882
 9997TIP3   OH251405   2.116   6.409   1.098 -0.2677  0.3455  0.3389
 9997TIP3    H151406   2.045   6.398   1.035  1.3531 -1.4287 -1.3037
 9997TIP3    H251407   2.096   6.492   1.142 -2.7035  0.4764 -0.8449
 9998TIP3   OH251408   3.676   5.510  12.606 -0.5217  0.0648 -0.3945
 9998TIP3    H151409   3.743   5.449  12.637 -0.7796  0.0222  0.0773
 9998TIP3    H251410   3.649   5.559  12.684 -0.8445  0.2718 -0.6325
 9999TIP3   OH251411   5.194   4.059  15.658  0.0358  0.4664  0.1351
 9999TIP3    H151412   5.141   4.135  15.630  0.3979  1.8739  2.9099
 9999TIP3    H251413   5.173   4.049  15.751  1.3444 -1.7710  0.2467
10000TIP3   OH251414   5.526   0.942  15.431 -0.1253  0.2784 -0.1059
10000TIP3    H151415   5.452   0.889  15.401 -0.4042  0.3506  0.4336
10000TIP3    H251416   5.590   0.938  15.360 -0.7819  0.4804 -0.7098
10001TIP3   OH251417   4.427   2.567  16.380 -0.1787 -0.0918 -0.1110
10001TIP3    H151418   4.481   2.565  16.301  1.4330  0.7926  0.9053
10001TIP3    H251419   4.375   2.487  16.376  3.5221 -2.7574  0.3447
10002TIP3   OH251420   2.772   0.010   2.031  0.0325  0.6750  0.8010
10002TIP3    H151421   2.848   0.065   2.051 -0.0626  1.8230 -1.5942
10002TIP3    H251422   2.808  -0.077   2.018  1.4142  1.5877 -2.4794
10003TIP3   OH251423   0.723   5.152   5.748  0.2223  0.2789 -0.0294
10003TIP3    H151424   0.720   5.226   5.809  1.1162  0.0507  0.2982
10003TIP3    H251425   0.662   5.177   5.678 -0.1714  0.9182  0.5302
10004TIP3   OH251426   6.518   1.254  12.088  0.4611 -0.3266  0.1942
10004TIP3    H151427   6.504   1.331  12.033 -0.4234  1.1173  2.3227
10004TIP3    H251428   6.544   1.185  12.027 -0.8177  1.0782 -2.0595
10005TIP3   OH251429   1.210   5.794  17.066 -0.2476  0.3674  0.3387
10005TIP3    H151430   1.213   5.701  17.044  1.9814  0.4432  0.1080
10005TIP3    H251431   1.174   5.797  17.155  0.9688 -0.8435  0.8956
10006TIP3   OH251432   1.610   0.224   4.200  0.5788  0.0508  0.2683
10006TIP3    H151433   1.618   0.189   4.289  0.0614 -0.4806  0.1107
10006TIP3    H251434   1.629   0.317   4.209 -0.5120  0.2049  1.1144
10007TIP3   OH251435   5.855   3.632   1.211  0.0082 -0.2473 -0.2130
10007TIP3    H151436   5.945   3.640   1.243 -0.0520  0.4061 -0.2036
10007TIP3    H251437   5.825   3.548   1.247  0.1444  0.1852  0.9650
10008TIP3   OH251438   6.006   1.852  15.105  0.0628 -0.2632  0.6465
10008TIP3    H151439   5.963   1.789  15.047 -0.2012  1.7430 -1.5117
10008TIP3    H251440   6.096   1.856  15.073  0.1313  0.2788  0.8916
10009TIP3   OH251441   2.088   4.401  16.469  0.2519  0.1885 -0.2803
10009TIP3    H151442   2.160   4.458  16.497 -1.7283  2.2442  0.9195
10009TIP3    H251443   2.100   4.320  16.519  1.8067  0.4077 -0.2511
10010TIP3   OH251444   4.473   4.101   0.725  0.0263  0.7862  0.8526
10010TIP3    H151445   4.546   4.097   0.786 -0.0171  0.5973  0.8932
10010TIP3    H251446   4.511   4.135   0.644  1.0693 -2.9171 -0.4208
10011TIP3   OH251447   5.263   2.999  15.058 -0.4361  0.1108 -0.2521
10011TIP3    H151448   5.270   2.993  14.962 -3.7287  0.1594 -0.6043
10011TIP3    H251449   5.264   2.908  15.087  1.0403  0.1096 -0.2381
10012TIP3   OH251450   1.402   2.999   0.256  0.1984 -0.2418 -0.0581
10012TIP3    H151451   1.480   3.023   0.307 -0.7123 -0.4846  1.5195
10012TIP3    H251452   1.384   2.908   0.280 -1.2955  0.1965  0.6205
10013TIP3   OH251453   3.502   5.440  16.708 -0.3974 -0.4931  0.8235
10013TIP3    H151454   3.570   5.385  16.668  0.5273  0.8416  0.5119
10013TIP3    H251455   3.523   5.442  16.801 -0.8452 -1.1972  0.9568
10014TIP3   OH251456   2.069   1.491   2.129 -0.3580 -0.4189 -0.2310
10014TIP3    H151457   2.034   1.405   2.105 -4.4048  0.8182  0.4302
10014TIP3    H251458   2.091   1.483   2.222 -3.2906 -0.1886  0.5827
10015TIP3   OH251459   2.400   6.720  14.297  0.0263 -0.0883  0.9590
10015TIP3    H151460   2.493   6.716  14.318 -0.2725 -0.8703  2.2658
10015TIP3    H251461   2.356   6.722  14.383 -1.1141  2.2571  0.4152
10016TIP3   OH251462   0.878   3.776  11.499 -0.1304  0.1174 -0.1913
10016TIP3    H151463   0.922   3.730  11.428  0.4519 -1.0564  0.8782
10016TIP3    H251464   0.905   3.729  11.578 -1.0390  1.1553  0.7767
10017TIP3   OH251465   1.823   2.150  16.444 -0.1444 -0.4864  0.1150
10017TIP3    H151466   1.864   2.067  16.417 -1.1544 -0.6987 -0.8588
10017TIP3    H251467   1.732   2.126  16.463 -0.1017  0.1626  1.1997
10018TIP3   OH251468   6.043   3.597   3.017  0.0684 -0.5691  0.1615
10018TIP3    H151469   6.128   3.570   3.052  0.5661 -0.1404 -0.6871
10018TIP3    H251470   6.021   3.675   3.069  1.0485  0.3725 -0.7770
10019TIP3   OH251471   6.089   2.639  16.834  0.6882  0.2744  0.0054
10019TIP3    H151472   6.152   2.575  16.868 -1.3531 -1.6039  0.5054
10019TIP3    H251473   6.006   2.613  16.874 -0.3498  2.9300 -0.2644
10020TIP3   OH251474   4.167   4.477  11.362 -0.3477 -0.0311  0.6958
10020TIP3    H151475   4.196   4.417  11.293  1.9973 -0.1357  1.6616
10020TIP3    H251476   4.124   4.548  11.315  0.2979 -0.5797 -0.7980
10021TIP3   OH251477   1.381   4.160   2.350  0.1882 -0.2511 -0.3982
10021TIP3    H151478   1.395   4.210   2.270 -1.1947 -0.2479 -0.6630
10021TIP3    H251479   1.308   4.102   2.329 -0.4315  0.0108  0.9817
10022TIP3   OH251480   0.535   4.692  11.510 -0.3359 -0.2422 -0.4610
10022TIP3    H151481   0.514   4.599  11.520 -2.4284  0.1566 -0.7041
10022TIP3    H251482   0.455   4.731  11.475 -0.5004  2.1216  2.1818
10023TIP3   OH251483   4.919   6.139  14.508 -0.3429  0.4465  0.2650
10023TIP3    H151484   4.862   6.085  14.453 -0.4197  0.8322 -0.0433
10023TIP3    H251485   4.982   6.078  14.546  2.0171  0.5259 -3.0456
10024TIP3   OH251486   2.176   2.960  13.330  0.5080 -0.2288  0.2468
10024TIP3    H151487   2.128   3.021  13.273 -1.2143 -0.9038  0.8935
10024TIP3    H251488   2.262   3.000  13.341  0.8713  0.0010 -2.6860
10025TIP3   OH251489   2.096   4.227  12.116  0.2177 -1.0450 -0.3567
10025TIP3    H151490   2.155   4.152  12.111  0.8612 -0.5851  0.1739
10025TIP3    H251491   2.047   4.213  12.197  1.5271 -0.0601  0.6504
10026TIP3   OH251492   2.422   2.144  12.054  0.2563 -0.2965 -0.2874
10026TIP3    H151493   2.408   2.170  12.145 -1.5378 -1.3342 -0.2205
10026TIP3    H251494   2.356   2.193  12.005  0.1007 -0.9842 -0.7843
10027TIP3   OH251495   0.488   2.927   1.350  0.3429 -0.2515  0.3271
10027TIP3    H151496   0.575   2.916   1.388  1.0098 -1.8109 -1.5100
10027TIP3    H251497   0.501   2.915   1.256 -1.8225 -0.2941 -0.0186
10028TIP3   OH251498   6.202   2.696  12.183  0.3726  0.6568  0.5282
10028TIP3    H151499   6.164   2.682  12.096  1.5501 -2.1576  0.3486
10028TIP3    H251500   6.126   2.703  12.241 -0.4720 -0.7024 -0.3496
10029TIP3   OH251501   0.558   2.247   5.584 -0.0876  0.0660  0.2134
10029TIP3    H151502   0.464   2.265   5.579 -0.3299 -1.1196  0.2209
10029TIP3    H251503   0.571   2.209   5.671  0.8319  2.3976  1.2099
10030TIP3   OH251504   5.069   4.559   0.331  0.0115 -0.1730  0.3967
10030TIP3    H151505   5.150   4.585   0.287  0.3345 -1.5412  0.1163
10030TIP3    H251506   5.087   4.572   0.424  0.7667 -0.9421  0.3765
10031TIP3   OH251507   0.443   6.010  10.536 -0.3163  0.7073 -0.6144
10031TIP3    H151508   0.348   6.011  10.533 -0.3445 -0.8211 -1.5619
10031TIP3    H251509   0.471   6.060  10.459 -0.3448  1.1108 -0.3656
10032TIP3   OH251510   4.724   0.553  14.775 -0.0376  0.1302 -0.3362
10032TIP3    H151511   4.640   0.568  14.817 -0.3430 -0.6907 -0.6305
10032TIP3    H251512   4.760   0.476  14.820  0.6825  0.6196 -0.0390
10033TIP3   OH251513   1.282   0.286   5.028  0.1626  0.0086 -0.9529
10033TIP3    H151514   1.374   0.273   5.051  0.1018  1.3328  0.1157
10033TIP3    H251515   1.262   0.374   5.057 -1.8123 -0.7026 -0.0044
10034TIP3   OH251516   5.518   1.028  14.771 -0.2946  0.1126  0.3731
10034TIP3    H151517   5.492   0.937  14.756  3.4013 -1.1082  0.5089
10034TIP3    H251518   5.562   1.055  14.691  0.4520  1.0374  1.0634
10035TIP3   OH251519   2.882   3.592  11.942  0.3181  0.0265 -0.3322
10035TIP3    H151520   2.953   3.630  11.889 -1.5920  0.7962 -2.4933
10035TIP3    H251521   2.812   3.575  11.879 -1.4503 -0.6671  1.7240
10036TIP3   OH251522   6.637   1.829  14.688  0.0632  0.3326  0.6290
10036TIP3    H151523   6.545   1.810  14.708  0.0865  1.0464  1.4509
10036TIP3    H251524   6.687   1.767  14.741  0.1020 -3.0762 -2.9081
10037TIP3   OH251525   4.048   1.698   3.546 -0.2063 -0.4970  0.6898
10037TIP3    H151526   4.104   1.691   3.469  0.8064 -0.7045  1.4362
10037TIP3    H251527   3.975   1.753   3.518  0.1632 -0.5504 -0.4046
10038TIP3   OH251528   3.667   6.513  15.257 -0.2984  0.1925  0.5812
10038TIP3    H151529   3.699   6.432  15.296 -1.4428 -0.5795 -0.0379
10038TIP3    H251530   3.573   6.498  15.244 -0.1579  0.8041 -1.4698
10039TIP3   OH251531   1.106   3.319  14.796 -0.2694  0.0703  0.0255
10039TIP3    H151532   1.131   3.278  14.879  0.3846  1.4281  0.5462
10039TIP3    H251533   1.169   3.391  14.786 -1.4960  1.0727 -0.7025
10040TIP3   OH251534   6.090   6.485  13.562 -0.1114 -0.0861  0.4994
10040TIP3    H151535   6.022   6.427  13.596 -1.2336  1.2192  0.6148
10040TIP3    H251536   6.172   6.437  13.573 -1.0225 -1.7607  0.2432
10041TIP3   OH251537   4.828   3.381  14.931 -0.0641 -0.0788 -0.6058
10041TIP3    H151538   4.843   3.425  14.847  0.5502  1.0400  0.0563
10041TIP3    H251539   4.739   3.406  14.956  0.1868  0.5971 -0.3617
10042TIP3   OH251540   4.476   3.354  11.403 -0.4808 -0.8925  0.3925
10042TIP3    H151541   4.558   3.389  11.437 -0.9946  0.6999  0.0781
10042TIP3    H251542   4.409   3.413  11.436 -1.3902 -1.5488 -0.2280
10043TIP3   OH251543   3.807   5.500  11.466  0.2162  0.0280  0.0962
10043TIP3    H151544   3.762   5.415  11.464 -0.4283  0.2632  2.0383
10043TIP3    H251545   3.737   5.564  11.479  0.6172  0.9713 -2.0834
10044TIP3   OH251546   1.363   6.300   3.368 -0.3346  0.3199 -0.0812
10044TIP3    H151547   1.334   6.386   3.337 -1.3409 -0.0516 -0.1977
10044TIP3    H251548   1.370   6.247   3.289  0.1602  0.2538  0.0045
10045TIP3   OH251549   2.866   1.056  12.190  0.0656  0.1770 -0.0203
10045TIP3    H151550   2.825   1.074  12.105 -1.0211  1.7282  0.7725
10045TIP3    H251551   2.823   0.976  12.220 -2.0144  1.4094  0.4888
10046TIP3   OH251552   1.886   5.676   1.454 -0.4345  0.2140 -0.0878
10046TIP3    H151553   1.834   5.753   1.475  0.9056  0.9946  0.4691
10046TIP3    H251554   1.848   5.606   1.507  0.9790  1.4655  2.7752
10047TIP3   OH251555   4.699   0.746   2.500 -0.7438 -0.4288  0.3250
10047TIP3    H151556   4.793   0.762   2.513 -1.1187  2.1060  0.5407
10047TIP3    H251557   4.679   0.792   2.418 -2.2469  1.4853  1.6580
10048TIP3   OH251558   1.276   0.417   1.095 -0.1013 -0.4373  0.1936
10048TIP3    H151559   1.254   0.449   1.182  1.1298  1.8514 -0.2586
10048TIP3    H251560   1.371   0.422   1.091 -0.1572 -0.1425 -1.4013
10049TIP3   OH251561   0.899   2.819   5.770  0.5100 -0.1699 -0.0368
10049TIP3    H151562   0.924   2.736   5.811 -1.1699 -0.4615  0.4750
10049TIP3    H251563   0.808   2.805   5.742  1.1116  0.4925 -2.6348
10050TIP3   OH251564   6.080   1.873   6.703 -0.6132  0.0114 -0.4314
10050TIP3    H151565   6.166   1.914   6.692 -0.8052  0.1922 -1.3336
10050TIP3    H251566   6.085   1.792   6.652 -0.8170 -0.2327 -0.0726
10051TIP3   OH251567   1.541   1.117  13.917 -0.0699 -0.0494 -0.0762
10051TIP3    H151568   1.504   1.079  13.997 -2.5756  1.2967 -0.5091
10051TIP3    H251569   1.623   1.157  13.945 -1.1158  0.8060  1.9571
10052TIP3   OH251570   0.879   4.206  13.224 -0.1294 -0.1560  0.0482
10052TIP3    H151571   0.944   4.197  13.294  0.9653  0.4060 -0.8625
10052TIP3    H251572   0.839   4.120  13.217 -0.1125 -0.2771  1.2157
10053TIP3   OH251573   2.630   2.757   2.510  0.1220  0.3714 -0.4633
10053TIP3    H151574   2.688   2.780   2.438  0.5142  1.7376  0.2638
10053TIP3    H251575   2.608   2.840   2.552  0.5991 -0.4340  1.5198
10054TIP3   OH251576   5.046   4.706  15.177  0.1274  0.1162  0.0327
10054TIP3    H151577   5.116   4.714  15.112  0.3976 -0.5474  0.2367
10054TIP3    H251578   5.024   4.797  15.199  1.2582  0.3386  0.3229
10055TIP3   OH251579   5.509   4.796   6.372 -0.1761 -0.1823 -0.5455
10055TIP3    H151580   5.551   4.844   6.301  3.0681 -0.4963  0.9924
10055TIP3    H251581   5.571   4.727   6.395 -2.3810 -1.8711  0.7903
10056TIP3   OH251582   4.118   2.565   0.296 -0.1092 -0.3555  0.2958
10056TIP3    H151583   4.136   2.471   0.303 -1.5339 -0.6323  0.5885
10056TIP3    H251584   4.204   2.606   0.286  0.5307 -1.6861  0.2070
10057TIP3   OH251585   1.924   2.117   0.993 -0.3470  0.1307 -0.2254
10057TIP3    H151586   1.843   2.157   1.024  0.5588  2.4030 -0.6357
10057TIP3    H251587   1.925   2.134   0.899  0.6777  0.2548 -0.2027
10058TIP3   OH251588   0.039   2.479  11.125 -0.2476 -0.3618 -0.8912
10058TIP3    H151589  -0.000   2.392  11.122 -0.6357 -0.3632  1.8158
10058TIP3    H251590   0.122   2.466  11.171 -0.8337  0.8309  0.5681
10059TIP3   OH251591   3.370   3.364  12.495 -0.0649  0.1516  0.0133
10059TIP3    H151592   3.341   3.311  12.569 -0.4904  0.9550  0.4401
10059TIP3    H251593   3.301   3.430  12.485  0.7171  0.9708 -0.1393
10060TIP3   OH251594   5.525   4.161   4.117  0.3919  0.1284  0.3517
10060TIP3    H151595   5.514   4.146   4.023 -0.9343  2.9283 -0.0441
10060TIP3    H251596   5.612   4.198   4.125  0.3159  0.3494  0.1647
10061TIP3   OH251597   2.933   5.421   0.204 -0.3936  0.1090  0.1325
10061TIP3    H151598   2.860   5.482   0.194 -0.0279  0.5784  0.2781
10061TIP3    H251599   2.915   5.350   0.142 -0.9018  0.2855  0.0764
10062TIP3   OH251600   4.129   6.530  16.423 -0.4359 -0.5126  0.6577
10062TIP3    H151601   4.188   6.590  16.468  1.2026  0.3882 -2.3876
10062TIP3    H251602   4.043   6.547  16.461  0.4508  1.7299  1.8383
10063TIP3   OH251603   1.398   3.368   0.927  0.5447  0.1603  0.2528
10063TIP3    H151604   1.404   3.280   0.889  0.8067  0.0804  0.4700
10063TIP3    H251605   1.333   3.359   0.997  1.0066 -0.0095  0.6663
10064TIP3   OH251606   3.943   3.611   6.315  0.3660 -0.1465  0.7180
10064TIP3    H151607   3.985   3.697   6.309  0.3515 -0.1466  0.6078
10064TIP3    H251608   4.000   3.553   6.264  1.6274 -0.6865  2.6572
10065TIP3   OH251609   3.211   5.501   3.751 -0.5182 -0.6100  0.0104
10065TIP3    H151610   3.297   5.502   3.708  0.7657  0.1669  2.4276
10065TIP3    H251611   3.179   5.591   3.741  0.2649 -0.1355  1.4823
10066TIP3   OH251612   2.478   0.962   4.527 -0.5017  0.7951 -0.3996
10066TIP3    H151613   2.390   0.961   4.564 -0.8983  0.5513 -1.3214
10066TIP3    H251614   2.506   1.053   4.534 -0.2938  0.6425  1.0890
10067TIP3   OH251615   0.806   0.755   4.038 -0.7565  0.3145 -0.0323
10067TIP3    H151616   0.810   0.659   4.045 -1.0935  0.3140  0.1707
10067TIP3    H251617   0.763   0.783   4.118 -3.2869  0.4373 -1.3307
10068TIP3   OH251618   1.176   6.359  12.019 -0.3436  0.0896  0.0314
10068TIP3    H151619   1.262   6.348  12.059 -0.2331 -2.2043 -0.7082
10068TIP3    H251620   1.190   6.338  11.926 -1.0484  3.0568 -0.8747
10069TIP3   OH251621   4.158   1.597   4.817  0.0455  0.3608  0.1561
10069TIP3    H151622   4.165   1.613   4.723  1.4339 -3.2752 -0.5272
10069TIP3    H251623   4.086   1.654   4.846  0.1286  2.2189 -2.8781
10070TIP3   OH251624   2.435   4.629  12.821 -0.0359  0.1716  0.0129
10070TIP3    H151625   2.526   4.629  12.849  0.1883 -1.0934 -0.6516
10070TIP3    H251626   2.407   4.538  12.830 -1.0603  0.4391 -0.3390
10071TIP3   OH251627   3.955   3.212  16.282  0.9692  0.0096  0.1522
10071TIP3    H151628   4.012   3.141  16.312  0.4838  0.3888  2.1667
10071TIP3    H251629   3.867   3.176  16.290  0.8243 -0.1578 -1.7629
10072TIP3   OH251630   4.786   1.761   0.843 -0.0874 -0.0822  0.1011
10072TIP3    H151631   4.770   1.743   0.750 -2.2400  0.0870  0.3817
10072TIP3    H251632   4.839   1.687   0.873  1.3892  0.3020 -1.4258
10073TIP3   OH251633   5.669   2.642   2.238 -0.0302 -0.8466  0.2487
10073TIP3    H151634   5.624   2.584   2.299  1.3014 -2.0145  0.1478
10073TIP3    H251635   5.653   2.730   2.273 -1.1655 -1.3282  0.9951
10074TIP3   OH251636   3.193   6.448  12.461  0.1963  0.2963  0.2059
10074TIP3    H151637   3.157   6.398  12.534 -2.4259 -0.5053 -1.4959
10074TIP3    H251638   3.204   6.537  12.495 -0.7187 -0.1117  1.6495
10075TIP3   OH251639   4.613   1.334  15.803 -0.1165  0.2111  0.2032
10075TIP3    H151640   4.559   1.280  15.746 -1.6989 -0.8539  2.5343
10075TIP3    H251641   4.679   1.274  15.837  1.3593  1.0396 -1.0917
10076TIP3   OH251642   6.037   3.493  10.949  0.0923 -0.2487 -0.0299
10076TIP3    H151643   6.116   3.495  10.897  0.3719 -0.2933  0.3877
10076TIP3    H251644   5.972   3.451  10.893  0.7210 -1.4289  0.1108
10077TIP3   OH251645   3.126   2.387  17.011 -0.7365 -0.3406 -0.6332
10077TIP3    H151646   3.048   2.337  16.990 -1.0797 -0.0103 -0.1560
10077TIP3    H251647   3.163   2.344  17.088 -0.8574 -0.0587 -0.4153
10078TIP3   OH251648   0.508   5.674  10.237  0.4771  0.2231  0.2138
10078TIP3    H151649   0.549   5.731  10.302 -0.7275  0.6155  0.6687
10078TIP3    H251650   0.423   5.652  10.275  0.1569 -0.3620 -0.7951
10079TIP3   OH251651   4.921   1.258   4.831  0.5255  0.1908  0.0519
10079TIP3    H151652   4.870   1.319   4.883 -0.9112  0.3560 -1.4797
10079TIP3    H251653   4.916   1.175   4.878 -0.6836  0.3515  0.2184
10080TIP3   OH251654   5.565   3.586  16.002 -0.2453  0.1139 -0.4791
10080TIP3    H151655   5.652   3.623  15.988 -0.6609  0.7480 -1.4720
10080TIP3    H251656   5.554   3.525  15.929 -1.0523  0.8251 -0.9571
10081TIP3   OH251657   5.647   2.975  14.889  0.2644 -0.2541  0.5423
10081TIP3    H151658   5.668   3.048  14.947 -2.1454  0.0472  1.1292
10081TIP3    H251659   5.653   2.898  14.945 -3.3210  0.1498  1.6869
10082TIP3   OH251660   3.340   5.116   3.387 -0.2474 -0.0106  0.4107
10082TIP3    H151661   3.389   5.066   3.453 -0.9533  0.3226  1.1981
10082TIP3    H251662   3.286   5.176   3.438  0.2687  1.2759 -0.5137
10083TIP3   OH251663   3.072   5.864   1.484  0.3595 -0.1622 -0.2426
10083TIP3    H151664   3.160   5.901   1.472  0.0412  0.7838  0.2711
10083TIP3    H251665   3.068   5.792   1.421  1.1832  0.3567 -0.9166
10084TIP3   OH251666   5.943   6.419  12.433 -0.0137  0.4535  0.5487
10084TIP3    H151667   5.864   6.470  12.450 -2.5396 -2.2234 -1.9295
10084TIP3    H251668   5.980   6.457  12.353  0.2682  0.6536  0.7704
10085TIP3   OH251669   2.564   2.371  14.021  0.3950 -0.3977  0.3749
10085TIP3    H151670   2.634   2.313  13.991  1.7430  1.3126  0.0590
10085TIP3    H251671   2.496   2.362  13.954  1.6036  0.1882 -0.9902
10086TIP3   OH251672   0.614   4.637  13.680  0.6202  0.1556  0.0317
10086TIP3    H151673   0.698   4.647  13.726  1.3900  0.4175 -1.3651
10086TIP3    H251674   0.576   4.558  13.717  0.7960  0.8103  1.7114
10087TIP3   OH251675   3.334   0.692  12.224  0.0437  0.2300 -0.6204
10087TIP3    H151676   3.249   0.718  12.189  0.7673  2.2575 -0.9549
10087TIP3    H251677   3.314   0.656  12.311 -1.4344 -2.1718 -1.8412
10088TIP3   OH251678   1.662   3.325   1.983 -0.3736 -0.1692 -0.4887
10088TIP3    H151679   1.616   3.254   1.939 -0.7393  0.3817 -1.0002
10088TIP3    H251680   1.598   3.362   2.044 -0.7017  0.7441 -1.3620
10089TIP3   OH251681   2.051   4.582   1.941  0.2487  0.1209 -0.0584
10089TIP3    H151682   2.074   4.651   2.003 -0.7757  2.0661 -1.7489
10089TIP3    H251683   1.959   4.597   1.920  0.3060 -1.0583 -1.3396
10090TIP3   OH251684   4.495   5.938   3.665  0.1917 -0.6171 -0.3687
10090TIP3    H151685   4.405   5.917   3.640 -0.0256 -1.5332  1.1228
10090TIP3    H251686   4.512   6.023   3.622 -1.7930  0.1684  0.2977
10091TIP3   OH251687   0.609   4.749   3.968 -0.1780 -0.0435  0.1809
10091TIP3    H151688   0.622   4.665   3.923 -2.1491 -1.0781  1.3786
10091TIP3    H251689   0.683   4.803   3.940 -0.4957 -1.0711 -3.0860
10092TIP3   OH251690   0.368   6.453   1.545 -0.5302 -0.2064  0.0342
10092TIP3    H151691   0.462   6.459   1.565 -0.8253 -2.7691  2.9805
10092TIP3    H251692   0.330   6.528   1.589 -0.1045 -0.6116  1.1302
10093TIP3   OH251693   3.728   1.889  13.502 -0.7330 -0.1803  0.1740
10093TIP3    H151694   3.710   1.969  13.551  1.2715  0.0614  0.6003
10093TIP3    H251695   3.763   1.829  13.568  0.6241 -0.3529 -0.6672
10094TIP3   OH251696   5.020   4.299   5.863 -0.3155 -0.1896  0.4605
10094TIP3    H151697   4.985   4.263   5.944 -1.2649 -1.4116 -0.4467
10094TIP3    H251698   5.114   4.308   5.879 -0.2057 -2.1318  1.1028
10095TIP3   OH251699   1.798   2.795  11.684 -0.2417  0.3513 -0.7907
10095TIP3    H151700   1.716   2.766  11.643 -0.9268  1.1360 -0.0381
10095TIP3    H251701   1.831   2.717  11.728 -0.3360 -0.0949 -1.4951
10096TIP3   OH251702   3.466   2.898   6.420 -0.8061  0.1171  0.1781
10096TIP3    H151703   3.561   2.891   6.416 -0.7582 -0.4461  1.6075
10096TIP3    H251704   3.445   2.979   6.373  0.1132 -1.1062 -2.5629
10097TIP3   OH251705   4.023   1.194   0.674  0.6719  0.1555 -0.4447
10097TIP3    H151706   4.057   1.113   0.634 -1.1289 -1.4166  1.0510
10097TIP3    H251707   3.937   1.205   0.634 -1.5437 -1.9016  3.2618
10098TIP3   OH251708   6.779   6.164  12.679 -0.2871  0.6597 -0.2870
10098TIP3    H151709   6.736   6.113  12.610  0.1263 -0.0490 -0.0198
10098TIP3    H251710   6.708   6.215  12.718 -0.7216  0.2178 -0.4883
10099TIP3   OH251711   2.712   5.088   4.612  0.7785  0.0940  0.2186
10099TIP3    H151712   2.705   5.019   4.546 -1.1367  1.7520 -1.4288
10099TIP3    H251713   2.623   5.102   4.642  1.1659  1.6333  0.7450
10100TIP3   OH251714   2.843   4.232   0.661  0.7468  0.1310  0.5996
10100TIP3    H151715   2.773   4.216   0.724  1.5120  1.5473  1.8850
10100TIP3    H251716   2.868   4.145   0.631  0.5992 -0.6391  2.5336
10101TIP3   OH251717   4.259   5.011  16.119 -0.0699 -0.0311  0.1633
10101TIP3    H151718   4.290   4.921  16.111  0.6857  0.1925  0.4655
10101TIP3    H251719   4.183   5.005  16.177 -0.7464 -0.6126 -0.7427
10102TIP3   OH251720   4.370   1.027   2.135 -0.7456 -0.3235  0.1499
10102TIP3    H151721   4.453   0.989   2.107 -0.0304  0.3153  1.3210
10102TIP3    H251722   4.369   1.114   2.095 -1.1651 -0.5696 -0.3891
10103TIP3   OH251723   5.163   3.173  15.916 -0.1766 -0.4142 -0.0676
10103TIP3    H151724   5.190   3.081  15.917 -2.2870 -1.0830 -0.3700
10103TIP3    H251725   5.097   3.178  15.847 -1.0596  1.0289  0.8333
10104TIP3   OH251726   3.690   4.223  12.400  0.0669 -0.1683 -0.6507
10104TIP3    H151727   3.745   4.302  12.397  1.5583 -1.1134  0.2120
10104TIP3    H251728   3.752   4.151  12.396 -1.1711 -1.3022 -0.1476
10105TIP3   OH251729   1.352   4.698  11.132  0.5598 -0.6549 -0.1017
10105TIP3    H151730   1.398   4.781  11.118 -0.4721 -0.2822 -1.5433
10105TIP3    H251731   1.389   4.638  11.067  0.1869 -0.8392 -0.1493
10106TIP3   OH251732   0.817   2.171   1.762 -0.3440  0.4000 -0.0887
10106TIP3    H151733   0.773   2.251   1.735 -0.1337  0.4594 -0.2571
10106TIP3    H251734   0.829   2.121   1.681 -2.4528 -0.8091  0.2709
10107TIP3   OH251735   2.193   3.406  13.743 -0.0555  0.4549  0.1506
10107TIP3    H151736   2.287   3.397  13.759 -0.1978 -2.7284 -0.2253
10107TIP3    H251737   2.186   3.422  13.649  0.0790  0.1246  0.0855
10108TIP3   OH251738   0.680   0.863   1.961 -0.2157 -0.8712  0.0184
10108TIP3    H151739   0.771   0.863   1.930  0.0189 -1.1264  0.6956
10108TIP3    H251740   0.635   0.927   1.906 -0.0466 -2.0617 -1.5825
10109TIP3   OH251741   3.029   0.348  16.632 -0.2628 -0.2418  0.7890
10109TIP3    H151742   2.993   0.270  16.675 -1.6574 -0.4027 -0.5837
10109TIP3    H251743   3.101   0.315  16.579  0.6494 -0.2228  1.9648
10110TIP3   OH251744   0.913   0.538   2.187  0.0866  0.7244 -0.2121
10110TIP3    H151745   0.872   0.559   2.271 -0.1487 -1.4127  0.2634
10110TIP3    H251746   0.990   0.595   2.183  1.9688 -1.2377  3.0084
10111TIP3   OH251747   5.988   3.762  13.888  0.1416 -0.3656 -0.0977
10111TIP3    H151748   6.024   3.842  13.850 -1.1130  0.0879 -0.3815
10111TIP3    H251749   6.029   3.691  13.838  1.2516  0.0874  0.1471
10112TIP3   OH251750   3.836   4.947   3.531  0.5106 -0.0291 -0.2948
10112TIP3    H151751   3.806   4.975   3.444  0.2710  0.6587  0.0059
10112TIP3    H251752   3.930   4.963   3.530  0.4803  0.1451 -0.3638
10113TIP3   OH251753   3.594   6.765  16.200  0.0964  0.1767  0.3043
10113TIP3    H151754   3.577   6.859  16.188 -0.5290  0.0858  0.4304
10113TIP3    H251755   3.653   6.760  16.275  0.5321  0.4962 -0.0162
10114TIP3   OH251756   2.381   2.595   3.533  0.1309  0.1366  0.0838
10114TIP3    H151757   2.408   2.680   3.500 -0.3305  0.6585  1.0311
10114TIP3    H251758   2.447   2.534   3.498 -0.4966  0.6049 -1.9950
10115TIP3   OH251759   2.661   0.853   3.212  0.2436 -0.0487 -0.3079
10115TIP3    H151760   2.664   0.915   3.285  1.7497 -0.3588 -0.0636
10115TIP3    H251761   2.740   0.800   3.223 -0.2163 -0.9997 -1.3940
10116TIP3   OH251762   4.844   3.465   4.117  0.0718  0.3116 -0.6524
10116TIP3    H151763   4.865   3.529   4.049 -0.5870  1.4499  0.1942
10116TIP3    H251764   4.787   3.512   4.178  0.6126 -0.6940  0.6736
10117TIP3   OH251765   3.017   3.219  14.106 -0.1411  0.6982 -0.7628
10117TIP3    H151766   2.988   3.145  14.052 -1.6705 -1.0638  2.2266
10117TIP3    H251767   2.937   3.253  14.145  0.9271  1.6205  0.6956
10118TIP3   OH251768   6.798   3.559   5.054  0.1927  0.0856  0.3197
10118TIP3    H151769   6.711   3.549   5.015  0.2045 -0.8712  0.5115
10118TIP3    H251770   6.809   3.653   5.063 -0.4224  0.2715 -0.6161
10119TIP3   OH251771   4.482   2.009  14.178 -0.1435 -0.2962 -0.2330
10119TIP3    H151772   4.493   2.012  14.273  2.1859 -1.6448 -0.3977
10119TIP3    H251773   4.389   1.989  14.165 -0.0628 -2.2671  1.8192
10120TIP3   OH251774   3.636   3.559  14.386 -0.1625 -0.3065  0.5007
10120TIP3    H151775   3.558   3.507  14.364 -1.3407  1.4979  0.1713
10120TIP3    H251776   3.643   3.623  14.315  0.4782  0.7943  1.5114
10121TIP3   OH251777   5.019   2.629  17.076 -0.1530 -0.3177  0.5172
10121TIP3    H151778   4.976   2.604  16.995  0.3335 -0.5752  0.3307
10121TIP3    H251779   5.112   2.614  17.059  0.0048  0.1589  0.9313
10122TIP3   OH251780   4.882   1.717  14.136  0.0712 -0.0063 -0.5220
10122TIP3    H151781   4.859   1.697  14.227  1.0388  0.1589 -0.2325
10122TIP3    H251782   4.805   1.762  14.102 -0.8569 -1.2995 -0.2097
10123TIP3   OH251783   3.684   2.563  13.388 -0.0369 -0.6953  0.0497
10123TIP3    H151784   3.693   2.538  13.479  0.5126  1.1887  0.5622
10123TIP3    H251785   3.756   2.624  13.372 -1.1309  0.3575 -1.1276
10124TIP3   OH251786   5.741   3.355   3.228  0.0714  0.0845  0.2162
10124TIP3    H151787   5.828   3.376   3.260  1.0220  0.7806 -2.5542
10124TIP3    H251788   5.732   3.261   3.243  0.6588  0.2665  1.8859
10125TIP3   OH251789   0.756   2.476   4.175  0.2441 -0.3759  0.7312
10125TIP3    H151790   0.738   2.464   4.082 -0.0443  1.4510  0.5062
10125TIP3    H251791   0.841   2.519   4.178  1.4394 -2.6556  1.4728
10126TIP3   OH251792   5.330   5.537  16.115 -0.2829  0.3536  0.0803
10126TIP3    H151793   5.235   5.535  16.112 -0.2664  0.3154 -1.1244
10126TIP3    H251794   5.352   5.629  16.129 -0.4904  0.2680  1.0484
10127TIP3   OH251795   4.323   6.764  11.619  0.8616  0.3297 -0.4071
10127TIP3    H151796   4.354   6.696  11.559  2.2436  0.3333  0.2566
10127TIP3    H251797   4.328   6.724  11.706 -1.3320  0.2521 -0.2707
10128TIP3   OH251798   4.603   5.142  11.881  0.3185 -0.3604 -0.1115
10128TIP3    H151799   4.552   5.080  11.933  2.2727 -0.1534  2.2191
10128TIP3    H251800   4.560   5.226  11.895 -0.6806 -0.6891 -1.0189
10129TIP3   OH251801   1.841   6.554   4.657  0.4429 -0.6310 -0.2391
10129TIP3    H151802   1.838   6.598   4.742 -2.2507 -0.1034 -0.5154
10129TIP3    H251803   1.876   6.466   4.677 -0.3199 -0.5985  1.4430
10130TIP3   OH251804   5.651   1.719  15.162  0.6853  0.2783 -0.6013
10130TIP3    H151805   5.628   1.785  15.096  1.3934  0.8194 -0.3281
10130TIP3    H251806   5.579   1.656  15.159  0.7445  0.2381 -1.9559
10131TIP3   OH251807   0.543   0.349   3.335  0.2296 -0.7043 -0.3485
10131TIP3    H151808   0.474   0.287   3.312  0.0601 -0.6151 -0.0828
10131TIP3    H251809   0.618   0.321   3.283 -0.2688 -0.2424 -1.3363
10132TIP3   OH251810   2.367   4.779   1.588 -0.0243 -0.1355 -0.1350
10132TIP3    H151811   2.294   4.840   1.598 -1.3000 -1.3700 -1.3957
10132TIP3    H251812   2.429   4.825   1.531 -0.0632  0.6945  0.4699
10133TIP3   OH251813   5.935   5.116  15.651  0.1475  0.3618  0.6282
10133TIP3    H151814   5.849   5.073  15.648 -0.2751  1.1939  0.5303
10133TIP3    H251815   5.926   5.192  15.593  0.3866  1.4384  1.9473
10134TIP3   OH251816   5.131   5.225  11.030  0.0580  0.1137  0.2846
10134TIP3    H151817   5.135   5.291  11.099  1.0097  1.7980 -1.2815
10134TIP3    H251818   5.222   5.198  11.018 -0.1410 -0.4161 -0.0626
10135TIP3   OH251819   3.794   6.310   3.193  0.0967 -0.3682 -0.4830
10135TIP3    H151820   3.779   6.404   3.189  1.8613 -0.0860 -0.9393
10135TIP3    H251821   3.763   6.277   3.109  0.3133 -0.0650 -0.6815
10136TIP3   OH251822   4.350   4.922   1.672 -0.0881  0.4228 -0.0273
10136TIP3    H151823   4.420   4.885   1.727 -0.3078  1.9811  1.3574
10136TIP3    H251824   4.284   4.852   1.669  0.1346  0.1161  1.3196
10137TIP3   OH251825   5.430   0.038  11.795  0.1472 -0.1860  0.2139
10137TIP3    H151826   5.480   0.113  11.825 -1.4619  1.0665 -0.0996
10137TIP3    H251827   5.469   0.015  11.711  0.1470  0.8394 -0.0784
10138TIP3   OH251828   0.740   3.240  10.553 -0.1985 -0.0571  0.4572
10138TIP3    H151829   0.684   3.317  10.552 -0.4161 -0.2193 -0.0226
10138TIP3    H251830   0.797   3.252  10.630  1.0319  1.4689 -0.6360
10139TIP3   OH251831   6.695   3.981   5.219 -0.1331  0.4015 -0.5332
10139TIP3    H151832   6.697   3.988   5.124 -0.1632  0.6441 -0.5166
10139TIP3    H251833   6.602   3.978   5.241 -0.1832  1.8600 -0.4108
10140TIP3   OH251834   0.645   2.218  13.736 -0.3428 -0.2722  0.6006
10140TIP3    H151835   0.635   2.289  13.799 -2.8422 -0.6524  0.7290
10140TIP3    H251836   0.718   2.245  13.680  1.1854  0.6140  2.8881
10141TIP3   OH251837   4.225   5.537  16.045  0.6348  0.1961 -0.5250
10141TIP3    H151838   4.179   5.455  16.059  0.3999  0.4604  0.2979
10141TIP3    H251839   4.302   5.533  16.102  1.9065 -0.4196 -2.1864
10142TIP3   OH251840   1.138   6.100  15.365  0.2003  0.4508 -0.3950
10142TIP3    H151841   1.114   6.185  15.401 -1.7498 -0.4719  0.6270
10142TIP3    H251842   1.092   6.095  15.281 -0.4169  0.0537 -0.0361
10143TIP3   OH251843   4.339   1.092  13.415  0.2635  0.4800 -0.4991
10143TIP3    H151844   4.288   1.044  13.481  4.0541 -1.2486  1.4883
10143TIP3    H251845   4.328   1.040  13.335  1.6092 -2.0267  0.8010
10144TIP3   OH251846   5.995   4.007  16.195  0.5538  0.1975  0.7901
10144TIP3    H151847   6.083   4.002  16.157 -0.4251 -0.0731 -1.5932
10144TIP3    H251848   5.973   4.100  16.191 -0.6317 -0.1035 -2.1593
10145TIP3   OH251849   1.597   0.496   3.414  0.3533  0.0743 -0.7368
10145TIP3    H151850   1.658   0.531   3.349  0.9782 -1.9496 -1.3232
10145TIP3    H251851   1.653   0.448   3.476 -0.4718 -0.1357 -0.1353
10146TIP3   OH251852   0.551   1.522  16.121 -0.4261 -0.5290 -0.1811
10146TIP3    H151853   0.530   1.608  16.158  1.6020  0.3649 -0.9734
10146TIP3    H251854   0.465   1.481  16.108 -1.4471  1.2468  0.4683
10147TIP3   OH251855   6.674   5.796   1.507 -0.6905 -0.3526 -0.5620
10147TIP3    H151856   6.660   5.891   1.498 -0.7118 -0.3539 -0.5439
10147TIP3    H251857   6.763   5.789   1.543 -1.6585 -0.2301  2.0492
10148TIP3   OH251858   6.069   0.150  15.322 -0.2440 -0.1091 -0.2910
10148TIP3    H151859   6.046   0.080  15.261 -1.3662  0.7418 -0.8970
10148TIP3    H251860   5.984   0.190  15.345  0.4440  1.8160 -0.9233
10149TIP3   OH251861   4.736   3.602   4.313 -0.3536 -0.4557  0.1207
10149TIP3    H151862   4.697   3.664   4.251 -0.1006  0.1362  0.5468
10149TIP3    H251863   4.718   3.639   4.399  0.9723 -0.2488  0.3411
10150TIP3   OH251864   5.983   3.909  16.682  0.1729  0.4960 -0.4999
10150TIP3    H151865   5.932   3.970  16.735  0.8567  2.3369 -1.8776
10150TIP3    H251866   5.944   3.913  16.595  0.4921 -0.7418 -0.7223
10151TIP3   OH251867   4.930   5.857  13.126 -0.1063 -0.4351 -0.1268
10151TIP3    H151868   5.003   5.882  13.184 -0.5870 -0.7984  0.6422
10151TIP3    H251869   4.919   5.934  13.069  0.1479  0.0682  0.4840
10152TIP3   OH251870   4.045   2.037   1.487 -0.0980 -0.9877  0.1522
10152TIP3    H151871   4.110   2.105   1.467 -0.8360  0.4049  2.2123
10152TIP3    H251872   4.098   1.962   1.513  0.7327 -0.2758  0.6044
10153TIP3   OH251873   0.525   3.369   0.232  0.4867  0.5661 -0.0625
10153TIP3    H151874   0.568   3.284   0.243 -1.4096 -0.5665 -0.8066
10153TIP3    H251875   0.477   3.383   0.313  0.9307  1.0415  0.1273
10154TIP3   OH251876   6.707   0.683   0.728  0.0634  0.3373 -0.5048
10154TIP3    H151877   6.799   0.692   0.706  0.1812 -1.7819 -1.0723
10154TIP3    H251878   6.671   0.771   0.720  1.5456  0.8149 -2.5209
10155TIP3   OH251879   1.103   3.365  16.315 -0.2544 -0.3388 -0.0632
10155TIP3    H151880   1.053   3.432  16.269  0.0803  0.5753  0.8850
10155TIP3    H251881   1.119   3.298  16.248 -0.7817  0.4051 -0.9656
10156TIP3   OH251882   1.569   3.357  15.450  0.0784 -0.5950  0.2714
10156TIP3    H151883   1.501   3.302  15.413  0.2899 -0.3428 -0.5076
10156TIP3    H251884   1.649   3.330  15.405 -0.1950  2.0652 -2.0603
10157TIP3   OH251885   0.528   3.676   3.518  0.1685 -0.1723 -0.2300
10157TIP3    H151886   0.509   3.741   3.585 -1.3614  1.0634 -1.7785
10157TIP3    H251887   0.606   3.631   3.550 -0.3850  0.4751  2.2644
10158TIP3   OH251888   5.188   1.049  12.863 -0.4008  0.0047 -0.2204
10158TIP3    H151889   5.238   1.056  12.944 -0.2665 -1.1467 -0.1792
10158TIP3    H251890   5.206   0.960  12.832 -0.5408  0.3905 -1.4553
10159TIP3   OH251891   6.114   2.365  12.035 -0.4439  0.1290  0.7676
10159TIP3    H151892   6.084   2.385  11.947 -0.8562 -0.5913  0.7350
10159TIP3    H251893   6.055   2.415  12.092 -1.2463 -0.6695  0.6750
10160TIP3   OH251894   0.372   1.903   2.419  0.0435  0.3735  0.0735
10160TIP3    H151895   0.434   1.886   2.349  0.2538  1.7663 -0.1144
10160TIP3    H251896   0.404   1.983   2.461 -0.8368  0.3320  0.8695
10161TIP3   OH251897   6.798   2.525   3.140  0.5537  0.0326  0.3700
10161TIP3    H151898   6.777   2.432   3.145  1.9415 -0.3281 -0.2916
10161TIP3    H251899   6.735   2.560   3.076  0.6899 -0.6489 -0.1487
10162TIP3   OH251900   6.158   2.563   0.156  0.5056  0.3015  0.5940
10162TIP3    H151901   6.151   2.488   0.098 -2.1297  1.2311 -0.4587
10162TIP3    H251902   6.147   2.527   0.244 -0.9124 -0.5774  0.0970
10163TIP3   OH251903   1.599   2.627  14.676  0.0869  0.0843  0.0359
10163TIP3    H151904   1.574   2.671  14.595  2.0449  2.0760  0.4292
10163TIP3    H251905   1.691   2.648  14.688 -0.2745  0.4227  3.1126
10164TIP3   OH251906   0.872   0.732   0.905  0.4813 -0.1050 -0.2521
10164TIP3    H151907   0.902   0.813   0.862 -0.0022 -0.4351 -1.2524
10164TIP3    H251908   0.798   0.759   0.959 -1.5602 -0.2596 -2.7801
10165TIP3   OH251909   5.776   4.981  15.217  0.4712  0.2530 -0.2136
10165TIP3    H151910   5.812   5.021  15.138  0.7245  0.6293  0.0918
10165TIP3    H251911   5.715   4.914  15.184  0.7711  0.2267 -0.7263
10166TIP3   OH251912   5.907   3.873  15.192  0.2350  0.4998  0.0706
10166TIP3    H151913   5.895   3.858  15.286 -3.2987 -1.8020 -0.5490
10166TIP3    H251914   5.932   3.788  15.157  0.4341  1.0642 -1.2069
10167TIP3   OH251915   0.664   0.315   2.357  0.0485 -0.0484  0.0749
10167TIP3    H151916   0.704   0.235   2.321 -2.5992 -0.7548 -1.6201
10167TIP3    H251917   0.630   0.289   2.442  1.3679 -0.0085  0.6209
10168TIP3   OH251918   6.042   2.535   6.341 -0.3834 -0.1713  0.4535
10168TIP3    H151919   5.967   2.591   6.363 -1.7631 -1.3381 -0.9953
10168TIP3    H251920   6.006   2.446   6.345  1.1460 -0.8034  0.4881
10169TIP3   OH251921   2.788   4.429  16.360 -0.0787  0.3154  0.4913
10169TIP3    H151922   2.816   4.416  16.270  0.8535 -1.2715  0.9690
10169TIP3    H251923   2.693   4.417  16.358  0.0449 -0.6570 -0.1345
10170TIP3   OH251924   2.549   6.208   3.018  0.3925 -0.0914  0.3604
10170TIP3    H151925   2.580   6.122   3.045 -0.6339 -0.2588  1.0856
10170TIP3    H251926   2.561   6.264   3.095  2.1896  0.7633 -0.4712
10171TIP3   OH251927   0.953   6.316  12.666 -0.0858 -0.0039 -0.4779
10171TIP3    H151928   1.030   6.299  12.720 -0.9198  0.0575  0.7695
10171TIP3    H251929   0.950   6.411  12.658 -1.6659  0.2700  2.0652
10172TIP3   OH251930   4.584   4.530   3.398 -0.0770 -0.2357 -0.0696
10172TIP3    H151931   4.545   4.526   3.485  0.9228  0.4129  0.4328
10172TIP3    H251932   4.676   4.506   3.412 -0.4068 -2.5199 -1.3310
10173TIP3   OH251933   6.586   5.919   0.048  0.6647  0.1185  0.2846
10173TIP3    H151934   6.648   5.901  -0.023  2.0231  0.2862  1.3691
10173TIP3    H251935   6.636   5.974   0.109 -0.8388  0.9382  0.8204
10174TIP3   OH251936   2.940   3.630  14.498 -0.3515 -0.3258  0.0537
10174TIP3    H151937   2.889   3.711  14.492  0.3147  0.0771 -0.3297
10174TIP3    H251938   2.889   3.573  14.555 -0.7256  0.4540  0.5118
10175TIP3   OH251939   6.131   5.349   3.147  0.1654 -0.4396 -0.0888
10175TIP3    H151940   6.111   5.405   3.072 -0.0148 -0.4862 -0.0735
10175TIP3    H251941   6.207   5.298   3.118 -0.1850 -0.7837 -0.4037
10176TIP3   OH251942   1.876   1.245  11.353 -0.1921 -0.5907  0.6504
10176TIP3    H151943   1.893   1.210  11.440 -2.4846 -2.0977  0.5746
10176TIP3    H251944   1.838   1.171  11.305 -0.0409  0.5243 -1.2761
10177TIP3   OH251945   5.510   6.238  16.747 -0.0914  0.3138 -0.1660
10177TIP3    H151946   5.529   6.148  16.721 -0.2949  0.0004  0.7324
10177TIP3    H251947   5.583   6.263  16.804 -0.6919  0.2415  0.6566
10178TIP3   OH251948   2.234   3.173  11.787  0.4855 -0.2697  0.5818
10178TIP3    H151949   2.177   3.201  11.716  0.6803 -2.6207 -0.6201
10178TIP3    H251950   2.239   3.248  11.845  0.0156  1.6264 -1.6844
10179TIP3   OH251951   0.806   5.933  12.221  0.0942 -0.4535  0.0770
10179TIP3    H151952   0.796   5.935  12.316 -0.2427 -0.1089  0.0366
10179TIP3    H251953   0.719   5.956  12.187  0.6363  1.1706 -0.2973
10180TIP3   OH251954   2.534   2.572   1.621 -0.3771  0.0501 -0.1172
10180TIP3    H151955   2.569   2.625   1.692 -0.5422  0.5201 -0.3844
10180TIP3    H251956   2.440   2.588   1.622 -0.0769  2.7198 -2.5364
10181TIP3   OH251957   2.327   1.088  12.396 -0.1428 -0.5678 -0.0406
10181TIP3    H151958   2.299   1.102  12.305 -1.7828 -0.0230  0.5172
10181TIP3    H251959   2.332   1.176  12.433  0.5671 -0.7861  0.4104
10182TIP3   OH251960   5.994   5.956   3.401 -0.4148 -0.1678  0.2541
10182TIP3    H151961   6.085   5.969   3.376  0.0143 -0.2651  1.6441
10182TIP3    H251962   5.967   6.041   3.437  0.0665 -0.8899  2.4893
10183TIP3   OH251963   6.213   0.448  12.812  0.1002  0.1274 -0.3257
10183TIP3    H151964   6.171   0.387  12.872  1.2784 -0.5119 -0.1044
10183TIP3    H251965   6.306   0.422  12.813  0.9115  2.7697  0.8232
10184TIP3   OH251966   5.524   4.135  14.263  0.4648  0.3608 -0.1586
10184TIP3    H151967   5.584   4.091  14.203  0.4101 -0.3856  0.3196
10184TIP3    H251968   5.478   4.063  14.308 -1.9325  0.8648 -1.6230
10185TIP3   OH251969   1.567   4.241   4.539  0.2236 -0.5335  0.1850
10185TIP3    H151970   1.534   4.325   4.507 -1.2886 -1.3072 -0.3807
10185TIP3    H251971   1.545   4.240   4.632 -0.0676 -0.4358  0.1187
10186TIP3   OH251972   2.278   0.873   3.093  0.4355 -0.0575 -0.2707
10186TIP3    H151973   2.187   0.858   3.120  0.4970  1.0495  0.6012
10186TIP3    H251974   2.277   0.862   2.998 -0.6522  0.1258 -0.2915
10187TIP3   OH251975   6.598   5.643   1.259 -0.3587 -0.5825  0.2009
10187TIP3    H151976   6.565   5.733   1.253  1.7429  0.1854 -0.7975
10187TIP3    H251977   6.594   5.623   1.352 -1.5425  0.2538  0.3607
10188TIP3   OH251978   2.065   3.214  11.545  0.5848  0.2244 -0.0823
10188TIP3    H151979   2.012   3.281  11.588  1.4050 -0.8708  2.8935
10188TIP3    H251980   2.001   3.150  11.513 -0.0443  0.3829  0.8064
10189TIP3   OH251981   6.032   4.552  15.959  0.0424 -0.3047 -0.2218
10189TIP3    H151982   5.956   4.508  15.998 -0.0589  0.6880  0.7582
10189TIP3    H251983   6.107   4.512  16.002  0.1027 -1.3332 -1.2389
10190TIP3   OH251984   5.991   6.180  11.764  0.1069 -0.1696 -0.1442
10190TIP3    H151985   5.959   6.183  11.854  0.5905 -0.5938  0.0484
10190TIP3    H251986   5.942   6.248  11.719 -0.1622  0.0291  0.4327
10191TIP3   OH251987   0.104   6.222  16.727  0.8314 -0.0945 -0.0679
10191TIP3    H151988   0.131   6.172  16.804 -1.7970 -1.6993 -0.0640
10191TIP3    H251989   0.089   6.156  16.660 -3.4908  0.4161  0.1423
10192TIP3   OH251990   3.512   3.384  14.151  0.4265  0.5512 -0.1455
10192TIP3    H151991   3.428   3.339  14.147  0.2264  0.8380  0.6778
10192TIP3    H251992   3.541   3.388  14.060 -1.2809  2.0240 -0.6965
10193TIP3   OH251993   2.653   6.461   5.882  0.0045 -0.8034 -0.1986
10193TIP3    H151994   2.641   6.537   5.825 -0.3203 -1.0777 -0.4962
10193TIP3    H251995   2.587   6.473   5.951 -1.5571 -1.9287 -1.4342
10194TIP3   OH251996   1.961   0.122  12.647 -0.1231 -0.0276 -0.1402
10194TIP3    H151997   1.963   0.214  12.619  0.2652  0.7712  2.2262
10194TIP3    H251998   1.945   0.127  12.742 -1.4525 -2.4842 -0.1664
10195TIP3   OH251999   6.674   3.809  16.557  0.6021  0.1050 -0.2052
10195TIP3    H152000   6.615   3.773  16.623  0.7857 -1.1865 -0.6988
10195TIP3    H252001   6.693   3.734  16.500  1.4998  0.8711 -0.9357
10196TIP3   OH252002   4.081   1.906  16.707  0.3030 -0.3671 -0.0072
10196TIP3    H152003   4.076   1.981  16.766  1.2140 -0.5386  0.3139
10196TIP3    H252004   4.048   1.938  16.624 -1.3667 -0.2194  0.6735
10197TIP3   OH252005   5.186   6.572   5.018  0.1676  0.0014  0.5579
10197TIP3    H152006   5.230   6.592   5.101 -0.7347 -0.3236  1.1290
10197TIP3    H252007   5.096   6.602   5.031 -0.4526 -1.6766  0.3664
10198TIP3   OH252008   3.828   5.728   5.572  0.2570 -0.5736 -0.1752
10198TIP3    H152009   3.898   5.781   5.533 -0.7863  0.2875 -0.9329
10198TIP3    H252010   3.766   5.715   5.500 -0.5062 -1.0781  0.5641
10199TIP3   OH252011   0.050   1.836  13.770  0.1343 -0.3151  0.0836
10199TIP3    H152012   0.065   1.747  13.802  0.6629 -0.1301  0.3571
10199TIP3    H252013   0.043   1.826  13.675  1.1436 -0.5348  0.0187
10200TIP3   OH252014   1.687   0.968  11.003  0.3108  0.1587 -0.0751
10200TIP3    H152015   1.698   0.874  10.995  0.4583  0.2305 -0.7388
10200TIP3    H252016   1.756   1.006  10.949 -0.4731  0.6328 -0.7796
10201TIP3   OH252017   0.171   3.205  16.007  0.0217  0.2739  0.4436
10201TIP3    H152018   0.225   3.230  16.083 -1.3564  0.1173  1.5284
10201TIP3    H252019   0.082   3.202  16.042 -0.3668 -2.2718 -0.5902
10202TIP3   OH252020   5.130   5.868   4.839  0.1974 -0.0944 -0.1170
10202TIP3    H152021   5.044   5.835   4.813  1.3368 -3.1936 -0.3330
10202TIP3    H252022   5.192   5.813   4.792  2.3433  1.7094  0.4410
10203TIP3   OH252023   1.129   0.238  14.727 -0.5072 -0.0024  0.1266
10203TIP3    H152024   1.083   0.213  14.647 -1.7890 -0.4109  0.9665
10203TIP3    H252025   1.088   0.186  14.796  0.5999  0.3145  1.0510
10204TIP3   OH252026   4.435   0.883  15.072  0.0053 -0.4231  0.3536
10204TIP3    H152027   4.425   0.886  14.977 -0.1119  3.3036  0.3289
10204TIP3    H252028   4.346   0.874  15.106 -0.1940  0.3863  0.0737
10205TIP3   OH252029   5.080   4.245   5.589 -0.7325 -0.2718 -0.0245
10205TIP3    H152030   5.049   4.233   5.679  0.9411 -1.8151  0.4116
10205TIP3    H252031   5.025   4.188   5.536 -1.9607  0.9141 -0.0704
10206TIP3   OH252032   1.324   1.342  15.628  0.4586 -0.4335 -0.2551
10206TIP3    H152033   1.247   1.298  15.593 -0.3926 -0.2096  1.2474
10206TIP3    H252034   1.385   1.271  15.649 -0.3305 -0.8226  0.8122
10207TIP3   OH252035   6.227   3.904  14.493  0.0582  0.0504  0.1566
10207TIP3    H152036   6.310   3.862  14.516  0.4462  0.3188 -0.7093
10207TIP3    H252037   6.184   3.920  14.577  0.7894 -0.2791  0.6023
10208TIP3   OH252038   0.159   4.044   1.555  0.0333  0.1012 -0.2169
10208TIP3    H152039   0.099   3.973   1.576 -1.0764  1.2421  0.5787
10208TIP3    H252040   0.103   4.121   1.545  1.2505  0.9646 -0.5763
10209TIP3   OH252041   3.306   1.861   1.127 -0.0197  0.4062 -0.7612
10209TIP3    H152042   3.367   1.935   1.119 -1.2689  1.8367  1.7237
10209TIP3    H252043   3.320   1.828   1.215 -1.8898 -0.0651 -0.6057
10210TIP3   OH252044   1.727   4.566   0.429 -0.2931 -0.5162  0.2729
10210TIP3    H152045   1.769   4.585   0.513  0.3529  1.3643 -0.4318
10210TIP3    H252046   1.649   4.621   0.428 -0.6947 -1.0854 -0.0515
10211TIP3   OH252047   6.544   1.090  11.855 -0.0174 -0.5026 -0.4657
10211TIP3    H152048   6.580   1.151  11.791  0.8432 -0.3924  0.1020
10211TIP3    H252049   6.457   1.067  11.821 -0.8944  1.9644 -0.0976
10212TIP3   OH252050   1.643   6.162  15.734 -0.0697  0.1450  0.0296
10212TIP3    H152051   1.721   6.134  15.782  1.5158  0.3861 -2.2145
10212TIP3    H252052   1.601   6.226  15.791 -0.0515 -1.7723  2.3508
10213TIP3   OH252053   4.826   3.094   3.292 -0.4571  0.3225  0.2241
10213TIP3    H152054   4.765   3.168   3.294 -0.6524  0.1704 -0.0816
10213TIP3    H252055   4.784   3.031   3.234 -0.9024 -0.5576  1.4551
10214TIP3   OH252056   4.955   5.301  16.158 -0.1524 -0.0776  0.1449
10214TIP3    H152057   4.924   5.358  16.229 -0.4922  1.2265 -1.0171
10214TIP3    H252058   4.922   5.341  16.078  0.3623 -1.4343 -0.7876
10215TIP3   OH252059   2.125   3.776  14.449  0.2670  0.7489 -0.3478
10215TIP3    H152060   2.040   3.812  14.427 -0.6517  0.4426  2.2861
10215TIP3    H252061   2.186   3.850  14.440 -0.7040  1.6225  0.0404
10216TIP3   OH252062   3.710   3.672   4.880  0.2705 -0.2026 -0.5723
10216TIP3    H152063   3.634   3.647   4.827  0.3268 -1.1569 -0.2147
10216TIP3    H252064   3.741   3.590   4.918  1.5923  0.1458 -0.8546
10217TIP3   OH252065   1.751   1.244  12.955  0.2629  0.3939  0.2488
10217TIP3    H152066   1.788   1.162  12.923 -1.6851 -0.3190 -0.3025
10217TIP3    H252067   1.737   1.229  13.048 -1.7573 -0.6285 -0.1664
10218TIP3   OH252068   2.384   6.107   5.059  0.2213 -0.1260  0.3658
10218TIP3    H152069   2.352   6.088   5.147  0.9541 -1.8608  0.3039
10218TIP3    H252070   2.305   6.106   5.004  0.1308 -3.0529  0.4131
10219TIP3   OH252071   5.238   2.129  15.806  0.1861 -0.1296 -0.0103
10219TIP3    H152072   5.333   2.134  15.812  0.2146 -0.1294 -0.4216
10219TIP3    H252073   5.213   2.069  15.876  0.3842  0.7578  0.8398
10220TIP3   OH252074   2.895   2.653  16.917 -0.1083  0.4543  0.1016
10220TIP3    H152075   2.853   2.644  17.003  0.2101  0.1980  0.2311
10220TIP3    H252076   2.891   2.565  16.880  0.1571  0.4687  0.0409
10221TIP3   OH252077   5.323   0.225   0.928  0.0790  0.0794 -0.4994
10221TIP3    H152078   5.286   0.257   1.010  3.1082  1.3977  0.4988
10221TIP3    H252079   5.418   0.238   0.937  0.7679 -1.8643 -3.3176
10222TIP3   OH252080   1.955   0.793   6.514  0.5600  0.2288  0.0224
10222TIP3    H152081   2.013   0.869   6.515  0.5393  0.2419  0.9397
10222TIP3    H252082   1.891   0.811   6.583 -0.0122 -0.1889 -0.3946
10223TIP3   OH252083   3.586   6.488  16.984  0.4429  0.1915 -0.0500
10223TIP3    H152084   3.504   6.441  16.971 -1.5389  3.8228 -2.6836
10223TIP3    H252085   3.568   6.549  17.055  0.2516  1.9325 -1.5125
10224TIP3   OH252086   1.376   3.450  10.853 -0.3005 -0.1443  0.6892
10224TIP3    H152087   1.287   3.484  10.838 -0.7237 -1.6387 -0.4783
10224TIP3    H252088   1.427   3.484  10.780 -0.1599 -0.1397  0.7905
10225TIP3   OH252089   5.099   4.368  14.613  0.0425 -0.1919  0.2788
10225TIP3    H152090   5.010   4.391  14.587  0.6714  1.4958 -0.4795
10225TIP3    H252091   5.141   4.339  14.532  0.3403 -0.5190  0.5464
10226TIP3   OH252092   1.965   5.034   2.014  0.0811 -0.7887  0.4774
10226TIP3    H152093   1.928   5.002   2.096  0.1534 -0.5683  0.5993
10226TIP3    H252094   2.022   4.964   1.984  0.6259 -0.5774  0.9970
10227TIP3   OH252095   0.644   6.463   1.556  0.5784  0.4398  0.3248
10227TIP3    H152096   0.689   6.480   1.473  0.6186 -0.4578  0.1479
10227TIP3    H252097   0.714   6.452   1.620  0.7647 -2.4522 -0.2320
10228TIP3   OH252098   2.115   4.488   3.553  0.0674 -0.2657 -0.0039
10228TIP3    H152099   2.123   4.539   3.472 -0.0730  0.8022  0.6258
10228TIP3    H252100   2.161   4.540   3.619 -0.9019 -0.4583  0.8662
10229TIP3   OH252101   0.571   1.917   0.905  0.3148  0.1633 -1.0312
10229TIP3    H152102   0.647   1.975   0.899  1.2517 -1.1730 -3.2058
10229TIP3    H252103   0.547   1.899   0.814 -1.3688 -1.0315 -0.3983
10230TIP3   OH252104   6.545   5.872  12.770 -0.4478  0.2605  0.0444
10230TIP3    H152105   6.591   5.798  12.732 -0.1336 -0.3807  1.6079
10230TIP3    H252106   6.588   5.949  12.734  1.2875 -0.3304  0.7744
10231TIP3   OH252107   2.757   5.562   1.615 -0.5459  0.2048 -0.3221
10231TIP3    H152108   2.745   5.494   1.549 -0.0852 -0.9194  0.7197
10231TIP3    H252109   2.823   5.527   1.675  0.4128  1.9663 -0.2708
10232TIP3   OH252110   6.603   4.325  12.793  0.8845  0.3469 -0.7282
10232TIP3    H152111   6.534   4.389  12.776  1.2737  1.0707  0.3073
10232TIP3    H252112   6.572   4.245  12.752 -0.4634  0.7222 -0.4872
10233TIP3   OH252113   2.882   3.998  14.579 -0.1828  0.2564  0.2240
10233TIP3    H152114   2.842   4.058  14.641 -1.9315 -0.2425 -0.3654
10233TIP3    H252115   2.894   4.051  14.500 -0.6654  0.1426  0.0706
10234TIP3   OH252116   4.810   3.495   1.769 -0.7003 -0.0174 -0.0678
10234TIP3    H152117   4.733   3.550   1.784 -0.6973 -0.3138  1.1286
10234TIP3    H252118   4.885   3.554   1.776 -0.8065  0.6725 -3.0919
10235TIP3   OH252119   4.832   3.706   5.707 -0.2337  0.2390  0.6040
10235TIP3    H152120   4.867   3.623   5.739  0.6154  1.3424  2.7082
10235TIP3    H252121   4.788   3.683   5.625  1.1932 -2.0374  0.3826
10236TIP3   OH252122   1.997   3.376   3.197  0.0709 -0.1986 -0.1656
10236TIP3    H152123   2.042   3.458   3.216  0.1927 -0.6147  1.5375
10236TIP3    H252124   1.950   3.355   3.278  0.0353 -1.8073 -0.5615
10237TIP3   OH252125   0.617   2.307  11.544 -0.3429 -0.2925 -0.4851
10237TIP3    H152126   0.640   2.372  11.609  0.6507 -0.5159 -0.6016
10237TIP3    H252127   0.669   2.329  11.467 -2.1842  0.5346 -1.5692
10238TIP3   OH252128   3.746   2.155   0.743 -0.1080 -0.0224 -0.4656
10238TIP3    H152129   3.786   2.213   0.808  1.5956 -0.2918 -1.2135
10238TIP3    H252130   3.665   2.199   0.717  0.6848  1.5744 -0.3536
10239TIP3   OH252131   0.169   2.763   2.739  0.2477  0.0446  0.2803
10239TIP3    H152132   0.198   2.681   2.780 -3.0332 -1.1658  0.4217
10239TIP3    H252133   0.146   2.738   2.649  0.0498  1.0359  0.0461
10240TIP3   OH252134   4.537   1.290  13.374 -0.1662  0.2344 -0.0138
10240TIP3    H152135   4.584   1.320  13.452  1.2651 -0.2505 -0.6599
10240TIP3    H252136   4.464   1.238  13.409 -2.1214  3.4188  1.1230
10241TIP3   OH252137   3.695   4.997   0.638 -0.1879 -0.0624  0.6088
10241TIP3    H152138   3.741   5.064   0.689  0.0325  0.4990 -0.3038
10241TIP3    H252139   3.689   4.922   0.697 -1.9515  1.3092  2.2969
10242TIP3   OH252140   1.656   0.979   3.639  0.5562 -0.4653 -0.0653
10242TIP3    H152141   1.632   0.888   3.625  2.7467 -1.1860  0.5269
10242TIP3    H252142   1.681   1.011   3.552 -2.3145  0.3453 -0.7280
10243TIP3   OH252143   5.535   1.413   0.172  0.9643  0.0450 -0.1090
10243TIP3    H152144   5.535   1.500   0.132  2.8975 -0.7078 -2.0004
10243TIP3    H252145   5.615   1.410   0.224  1.0996 -0.6944 -0.3422
10244TIP3   OH252146   1.801   0.988   2.468 -0.3173  0.2469  0.2628
10244TIP3    H152147   1.744   1.057   2.434 -1.3665 -0.4956  0.4550
10244TIP3    H252148   1.864   1.034   2.524 -0.6235  1.1060 -0.0778
10245TIP3   OH252149   1.248   0.123  15.560  0.0175 -0.1607 -0.1881
10245TIP3    H152150   1.317   0.131  15.494 -1.0232 -0.4355 -1.3404
10245TIP3    H252151   1.174   0.171  15.523 -0.1753  0.8025  1.3809
10246TIP3   OH252152   1.825   0.717  17.054 -0.2225  0.2875  0.1505
10246TIP3    H152153   1.898   0.669  17.094 -2.3960 -0.6678  3.3215
10246TIP3    H252154   1.822   0.801  17.101 -0.2127  1.0117 -1.0973
10247TIP3   OH252155   1.883   2.550  13.717 -0.4321  0.4478 -0.4031
10247TIP3    H152156   1.974   2.527  13.697 -0.1798 -0.1340  1.2708
10247TIP3    H252157   1.889   2.626  13.775 -1.0247  0.6479 -0.5964
10248TIP3   OH252158   5.386   3.699  14.165 -0.0898  0.1235 -0.0292
10248TIP3    H152159   5.475   3.665  14.173 -0.2338 -0.8221 -1.9102
10248TIP3    H252160   5.355   3.666  14.080 -2.3239  0.2207  0.6843
10249TIP3   OH252161   4.496   0.270   0.501 -0.3742 -0.4041  0.0945
10249TIP3    H152162   4.423   0.250   0.560 -1.1394 -1.9427 -1.2899
10249TIP3    H252163   4.494   0.200   0.436  1.9918 -0.1523 -0.3398
10250TIP3   OH252164   6.154   2.653   4.415 -0.5818 -0.1636 -0.4296
10250TIP3    H152165   6.168   2.688   4.327 -0.2168 -0.3074 -0.4307
10250TIP3    H252166   6.105   2.722   4.460  1.9337  1.3354  0.2220
10251TIP3   OH252167   4.853   6.752   2.521  0.0186  0.0521  0.2716
10251TIP3    H152168   4.850   6.793   2.434  0.5550  2.5991  1.3775
10251TIP3    H252169   4.761   6.746   2.547 -0.0862  0.2555 -0.0452
10252TIP3   OH252170   1.530   2.370  11.722  0.0622  0.3314  0.1567
10252TIP3    H152171   1.438   2.344  11.717  0.1372  0.2343 -0.9130
10252TIP3    H252172   1.572   2.299  11.771 -0.0649 -0.7106 -1.1725
10253TIP3   OH252173   2.271   3.242   2.000  0.5056  0.5374 -0.3582
10253TIP3    H152174   2.206   3.309   1.982 -0.6097 -0.2491  0.6050
10253TIP3    H252175   2.231   3.185   2.066  2.0070 -0.2105 -0.0223
10254TIP3   OH252176   5.192   5.420  14.579 -0.0565  0.0046  0.2371
10254TIP3    H152177   5.178   5.455  14.667 -0.4135  2.1068 -0.5952
10254TIP3    H252178   5.130   5.467  14.524  0.9498 -0.4140 -1.3280
10255TIP3   OH252179   1.530   4.714   1.197 -0.3747 -0.2470 -0.7978
10255TIP3    H152180   1.450   4.663   1.212  0.4603 -1.6742 -0.9758
10255TIP3    H252181   1.586   4.692   1.272 -0.8191  2.2488  0.3787
10256TIP3   OH252182   4.287   0.585  15.900 -0.5137 -0.7184 -0.2640
10256TIP3    H152183   4.286   0.490  15.892  0.0676 -0.7250 -0.3149
10256TIP3    H252184   4.195   0.610  15.904 -0.8475 -1.0432 -3.3866
10257TIP3   OH252185   5.174   5.043  13.236  0.1666 -0.1181 -0.1407
10257TIP3    H152186   5.154   5.059  13.144 -1.7408  0.2379  0.2924
10257TIP3    H252187   5.232   4.967  13.235  1.2740  0.6893 -1.6878
10258TIP3   OH252188   6.204   6.799   3.025 -0.5288 -0.4430  0.2034
10258TIP3    H152189   6.110   6.815   3.011 -0.8622 -1.5302  1.0994
10258TIP3    H252190   6.244   6.886   3.015 -1.5492 -0.0597 -0.7550
10259TIP3   OH252191   3.810   4.825   0.408 -0.6604  0.0695 -0.3719
10259TIP3    H152192   3.755   4.850   0.483 -0.8199 -0.5357 -0.2871
10259TIP3    H252193   3.838   4.736   0.427 -1.4993 -0.4561 -1.4892
10260TIP3   OH252194   1.803   0.529   0.397 -0.2513 -0.4293 -0.1424
10260TIP3    H152195   1.765   0.460   0.343 -3.2316  0.8435  0.1349
10260TIP3    H252196   1.775   0.508   0.486  2.2391 -0.9772  0.5757
10261TIP3   OH252197   5.285   0.997   5.984  0.5833 -0.0426 -0.5498
10261TIP3    H152198   5.347   1.001   6.058  1.3218  1.2552 -1.2065
10261TIP3    H252199   5.290   0.907   5.954  2.4806  0.0952 -0.8103
10262TIP3   OH252200   0.403   4.970  15.822 -0.4902  0.2581 -0.2228
10262TIP3    H152201   0.443   4.910  15.759  1.3634  0.7761  0.4109
10262TIP3    H252202   0.337   4.917  15.868 -0.6418 -0.5835 -1.3750
10263TIP3   OH252203   5.726   4.262  12.818  0.2271 -0.4151 -0.1692
10263TIP3    H152204   5.806   4.209  12.828  0.4598 -0.1950 -0.8358
10263TIP3    H252205   5.727   4.290  12.727  0.7515  1.7336  0.4337
10264TIP3   OH252206   2.750   3.096   0.727 -0.1716 -0.1318  0.3931
10264TIP3    H152207   2.768   3.005   0.751  2.8860  0.9896  3.0530
10264TIP3    H252208   2.691   3.126   0.797 -0.4723  0.1783  0.0057
10265TIP3   OH252209   5.830   4.263   0.029 -0.1093  0.2765 -0.1073
10265TIP3    H152210   5.847   4.247   0.122 -0.8253 -1.2289 -0.2030
10265TIP3    H252211   5.734   4.260   0.022 -0.0180 -0.7986 -1.0812
10266TIP3   OH252212   3.803   1.907  11.420  0.0884 -0.1784 -0.7556
10266TIP3    H152213   3.712   1.931  11.437  0.2315  0.4041 -0.7977
10266TIP3    H252214   3.798   1.847  11.346 -0.0998  1.5245 -2.1878
10267TIP3   OH252215   1.121   0.849   5.884 -0.7354 -0.3955 -0.6242
10267TIP3    H152216   1.184   0.786   5.918 -1.6820 -1.2528 -0.4185
10267TIP3    H252217   1.154   0.934   5.914  0.0550 -0.8676 -0.1210
10268TIP3   OH252218   5.925   3.384   1.575 -0.0782 -0.0227 -0.2158
10268TIP3    H152219   5.864   3.394   1.502 -0.8917  0.7399  0.5511
10268TIP3    H252220   5.883   3.322   1.634  0.8298 -1.0726 -0.6131
10269TIP3   OH252221   6.389   5.239  10.584  0.5569 -0.4333 -0.1675
10269TIP3    H152222   6.432   5.273  10.663  0.8892  1.0710 -0.9566
10269TIP3    H252223   6.297   5.233  10.608  0.7400 -0.5464  0.5251
10270TIP3   OH252224   3.342   4.154  14.134  0.4283 -0.1171  0.2988
10270TIP3    H152225   3.426   4.199  14.134  0.2667  0.1830 -0.2821
10270TIP3    H252226   3.277   4.224  14.131  0.1775 -0.3806 -0.8970
10271TIP3   OH252227   0.599   5.913   2.931  0.6398 -0.1658  0.1566
10271TIP3    H152228   0.611   6.004   2.903  2.0407 -0.4206 -0.1369
10271TIP3    H252229   0.548   5.919   3.012  0.4150  0.8533 -0.0464
10272TIP3   OH252230   3.108   5.217  13.261 -0.7754 -0.6172 -0.2347
10272TIP3    H152231   3.063   5.295  13.228 -0.5696 -0.1117  0.6446
10272TIP3    H252232   3.191   5.215  13.213 -1.2724 -0.9586 -1.1003
10273TIP3   OH252233   3.163   2.637  11.728 -0.2221 -0.3436 -0.3474
10273TIP3    H152234   3.240   2.597  11.688 -0.1471  0.5592 -1.1308
10273TIP3    H252235   3.177   2.731  11.719 -1.2184 -0.1619 -0.1092
10274TIP3   OH252236   0.337   1.435   3.781 -0.5000  0.0193  0.6170
10274TIP3    H152237   0.373   1.354   3.744 -1.2271 -0.4568  0.9277
10274TIP3    H252238   0.244   1.416   3.794 -0.8528  1.2149 -0.1100
10275TIP3   OH252239   3.046   4.994  15.433  0.8100  0.4499 -0.2997
10275TIP3    H152240   3.085   4.912  15.402  0.9717  0.1291  0.7115
10275TIP3    H252241   3.114   5.060  15.419  1.7210 -0.0838  1.3391
10276TIP3   OH252242   4.645   0.505  15.411  0.2819 -0.3906 -0.2060
10276TIP3    H152243   4.661   0.555  15.331  0.1059 -0.2738 -0.1691
10276TIP3    H252244   4.615   0.569  15.475  0.9326 -0.4022  0.1130
10277TIP3   OH252245   1.859   4.213  13.429  0.6268  0.6825 -0.2399
10277TIP3    H152246   1.856   4.185  13.521 -3.5228  0.2725 -0.2890
10277TIP3    H252247   1.948   4.245  13.416  2.2718 -1.9844  3.0570
10278TIP3   OH252248   5.005   3.813   0.919  0.0792 -0.0383 -0.5740
10278TIP3    H152249   4.969   3.896   0.888  1.1819  0.9000  0.5888
10278TIP3    H252250   4.979   3.809   1.011  3.6239  1.1723  0.6455
10279TIP3   OH252251   4.786   3.756  13.284 -0.2431  0.0793  0.1117
10279TIP3    H152252   4.691   3.768  13.294 -0.3827 -0.2639 -0.7692
10279TIP3    H252253   4.801   3.664  13.307  0.1201  0.5235  1.8267
10280TIP3   OH252254   6.221   1.047   0.465 -0.4142  0.3619 -0.3803
10280TIP3    H152255   6.296   0.987   0.464 -0.4790  0.2791 -1.2853
10280TIP3    H252256   6.256   1.129   0.430 -0.9259  0.0810 -1.5943
10281TIP3   OH252257   3.875   3.002   0.358  0.5617  0.3653  0.0096
10281TIP3    H152258   3.952   3.010   0.414  0.1335 -0.5058  0.7522
10281TIP3    H252259   3.878   2.912   0.325  1.3341  1.1339 -2.2123
10282TIP3   OH252260   6.008   4.942   1.036 -0.3877  0.4476  0.8647
10282TIP3    H152261   6.079   4.893   0.994 -0.3343  1.3190 -0.0707
10282TIP3    H252262   5.991   4.893   1.117  1.6101  0.4823  1.3654
10283TIP3   OH252263   5.288   3.281   0.643 -0.3539 -0.0338  0.1109
10283TIP3    H152264   5.262   3.373   0.642  2.4556  0.8602 -0.8162
10283TIP3    H252265   5.357   3.277   0.710  0.7005 -1.0776 -0.9973
10284TIP3   OH252266   0.377   0.487  12.573  0.2156  0.3102 -0.2605
10284TIP3    H152267   0.457   0.492  12.520  1.0752 -0.2144  0.9611
10284TIP3    H252268   0.365   0.577  12.605 -0.2102  0.5918 -1.1794
10285TIP3   OH252269   5.259   5.720   4.599  0.1374  0.6266 -0.2122
10285TIP3    H152270   5.305   5.644   4.635 -1.5425  0.6095  2.0990
10285TIP3    H252271   5.201   5.682   4.533 -0.3387 -0.0620  0.5779
10286TIP3   OH252272   0.290   3.816  15.638  0.0443 -0.2679 -0.0490
10286TIP3    H152273   0.250   3.806  15.724 -2.4777 -0.9838 -1.1866
10286TIP3    H252274   0.337   3.734  15.624 -2.0326 -1.4538 -0.4742
10287TIP3   OH252275   4.307   3.898  15.354  0.0248 -0.0130 -0.3312
10287TIP3    H152276   4.277   3.944  15.276  0.8704  0.7222 -0.2456
10287TIP3    H252277   4.308   3.806  15.330 -0.1061  0.1732 -1.0531
10288TIP3   OH252278   0.986   1.621  12.332  0.1115  0.0265  0.2643
10288TIP3    H152279   0.943   1.693  12.378  1.9626  0.7517  0.9279
10288TIP3    H252280   0.920   1.551  12.330 -0.4674  0.3864  2.9585
10289TIP3   OH252281   2.197   4.289   3.896  0.3470  0.1726  0.3969
10289TIP3    H152282   2.266   4.230   3.865  0.7295  0.5467  0.5211
10289TIP3    H252283   2.244   4.355   3.948 -0.4626 -1.6287  3.6757
10290TIP3   OH252284   4.488   2.346   3.946 -0.3761 -0.0485  0.2862
10290TIP3    H152285   4.470   2.254   3.965 -1.8357  0.1183 -0.1402
10290TIP3    H252286   4.498   2.349   3.850 -0.0665  0.2033  0.3223
10291TIP3   OH252287   6.407   0.685  12.411 -0.3567  0.3263 -0.4775
10291TIP3    H152288   6.418   0.711  12.503  1.6211 -1.2508 -0.2000
10291TIP3    H252289   6.337   0.742  12.378 -2.4276 -0.2780  2.4847
10292TIP3   OH252290   5.933   6.106   4.349 -0.3454  0.2056 -0.7707
10292TIP3    H152291   5.905   6.077   4.262 -1.8893 -2.5182  0.4663
10292TIP3    H252292   5.900   6.038   4.408  0.0510  2.2605  2.0416
10293TIP3   OH252293   1.106   4.468   3.317  0.0291  0.0985  0.2700
10293TIP3    H152294   1.063   4.467   3.231 -1.5711 -0.9574  1.0211
10293TIP3    H252295   1.115   4.561   3.338 -3.9255  0.5388  0.9284
10294TIP3   OH252296   1.780   0.011   6.781 -0.5451  0.0986  0.1823
10294TIP3    H152297   1.806   0.095   6.820 -0.3589  0.9559 -1.6448
10294TIP3    H252298   1.728   0.036   6.704 -0.0199 -1.4360 -0.7155
10295TIP3   OH252299   5.709   4.819   2.869 -0.1197 -0.4439 -0.1023
10295TIP3    H152300   5.665   4.898   2.837  1.5557  0.5716 -0.0005
10295TIP3    H252301   5.724   4.767   2.790 -0.0478 -0.0516 -0.3513
10296TIP3   OH252302   4.948   1.885  13.141  0.2496 -0.0230 -0.1015
10296TIP3    H152303   5.039   1.914  13.135 -0.6273  2.7863 -1.2393
10296TIP3    H252304   4.931   1.842  13.057  0.2436  0.3911 -0.3159
10297TIP3   OH252305   5.258   2.880  10.719 -0.2757 -0.1597  0.2063
10297TIP3    H152306   5.315   2.834  10.781  0.5313 -0.5316 -0.7838
10297TIP3    H252307   5.319   2.920  10.656 -1.0869 -0.3287 -0.7041
10298TIP3   OH252308   5.570   1.581  16.237  0.2884  0.6447  0.6871
10298TIP3    H152309   5.629   1.633  16.293  2.4557 -0.6202 -0.3005
10298TIP3    H252310   5.504   1.644  16.207  1.0686  2.1167  1.9155
10299TIP3   OH252311   3.576   3.362  15.864  0.2762  0.4327  0.0296
10299TIP3    H152312   3.601   3.325  15.948 -1.5974 -2.2312 -0.4597
10299TIP3    H252313   3.651   3.414  15.837  1.4221  0.3122  2.7364
10300TIP3   OH252314   1.570   3.273  13.749  0.2873  0.4818  0.5958
10300TIP3    H152315   1.578   3.178  13.762 -0.4864  0.1958 -0.8967
10300TIP3    H252316   1.530   3.283  13.663 -1.9253  2.1224  1.7018
10301TIP3   OH252317   3.785   6.811  12.777 -0.0860  0.2747 -0.0708
10301TIP3    H152318   3.695   6.783  12.795  1.1536 -2.4703  2.9569
10301TIP3    H252319   3.817   6.844  12.861  2.5061 -1.4948 -0.2358
10302TIP3   OH252320   2.857   6.179   3.368  0.7406 -0.7470 -0.2515
10302TIP3    H152321   2.833   6.104   3.313  0.0756 -1.7742  1.3695
10302TIP3    H252322   2.950   6.190   3.353  0.3093  0.0173 -2.7553
10303TIP3   OH252323   0.169   6.365  12.736  0.2087  0.1971  0.1897
10303TIP3    H152324   0.095   6.384  12.678  1.0505 -1.8674 -1.7322
10303TIP3    H252325   0.131   6.309  12.805 -0.7161  2.3308  1.5105
10304TIP3   OH252326   0.528   2.921  13.214  0.7394  0.2426 -0.7007
10304TIP3    H152327   0.617   2.889  13.230  0.2713 -0.8186 -0.1350
10304TIP3    H252328   0.541   2.999  13.159  2.1178  1.2145  0.9076
10305TIP3   OH252329   0.342   2.929   3.535 -0.3222  0.0540  0.1562
10305TIP3    H152330   0.426   2.887   3.516 -1.0028 -1.5638  0.5864
10305TIP3    H252331   0.366   3.003   3.592  0.7045 -1.3311  1.6400
10306TIP3   OH252332   6.097   1.511  12.870  0.1072 -0.2807  0.2375
10306TIP3    H152333   6.025   1.453  12.892  1.8262 -2.3832  0.6226
10306TIP3    H252334   6.105   1.506  12.775 -0.9560  0.9138  0.0528
10307TIP3   OH252335   4.751   5.914   1.894 -0.2146 -0.0328 -0.0434
10307TIP3    H152336   4.746   5.901   1.989  0.9416 -1.0491 -0.0951
10307TIP3    H252337   4.835   5.874   1.869 -0.2538  0.6988 -1.4187
10308TIP3   OH252338   5.542   5.974   5.812  0.0861 -0.1110 -0.1644
10308TIP3    H152339   5.537   5.969   5.908 -0.5841 -3.1071 -0.2416
10308TIP3    H252340   5.629   6.009   5.794  0.7752 -0.8261  1.5589
10309TIP3   OH252341   6.108   4.398   5.388  0.0815  0.4394 -0.1046
10309TIP3    H152342   6.034   4.340   5.406 -0.2740  1.4850  2.1185
10309TIP3    H252343   6.185   4.343   5.396 -0.3549 -0.3503 -1.0409
10310TIP3   OH252344   1.220   0.019  14.399  0.1519  0.3608 -1.1207
10310TIP3    H152345   1.270   0.053  14.473 -0.8511  1.3755 -0.8837
10310TIP3    H252346   1.178  -0.061  14.433  1.6643 -0.5653 -1.3594
10311TIP3   OH252347   1.733   6.773  12.896  0.7680 -0.2468  0.5449
10311TIP3    H152348   1.801   6.705  12.898  1.1747  0.1392  3.1257
10311TIP3    H252349   1.775   6.850  12.936 -0.0316  1.2405 -1.2985
10312TIP3   OH252350   4.601   5.483   0.316  0.2396  0.1454  0.0243
10312TIP3    H152351   4.585   5.563   0.266 -1.0547 -1.1567 -1.7665
10312TIP3    H252352   4.677   5.443   0.274 -0.0623 -0.3200 -0.0850
10313TIP3   OH252353   0.713   0.433  15.692  0.5393 -0.1339 -0.7861
10313TIP3    H152354   0.619   0.448  15.703  0.2248 -0.2084 -2.9249
10313TIP3    H252355   0.752   0.466  15.773 -1.2052  1.0507 -0.3590
10314TIP3   OH252356   2.947   5.534  16.120  0.5191  0.2272 -0.0603
10314TIP3    H152357   2.858   5.509  16.146 -0.6522  1.9756 -2.0450
10314TIP3    H252358   2.990   5.451  16.100 -1.0572 -0.6154 -0.1386
10315TIP3   OH252359   2.412   4.978   1.299 -0.0622 -0.1479  0.2750
10315TIP3    H152360   2.334   5.010   1.254  0.3594 -0.8650 -1.0069
10315TIP3    H252361   2.424   5.039   1.372 -0.9661  0.8399 -0.3754
10316TIP3   OH252362   6.661   3.846  12.863  0.0592  0.4247 -0.1563
10316TIP3    H152363   6.737   3.899  12.838  0.6754 -0.0067  0.7304
10316TIP3    H252364   6.656   3.779  12.794  0.7841  0.1714  0.0256
10317TIP3   OH252365   0.128   6.424  13.517 -0.5465 -0.2264  0.1791
10317TIP3    H152366   0.124   6.335  13.553  0.6818 -0.3033  0.1508
10317TIP3    H252367   0.219   6.451  13.529 -0.7246  0.7347 -0.5234
10318TIP3   OH252368   5.441   2.803   0.651 -0.0819  0.1448 -0.2528
10318TIP3    H152369   5.358   2.849   0.647 -0.6107 -0.8202 -0.5975
10318TIP3    H252370   5.418   2.710   0.658  0.9555 -0.1494 -0.4518
10319TIP3   OH252371   6.678   2.077   0.329 -0.8897 -0.1537 -0.4828
10319TIP3    H152372   6.725   2.122   0.399 -2.4750  1.5612 -0.4384
10319TIP3    H252373   6.607   2.031   0.374 -1.5445  0.4504 -0.8719
10320TIP3   OH252374   6.113   1.929  15.372  0.2180 -0.1103 -0.2560
10320TIP3    H152375   6.139   2.003  15.317 -0.2603 -0.6267 -1.2085
10320TIP3    H252376   6.085   1.862  15.310 -0.2945 -0.7362  0.6273
10321TIP3   OH252377   1.707   1.363   2.307  0.2192  0.2046 -0.0408
10321TIP3    H152378   1.701   1.437   2.369 -1.1420  1.4507 -1.5616
10321TIP3    H252379   1.669   1.289   2.354  0.1294  0.8707  0.9655
10322TIP3   OH252380   6.255   5.364  11.028  0.1760  0.3939 -0.1477
10322TIP3    H152381   6.213   5.283  11.058 -0.0272  0.9660  1.1446
10322TIP3    H252382   6.349   5.345  11.032  0.1270 -0.3096 -1.4349
10323TIP3   OH252383   1.658   0.237  16.401 -0.0395  0.1428  0.1100
10323TIP3    H152384   1.747   0.204  16.388 -0.2353  0.1198 -1.3259
10323TIP3    H252385   1.654   0.317  16.349 -0.8757  0.1048  0.1004
10324TIP3   OH252386   2.318   0.050  15.591 -0.0386  0.2235  0.2186
10324TIP3    H152387   2.411   0.025  15.593 -0.3274 -1.0300 -0.5824
10324TIP3    H252388   2.272  -0.033  15.581 -1.2149  0.9061 -0.1595
10325TIP3   OH252389   2.025   2.372  16.821 -0.2196  0.1846 -0.2163
10325TIP3    H152390   1.983   2.453  16.791 -1.9207  0.9622  3.6026
10325TIP3    H252391   2.117   2.395  16.830 -0.0135  0.5116 -2.5197
10326TIP3   OH252392   1.117   3.361  15.378 -0.1827 -0.3053  0.1955
10326TIP3    H152393   1.051   3.401  15.434 -0.9266 -0.5117 -0.5107
10326TIP3    H252394   1.074   3.283  15.343  0.4920 -0.5265 -0.1575
10327TIP3   OH252395   1.301   2.709   2.387 -0.3754 -0.0872 -0.1213
10327TIP3    H152396   1.206   2.702   2.395 -0.4746  0.3655 -0.7868
10327TIP3    H252397   1.317   2.717   2.293  0.3848 -0.9485 -0.0855
10328TIP3   OH252398   3.414   6.640  11.889 -0.1224 -0.0168 -0.0136
10328TIP3    H152399   3.400   6.735  11.887 -2.1207 -0.2693 -1.1203
10328TIP3    H252400   3.487   6.625  11.829  0.9206  0.8999  0.9985
10329TIP3   OH252401   5.986   2.080  12.981 -0.2167  0.1961 -0.2711
10329TIP3    H152402   5.939   2.149  13.028 -0.6386 -1.0446  1.2302
10329TIP3    H252403   5.916   2.029  12.940 -0.0048 -0.0799 -0.2874
10330TIP3   OH252404   5.125   2.891   1.376  0.0354 -0.5850  0.0383
10330TIP3    H152405   5.131   2.815   1.434 -1.4180 -0.7053  0.0536
10330TIP3    H252406   5.148   2.965   1.432  1.0929 -0.9515  0.1178
10331TIP3   OH252407   5.521   1.143   0.951  0.0861 -0.1353 -0.3548
10331TIP3    H152408   5.499   1.050   0.956 -1.2468  0.1195 -1.0110
10331TIP3    H252409   5.613   1.147   0.978  0.4136 -1.7342 -1.0839
10332TIP3   OH252410   3.483   6.693   1.290  0.0736 -0.4131 -0.9974
10332TIP3    H152411   3.563   6.670   1.336 -0.1291  1.0997  0.1623
10332TIP3    H252412   3.510   6.755   1.223 -0.4904  3.3529  1.9457
10333TIP3   OH252413   0.471   5.598  13.933 -0.0025  0.1944  0.0706
10333TIP3    H152414   0.493   5.510  13.902 -0.4491 -0.0141  0.3369
10333TIP3    H252415   0.455   5.587  14.027 -1.6164  0.2622 -0.1701
10334TIP3   OH252416   5.777   1.148  11.859  0.0663 -0.5252 -0.0675
10334TIP3    H152417   5.754   1.104  11.941 -1.6757 -0.0079 -0.2434
10334TIP3    H252418   5.698   1.194  11.833  0.5720 -0.6768 -2.0604
10335TIP3   OH252419   6.283   0.305   5.518 -0.0968 -0.7121  0.1489
10335TIP3    H152420   6.346   0.370   5.486  1.2541 -2.1559 -0.2492
10335TIP3    H252421   6.327   0.263   5.592 -1.4775 -0.3076  1.2330
10336TIP3   OH252422   0.670   2.929  12.293 -0.1109  0.0888 -0.2175
10336TIP3    H152423   0.742   2.909  12.233  0.7425  2.0997  0.0441
10336TIP3    H252424   0.664   2.853  12.350  1.1998 -0.5204 -0.8526
10337TIP3   OH252425   6.169   1.185   3.480 -0.7114 -0.2535 -0.3085
10337TIP3    H152426   6.253   1.213   3.443 -0.9459 -0.0653 -0.7008
10337TIP3    H252427   6.104   1.214   3.416 -1.6151  4.2653  2.2942
10338TIP3   OH252428   6.172   0.371  10.779 -0.1510 -0.0914 -0.9446
10338TIP3    H152429   6.167   0.276  10.771  0.3929 -0.3210  1.0383
10338TIP3    H252430   6.080   0.400  10.779 -0.4949 -0.9543  1.4838
10339TIP3   OH252431   1.988   4.724  14.869  0.5989  0.4451 -0.0294
10339TIP3    H152432   1.935   4.777  14.930 -0.2041 -0.4396  0.0679
10339TIP3    H252433   1.923   4.675  14.818  1.3252 -0.3713 -0.1809
10340TIP3   OH252434   3.656   6.813  12.297  0.1094  0.2556  0.5873
10340TIP3    H152435   3.615   6.899  12.310 -0.9865 -0.2523  0.5812
10340TIP3    H252436   3.746   6.825  12.326 -0.0952  1.3462  0.8110
10341TIP3   OH252437   0.048   5.774   0.244  0.6187  0.5856 -0.3250
10341TIP3    H152438   0.098   5.853   0.223 -0.2479  1.0983 -0.5051
10341TIP3    H252439   0.043   5.773   0.340 -0.3302  1.3762 -0.3543
10342TIP3   OH252440   6.005   0.263  16.014  0.0459 -0.2112  0.3203
10342TIP3    H152441   6.013   0.207  15.937  2.3516 -1.0466  1.0810
10342TIP3    H252442   6.034   0.349  15.985  3.2200 -1.0315  0.6831
10343TIP3   OH252443   4.683   4.339   4.538  0.3015 -0.1925  0.7339
10343TIP3    H152444   4.618   4.406   4.554 -0.2137 -0.8452  1.4445
10343TIP3    H252445   4.696   4.297   4.623  1.9856  0.2187  0.7081
10344TIP3   OH252446   6.123   5.478  15.538 -0.1676 -0.2730 -0.0710
10344TIP3    H152447   6.070   5.398  15.532 -0.0032 -0.5207  1.4202
10344TIP3    H252448   6.069   5.546  15.498 -1.0636 -0.7806  0.2498
10345TIP3   OH252449   2.721   0.274  14.739  0.4145 -0.3225  0.2295
10345TIP3    H152450   2.740   0.180  14.737  0.6646 -0.3584  2.2381
10345TIP3    H252451   2.800   0.314  14.775  1.1743  0.9840 -2.6340
10346TIP3   OH252452   6.261   4.604   0.485 -0.0040 -0.4534  0.2384
10346TIP3    H152453   6.264   4.639   0.574  1.8701  1.8861 -0.6327
10346TIP3    H252454   6.186   4.648   0.445  0.0834 -0.3201  0.2213
10347TIP3   OH252455   4.735   3.550  15.418 -0.0931  0.2055 -0.4022
10347TIP3    H152456   4.669   3.527  15.483  0.7181 -1.0860  0.0069
10347TIP3    H252457   4.764   3.466  15.383  1.7449  0.6895 -0.1470
10348TIP3   OH252458   4.276   0.425  10.026 -0.5262  0.2616 -0.0238
10348TIP3    H152459   4.256   0.434   9.933 -0.6374 -0.8396 -0.1157
10348TIP3    H252460   4.220   0.354  10.056  0.9980 -0.8176  0.3973
10349TIP3   OH252461   0.431   5.100  15.094 -0.4745 -0.1171 -0.4853
10349TIP3    H152462   0.436   5.177  15.151  5.1341  2.3648 -3.6017
10349TIP3    H252463   0.378   5.128  15.020  0.5607  0.3258 -1.0636
10350TIP3   OH252464   5.357   3.888   4.718  0.3665  0.3043  0.0992
10350TIP3    H152465   5.321   3.817   4.664  0.9480  1.4849 -1.9539
10350TIP3    H252466   5.281   3.938   4.746  0.1690  1.0162 -1.6282
10351TIP3   OH252467   4.324   2.728   5.063  0.1107 -0.2754  0.3489
10351TIP3    H152468   4.398   2.781   5.093  0.6117 -0.2715 -0.8518
10351TIP3    H252469   4.362   2.667   5.000 -1.1453  0.7770 -1.5127
10352TIP3   OH252470   3.323   1.198  13.137  0.2492  0.1927 -0.3935
10352TIP3    H152471   3.368   1.221  13.056  2.5617  0.2092  0.8090
10352TIP3    H252472   3.323   1.103  13.139 -1.2592  0.1429 -1.1159
10353TIP3   OH252473   6.404   4.127  16.233  0.1907  0.0277 -0.6908
10353TIP3    H152474   6.411   4.218  16.263 -1.1781  0.2905 -1.0929
10353TIP3    H252475   6.331   4.127  16.172 -0.6673 -1.5941  0.2592
10354TIP3   OH252476   1.795   6.057   3.359  0.3598  0.1727  0.0469
10354TIP3    H152477   1.876   6.018   3.392 -1.4996 -1.9160  2.5764
10354TIP3    H252478   1.734   6.051   3.433 -2.0662  1.8427 -1.6738
10355TIP3   OH252479   6.690   5.849  14.391  0.5545 -0.4552  0.0288
10355TIP3    H152480   6.784   5.862  14.379  0.4485  1.1936  0.7188
10355TIP3    H252481   6.652   5.864  14.304  0.7851  0.4937  0.0867
10356TIP3   OH252482   2.206   0.683   6.514 -0.1749 -0.0309  0.9173
10356TIP3    H152483   2.225   0.697   6.421  0.8639 -1.0381  0.9521
10356TIP3    H252484   2.126   0.733   6.530  1.6926  3.4638  0.4030
10357TIP3   OH252485   3.798   5.019   1.728 -0.4362 -0.6270  0.1882
10357TIP3    H152486   3.892   5.024   1.746 -0.3986 -1.3493  0.2512
10357TIP3    H252487   3.772   5.109   1.709  0.6540 -0.6314 -1.6775
10358TIP3   OH252488   3.983   3.413   0.296 -0.2419  0.1381  0.3498
10358TIP3    H152489   3.899   3.395   0.337 -0.6485 -1.2178 -1.0257
10358TIP3    H252490   4.048   3.382   0.360 -0.7821  0.5483  1.1117
10359TIP3   OH252491   1.812   3.761   4.841 -0.2479 -0.0736  0.0557
10359TIP3    H152492   1.865   3.822   4.894 -3.3401  0.8349  2.4149
10359TIP3    H252493   1.808   3.681   4.894 -1.8052  0.1694  0.3654
10360TIP3   OH252494   5.530   0.740   7.069 -0.2689 -0.0629  0.1257
10360TIP3    H152495   5.443   0.737   7.029  0.7619  0.0858 -2.2971
10360TIP3    H252496   5.581   0.676   7.020  1.1013  0.1856  1.1911
10361TIP3   OH252497   3.060   6.274  13.201 -0.2070  0.1129  0.1220
10361TIP3    H152498   3.091   6.185  13.213 -0.9378  0.0474  1.7801
10361TIP3    H252499   3.038   6.280  13.108 -1.4360 -1.8660  0.2475
10362TIP3   OH252500   2.222   4.471  14.306 -0.0217 -0.4374 -0.2002
10362TIP3    H152501   2.159   4.464  14.234 -0.0605  0.6310 -0.2825
10362TIP3    H252502   2.307   4.477  14.262 -0.1546  1.8228 -0.2720
10363TIP3   OH252503   0.282   3.440  15.503  0.4843  0.5558  0.0728
10363TIP3    H152504   0.373   3.467  15.503  1.2713 -1.8146 -0.4186
10363TIP3    H252505   0.269   3.395  15.586 -0.0048  0.2112 -0.1786
10364TIP3   OH252506   2.928   1.551   1.901 -0.0427 -0.4265 -1.1381
10364TIP3    H152507   2.912   1.633   1.855  0.2317  1.2303  1.5028
10364TIP3    H252508   2.853   1.540   1.959  0.4556 -1.4638 -0.6506
10365TIP3   OH252509   5.105   0.174  12.658 -0.4159  0.0921  0.8887
10365TIP3    H152510   5.086   0.203  12.747 -2.0767 -0.3198  0.6999
10365TIP3    H252511   5.196   0.146  12.661 -0.5385 -0.2568  2.5629
10366TIP3   OH252512   4.332   2.470   1.486 -0.5399 -0.4371  0.2690
10366TIP3    H152513   4.288   2.470   1.401 -0.2272  1.3247  0.0711
10366TIP3    H252514   4.307   2.553   1.526  1.1727 -0.1838  0.8969
10367TIP3   OH252515   3.219   0.769   2.860 -0.4208 -0.0535  0.1515
10367TIP3    H152516   3.145   0.818   2.898 -0.3637  1.0981 -1.1391
10367TIP3    H252517   3.185   0.737   2.776  0.9970  1.9188 -1.2602
10368TIP3   OH252518   6.687   2.211   3.954  0.1201  0.2541 -0.8824
10368TIP3    H152519   6.738   2.130   3.948 -0.1236  0.0972 -0.8524
10368TIP3    H252520   6.753   2.280   3.963  0.2930 -0.0919  0.7589
10369TIP3   OH252521   1.875   4.773  11.859 -0.4463  0.1095  0.2042
10369TIP3    H152522   1.782   4.752  11.849  0.0388 -1.8543 -0.7137
10369TIP3    H252523   1.904   4.720  11.933 -0.2304  1.4367  1.1053
10370TIP3   OH252524   3.168   4.540  12.529  0.4142 -0.3512 -0.0742
10370TIP3    H152525   3.215   4.538  12.445 -0.2206 -0.3233 -0.4350
10370TIP3    H252526   3.121   4.624  12.527  0.2346 -0.4453  0.2163
10371TIP3   OH252527   6.222   2.353  12.630  0.9335  0.2258 -0.3459
10371TIP3    H152528   6.241   2.293  12.702  0.2423  1.9370  1.3355
10371TIP3    H252529   6.132   2.331  12.604  0.0503  1.5657  1.4021
10372TIP3   OH252530   2.274   1.279   2.179 -0.3219  0.0631  0.4400
10372TIP3    H152531   2.305   1.355   2.230 -0.3230 -0.0821  0.6570
10372TIP3    H252532   2.194   1.252   2.223 -1.5194  1.2526 -0.8896
10373TIP3   OH252533   1.982   4.382  14.085  0.1653 -0.1683  0.0400
10373TIP3    H152534   1.982   4.457  14.025  0.8594  0.3291  0.6547
10373TIP3    H252535   2.045   4.321  14.047  0.1103 -0.1454 -0.0906
10374TIP3   OH252536   3.784   0.749   0.235  0.3096  0.2335 -0.1165
10374TIP3    H152537   3.716   0.816   0.242 -0.6144 -0.4361 -1.8204
10374TIP3    H252538   3.852   0.777   0.295 -0.6868  1.9046  0.3128
10375TIP3   OH252539   1.252   4.986   5.688  0.2768 -0.6883 -0.1958
10375TIP3    H152540   1.210   5.047   5.749  0.0058 -0.4926 -0.5720
10375TIP3    H252541   1.345   5.009   5.691  0.8868 -2.8961  2.7235
10376TIP3   OH252542   1.686   1.073   4.239  0.1635  0.1274 -0.0069
10376TIP3    H152543   1.758   1.131   4.217  0.1964  0.2548  0.4182
10376TIP3    H252544   1.607   1.122   4.214  0.0757  1.2337  2.1454
10377TIP3   OH252545   4.104   4.445   3.835  0.2909  0.1939 -0.0727
10377TIP3    H152546   4.049   4.366   3.838  0.1370  0.3170  0.4390
10377TIP3    H252547   4.192   4.413   3.855  0.1317  0.2349  0.7097
10378TIP3   OH252548   4.666   6.219   4.295 -0.0473  0.0317 -0.0813
10378TIP3    H152549   4.659   6.206   4.390 -0.7329  0.8287 -0.0083
10378TIP3    H252550   4.581   6.194   4.261  0.1431 -0.0891 -0.4704
10379TIP3   OH252551   4.540   6.731  15.856 -0.2345  0.1712  0.4447
10379TIP3    H152552   4.483   6.730  15.780  3.2054 -0.6426 -2.4096
10379TIP3    H252553   4.572   6.821  15.861  1.3772 -0.2927 -0.7068
10380TIP3   OH252554   6.456   0.627   2.516  0.4344 -0.4360 -0.7435
10380TIP3    H152555   6.516   0.642   2.442 -0.1619  1.1162 -0.9555
10380TIP3    H252556   6.487   0.686   2.585 -1.6424  1.5653 -1.3690
10381TIP3   OH252557   4.398   0.052  12.049 -0.1294  0.1909 -0.0938
10381TIP3    H152558   4.393  -0.021  11.987  2.6552  0.1109 -0.3197
10381TIP3    H252559   4.410   0.010  12.134 -3.1105  0.3310  0.4970
10382TIP3   OH252560   2.534   5.040  10.228  0.2444  0.4743  0.1790
10382TIP3    H152561   2.594   4.967  10.244 -0.9037 -0.8539 -1.3185
10382TIP3    H252562   2.476   5.010  10.158  0.9344  3.5216 -1.9457
10383TIP3   OH252563   1.296   6.481  12.516  0.0602  0.1097 -0.0889
10383TIP3    H152564   1.309   6.414  12.450 -0.6006 -0.3369  0.2184
10383TIP3    H252565   1.377   6.479  12.568  0.1623 -0.2547 -0.2542
10384TIP3   OH252566   0.756   6.266  16.387 -0.0581  0.2231  0.1573
10384TIP3    H152567   0.686   6.282  16.323  0.2866  0.0916 -0.2593
10384TIP3    H252568   0.719   6.292  16.471 -2.3428 -4.1995  0.7939
10385TIP3   OH252569   4.423   6.113   4.796 -0.1481 -0.6658  0.0306
10385TIP3    H152570   4.353   6.173   4.819  0.8922  0.3020  0.7579
10385TIP3    H252571   4.397   6.076   4.711 -0.4872  1.3391 -0.7839
10386TIP3   OH252572   4.516   5.083   1.565 -0.0510  0.6055  0.5717
10386TIP3    H152573   4.449   5.017   1.584 -0.5561  1.1318  0.6773
10386TIP3    H252574   4.504   5.102   1.472 -1.5154  2.2525  1.0487
10387TIP3   OH252575   0.437   3.665  11.456 -0.0016  0.6380 -0.1081
10387TIP3    H152576   0.378   3.639  11.386  0.7315 -0.0723 -0.4825
10387TIP3    H252577   0.419   3.759  11.469 -1.5920  0.3144  0.2041
10388TIP3   OH252578   0.177   3.987  16.239 -0.1356  0.9392 -0.5062
10388TIP3    H152579   0.109   3.936  16.196 -0.0752  0.5052 -0.0945
10388TIP3    H252580   0.255   3.974  16.185  0.2793 -0.6669  0.4156
10389TIP3   OH252581   5.861   4.684  11.323 -0.1132  0.1476  0.3860
10389TIP3    H152582   5.803   4.754  11.352  0.9835  1.3313 -0.1704
10389TIP3    H252583   5.851   4.682  11.227 -1.0792 -1.3404  0.4872
10390TIP3   OH252584   2.004   5.445  12.369 -0.1511  0.0331 -0.4689
10390TIP3    H152585   1.956   5.523  12.396 -0.3349  0.0267 -0.7762
10390TIP3    H252586   2.095   5.475  12.358 -0.0371 -0.0028  0.3206
10391TIP3   OH252587   1.114   1.530  12.556  0.6409 -0.0676  0.1047
10391TIP3    H152588   1.071   1.605  12.596  0.2335 -1.5903  2.8154
10391TIP3    H252589   1.083   1.529  12.466 -0.2928  2.2751  0.3482
10392TIP3   OH252590   0.098   2.799  11.644 -0.4097  0.8133  0.4362
10392TIP3    H152591   0.149   2.871  11.607  0.2038  0.5746  0.8032
10392TIP3    H252592   0.012   2.806  11.602  0.4079  0.2592 -1.4325
10393TIP3   OH252593   5.421   0.935   1.327 -0.0908  0.4296  0.4834
10393TIP3    H152594   5.509   0.912   1.296 -0.5903 -1.0096  0.0504
10393TIP3    H252595   5.427   1.028   1.351  1.7344  0.1799  1.1597
10394TIP3   OH252596   5.119   0.853   4.106  0.4320  0.1919  0.0835
10394TIP3    H152597   5.116   0.800   4.185  0.5246  0.3252  0.1781
10394TIP3    H252598   5.044   0.912   4.113 -0.6170 -0.9745 -0.7816
10395TIP3   OH252599   2.618   0.778   1.334 -0.1389 -0.1584 -0.4522
10395TIP3    H152600   2.537   0.729   1.350  1.6225 -2.6791  1.5784
10395TIP3    H252601   2.629   0.776   1.239 -2.2644 -0.0166 -0.7486
10396TIP3   OH252602   1.488   6.368   5.952 -0.1232  0.0476 -0.7359
10396TIP3    H152603   1.583   6.372   5.960 -0.2733  1.3193  1.1131
10396TIP3    H252604   1.463   6.286   5.996  0.0712  0.1693 -0.3944
10397TIP3   OH252605   4.901   6.584  12.751 -0.5902 -0.5447  0.1703
10397TIP3    H152606   4.829   6.567  12.691 -1.6070  1.6363  0.6632
10397TIP3    H252607   4.861   6.584  12.838  0.2896 -0.7332  0.5903
10398TIP3   OH252608   6.410   3.276   5.483 -0.4193 -0.0577 -0.0723
10398TIP3    H152609   6.493   3.306   5.445 -0.6308  1.6058  0.6881
10398TIP3    H252610   6.367   3.228   5.412 -0.6620  2.6379 -1.9143
10399TIP3   OH252611   5.869   3.858   0.746 -0.1045  0.1758 -0.1335
10399TIP3    H152612   5.793   3.915   0.739 -0.6525 -0.5007  0.1501
10399TIP3    H252613   5.861   3.797   0.673 -1.0966 -1.3394  1.1806
10400TIP3   OH252614   2.241   5.673  14.640  0.3097 -0.6725 -0.1529
10400TIP3    H152615   2.299   5.746  14.659  0.0382 -0.5788  0.3376
10400TIP3    H252616   2.283   5.598  14.683 -0.3352 -0.4492  0.9170
10401TIP3   OH252617   5.582   0.177  15.290 -0.2323 -0.9043 -0.2633
10401TIP3    H152618   5.516   0.173  15.359 -1.2122 -0.5678 -1.1444
10401TIP3    H252619   5.605   0.085  15.273 -0.1507 -0.9987  0.3520
10402TIP3   OH252620   2.763   2.535  14.880 -0.6727 -0.0168  0.3266
10402TIP3    H152621   2.802   2.467  14.825 -0.8598 -0.4330  0.7045
10402TIP3    H252622   2.802   2.616  14.848  1.1015 -0.4936  1.1815
10403TIP3   OH252623   0.878   4.252   2.175 -0.5887 -0.1348 -0.2187
10403TIP3    H152624   0.860   4.318   2.108  2.0514  0.1186 -0.7965
10403TIP3    H252625   0.913   4.177   2.126 -0.6614 -0.7885  0.7081
10404TIP3   OH252626   0.128   2.557  11.800  0.7170  0.1879 -0.1138
10404TIP3    H152627   0.113   2.645  11.765  0.1694 -0.3438 -1.2670
10404TIP3    H252628   0.043   2.514  11.793  0.5760  0.0353  1.9107
10405TIP3   OH252629   4.343   6.302   3.378  0.7923  0.3338  0.1240
10405TIP3    H152630   4.378   6.385   3.346  0.7853  0.0399 -0.6738
10405TIP3    H252631   4.263   6.288   3.328 -0.6450  1.1171  2.1248
10406TIP3   OH252632   5.348   0.764  15.324 -0.2213  0.0231 -0.0754
10406TIP3    H152633   5.369   0.724  15.239 -0.0193 -0.2811  0.1130
10406TIP3    H252634   5.267   0.722  15.351  1.0113 -1.8163  1.0709
10407TIP3   OH252635   1.505   5.229   1.177 -0.4138  0.1860 -0.1465
10407TIP3    H152636   1.510   5.294   1.247  0.9932  0.1889 -0.2186
10407TIP3    H252637   1.573   5.165   1.199 -1.7345 -1.2495 -0.1050
10408TIP3   OH252638   3.132   1.020  12.589  0.2204  0.0514  0.0280
10408TIP3    H152639   3.113   1.044  12.679  2.2686  0.8420  0.3036
10408TIP3    H252640   3.219   1.055  12.572 -0.7077  1.3062 -2.7861
10409TIP3   OH252641   1.133   0.489  16.017 -0.0410  0.3205 -0.8561
10409TIP3    H152642   1.130   0.519  16.108  0.3090  0.3564 -0.8541
10409TIP3    H252643   1.186   0.409  16.021 -2.3546 -1.3199 -0.5821
10410TIP3   OH252644   3.341   1.700   2.962 -0.5836  0.1310  0.8822
10410TIP3    H152645   3.273   1.678   3.026 -0.0941 -0.9832  1.0250
10410TIP3    H252646   3.399   1.760   3.009 -0.6397 -0.0883  1.2337
10411TIP3   OH252647   6.340   4.651  10.774  0.5615 -0.4877  0.7591
10411TIP3    H152648   6.371   4.671  10.862 -1.4007  2.6763  0.8727
10411TIP3    H252649   6.405   4.692  10.716  0.8073 -0.8698  0.7587
10412TIP3   OH252650   5.964   5.593  10.368 -0.6126  0.1118  0.4959
10412TIP3    H152651   6.033   5.558  10.424  0.0128 -1.8233 -1.3522
10412TIP3    H252652   5.903   5.521  10.357 -0.2836  0.1210 -1.9218
10413TIP3   OH252653   2.563   1.363  13.590 -0.0881  1.0344 -0.5273
10413TIP3    H152654   2.558   1.347  13.684  0.3591  2.8311 -0.1597
10413TIP3    H252655   2.476   1.396  13.566 -0.0665  1.0018 -0.6539
10414TIP3   OH252656   6.660   1.788  16.856 -0.3462  0.1422 -0.3608
10414TIP3    H152657   6.755   1.800  16.844 -0.4808 -0.3263 -2.1474
10414TIP3    H252658   6.650   1.694  16.875 -0.5669 -0.1513 -1.8342
10415TIP3   OH252659   2.492   2.625  11.655  0.4378 -0.4759 -0.0696
10415TIP3    H152660   2.495   2.652  11.747 -0.4688  2.0388 -0.6898
10415TIP3    H252661   2.487   2.708  11.607  1.1475 -1.7300 -2.4051
10416TIP3   OH252662   3.461   5.201  15.114 -0.0994 -0.1337  0.0994
10416TIP3    H152663   3.411   5.282  15.110 -0.0689 -0.1371 -0.3120
10416TIP3    H252664   3.553   5.228  15.108 -0.0523 -0.1364  0.7436
10417TIP3   OH252665   1.821   5.725  12.150 -0.2555  0.2651  0.4374
10417TIP3    H152666   1.750   5.677  12.193  0.3426 -1.0469  0.0168
10417TIP3    H252667   1.863   5.774  12.220  0.2933 -1.3164  1.2679
10418TIP3   OH252668   3.701   2.824   5.326  0.1999 -0.3495  0.7593
10418TIP3    H152669   3.776   2.878   5.302 -0.1403 -0.5373 -0.8740
10418TIP3    H252670   3.713   2.743   5.277  0.9839 -2.0766  3.5782
10419TIP3   OH252671   5.110   4.011   4.779 -0.3982 -0.0313 -0.4815
10419TIP3    H152672   5.169   4.057   4.718  1.2388  2.3478  2.6101
10419TIP3    H252673   5.039   4.073   4.796 -1.0770 -0.8405 -0.2882
10420TIP3   OH252674   3.081   5.291   6.370  0.2645  0.6042  0.7636
10420TIP3    H152675   3.012   5.231   6.396 -0.0979  1.3564  1.5795
10420TIP3    H252676   3.084   5.357   6.440  0.9137  1.3168  0.0905
10421TIP3   OH252677   0.783   1.351  11.579  0.4456 -0.4503 -0.1350
10421TIP3    H152678   0.773   1.270  11.528 -0.8748 -1.0677  1.0468
10421TIP3    H252679   0.695   1.389  11.580  0.5758 -0.1550  1.1862
10422TIP3   OH252680   1.481   4.172  14.169 -0.0023 -0.1307  0.3284
10422TIP3    H152681   1.545   4.242  14.152 -0.3481  0.1855  0.3071
10422TIP3    H252682   1.412   4.187  14.104 -1.6188  1.4187  2.2524
10423TIP3   OH252683   6.077   5.854  11.904  0.0507 -0.5964  0.3402
10423TIP3    H152684   6.114   5.942  11.912 -1.5513  0.1438 -0.0113
10423TIP3    H252685   6.004   5.853  11.966 -1.3851 -0.8608 -1.2743
10424TIP3   OH252686   1.357   3.895  16.295  0.3025 -0.1643 -0.2642
10424TIP3    H152687   1.327   3.806  16.278 -0.2493 -0.3564  1.5616
10424TIP3    H252688   1.443   3.900  16.253 -0.2907 -1.0492 -1.6818
10425TIP3   OH252689   5.695   1.321  13.521  0.0355  0.0486 -0.3294
10425TIP3    H152690   5.655   1.328  13.608  2.2004 -0.0692  0.7370
10425TIP3    H252691   5.682   1.408  13.483  0.2387  0.5346  0.6577
10426TIP3   OH252692   6.384   6.652   0.211  0.1109 -0.2268 -0.1901
10426TIP3    H152693   6.348   6.739   0.193  0.7411 -0.1173 -0.9807
10426TIP3    H252694   6.452   6.667   0.276  0.2306 -0.1256 -0.3386
10427TIP3   OH252695   0.845   6.537   0.420 -0.7377  0.1909  0.2286
10427TIP3    H152696   0.920   6.594   0.437  2.0756 -2.6947 -1.3744
10427TIP3    H252697   0.825   6.498   0.505  0.0116  0.5171  0.5622
10428TIP3   OH252698   0.992   4.983   4.844 -0.0828 -0.1362  0.0301
10428TIP3    H152699   0.992   5.024   4.757 -1.5221 -1.1684 -0.4943
10428TIP3    H252700   0.921   5.027   4.891  0.8514  0.5882  0.7952
10429TIP3   OH252701   2.923   6.784  17.009  0.1194  0.3574  0.1519
10429TIP3    H152702   3.010   6.745  17.017  1.3604  2.6567 -1.1491
10429TIP3    H252703   2.933   6.872  17.046 -1.6903  0.6328  0.0785
10430TIP3   OH252704   4.069   2.447   5.445  0.4011 -0.4623 -0.0027
10430TIP3    H152705   4.132   2.518   5.429  0.4068 -0.5108 -0.1980
10430TIP3    H252706   4.055   2.448   5.540  1.3789 -1.0248  0.1647
10431TIP3   OH252707   3.680   0.910  12.315 -0.3095  0.0696  0.1646
10431TIP3    H152708   3.744   0.976  12.287 -0.1598 -1.5264 -3.9769
10431TIP3    H252709   3.732   0.839  12.351  0.0274  0.0188 -0.4076
10432TIP3   OH252710   2.569   4.064   3.995  0.4750  0.2975 -0.1956
10432TIP3    H152711   2.493   4.016   4.026  1.1326 -0.5016  0.2138
10432TIP3    H252712   2.568   4.052   3.900 -0.4183  1.0731 -0.2997
10433TIP3   OH252713   2.345   0.697  15.054  0.5582  0.2761  0.5523
10433TIP3    H152714   2.363   0.607  15.082  0.4922  0.5079  1.3807
10433TIP3    H252715   2.404   0.712  14.980  1.0131 -0.2494  0.7978
10434TIP3   OH252716   5.506   5.836  13.955 -0.3521 -0.6621  0.5660
10434TIP3    H152717   5.553   5.862  13.875 -0.5347 -2.0645 -0.0389
10434TIP3    H252718   5.503   5.740  13.950  1.1191 -0.9461  3.1075
10435TIP3   OH252719   6.388   3.964   0.251 -0.1304  0.2948 -0.6206
10435TIP3    H152720   6.472   3.930   0.281 -0.6133 -0.6558 -0.2827
10435TIP3    H252721   6.378   3.929   0.163 -0.9162 -1.0733 -0.0441
10436TIP3   OH252722   5.374   4.637   3.278  0.2933  0.3013  0.0218
10436TIP3    H152723   5.455   4.682   3.251 -1.0012  2.0948 -1.1032
10436TIP3    H252724   5.306   4.703   3.267 -1.5641 -1.6263 -0.5253
10437TIP3   OH252725   4.211   2.714  14.677  0.3796 -0.3758 -0.3050
10437TIP3    H152726   4.259   2.665  14.610  0.7713 -1.1117  0.4986
10437TIP3    H252727   4.254   2.799  14.681  0.2457 -0.2620 -1.0984
10438TIP3   OH252728   0.479   2.388  12.219  0.0154  0.1787 -0.6978
10438TIP3    H152729   0.391   2.354  12.236 -0.1327  0.0960 -1.5806
10438TIP3    H252730   0.534   2.309  12.213 -0.2689  0.0898 -2.4163
10439TIP3   OH252731   0.704   0.501  11.935 -0.0774  0.4724 -0.0796
10439TIP3    H152732   0.654   0.430  11.975  1.4368 -0.2250  0.6585
10439TIP3    H252733   0.796   0.478  11.952  0.4900  1.8627 -1.1084
10440TIP3   OH252734   3.438   4.998  15.286  0.3180  0.0177 -0.1692
10440TIP3    H152735   3.467   4.920  15.240 -0.1020  0.7070 -1.6647
10440TIP3    H252736   3.455   5.070  15.225 -0.0567  1.0081  0.8423
10441TIP3   OH252737   3.837   5.163   0.801  0.4353  0.0092 -0.6167
10441TIP3    H152738   3.881   5.095   0.852  2.5134  0.7610 -1.3057
10441TIP3    H252739   3.834   5.238   0.861  0.7559  0.1777 -0.8101
10442TIP3   OH252740   2.341   4.849  12.984  0.1897 -0.3994  0.1298
10442TIP3    H152741   2.394   4.923  12.955  0.5482 -1.0679 -0.9454
10442TIP3    H252742   2.376   4.774  12.936 -0.8612 -1.0800  0.4098
10443TIP3   OH252743   4.018   0.687   1.542  0.8268  0.6812 -0.1817
10443TIP3    H152744   4.014   0.712   1.450  0.4844 -0.4206 -0.4699
10443TIP3    H252745   4.068   0.605   1.543  1.2039  0.9079  0.6625
10444TIP3   OH252746   0.201   0.068  12.522  0.1899 -0.2060 -0.0940
10444TIP3    H152747   0.130   0.107  12.572 -0.6091 -2.7266  0.8777
10444TIP3    H252748   0.183   0.092  12.431 -1.7944 -0.5956  0.1647
10445TIP3   OH252749   4.887   0.929   2.001  0.4434  0.0373 -0.0131
10445TIP3    H152750   4.843   0.967   2.077  1.8624  2.3596 -0.2628
10445TIP3    H252751   4.980   0.941   2.019  0.9986 -2.8628 -0.4413
10446TIP3   OH252752   4.827   6.466   1.152  0.0346 -0.2547  0.0077
10446TIP3    H152753   4.782   6.535   1.103 -2.1549  0.3249  2.5836
10446TIP3    H252754   4.919   6.492   1.151 -0.4144  1.4559 -1.0035
10447TIP3   OH252755   0.483   1.435  14.174 -0.6325  0.2299  0.1972
10447TIP3    H152756   0.449   1.346  14.186 -0.8232  0.1052 -1.1071
10447TIP3    H252757   0.577   1.423  14.158 -0.9244  0.1007 -1.5808
10448TIP3   OH252758   4.402   2.084  10.666  0.4447 -0.1113 -0.3720
10448TIP3    H152759   4.401   2.157  10.729 -0.7845 -0.9371  0.6137
10448TIP3    H252760   4.495   2.064  10.654  0.8179  1.5952 -0.6608
10449TIP3   OH252761   0.704   2.749  16.782 -0.0938 -0.1506  0.4500
10449TIP3    H152762   0.727   2.707  16.865 -0.2922 -0.7067  0.2312
10449TIP3    H252763   0.637   2.692  16.745  0.3355 -0.1680 -0.3187
10450TIP3   OH252764   1.384   5.485   4.653  0.2364  0.2386 -0.2578
10450TIP3    H152765   1.299   5.465   4.615  0.0983  0.2578  0.0348
10450TIP3    H252766   1.421   5.400   4.675  0.4039  0.2169 -0.6194
10451TIP3   OH252767   5.695   2.271  15.978 -0.3559  0.0087  0.2672
10451TIP3    H152768   5.647   2.351  16.001 -0.4433 -0.3704  1.4422
10451TIP3    H252769   5.769   2.302  15.926 -0.2404  0.8848  0.9243
10452TIP3   OH252770   5.994   4.280  13.014 -0.3438  0.4085  0.1438
10452TIP3    H152771   5.991   4.226  12.934  0.0945  0.6492 -0.0390
10452TIP3    H252772   5.982   4.369  12.982 -0.4385  0.4771  0.3768
10453TIP3   OH252773   1.727   5.108  16.055  0.0439 -0.0466 -0.6816
10453TIP3    H152774   1.784   5.106  16.132  0.1453 -0.0377 -0.7564
10453TIP3    H252775   1.721   5.016  16.028  0.8240  0.0638 -1.2617
10454TIP3   OH252776   1.973   4.465  12.491  0.2407 -0.1640  0.3566
10454TIP3    H152777   1.916   4.540  12.509  1.2392  1.2792 -1.9117
10454TIP3    H252778   2.036   4.464  12.563 -0.5649  0.3914  1.0783
10455TIP3   OH252779   1.045   2.285  12.436  0.3268  0.4969 -0.0306
10455TIP3    H152780   1.118   2.334  12.398  1.0603 -0.4270  0.1452
10455TIP3    H252781   1.029   2.214  12.374 -1.7369  1.7876 -1.0580
10456TIP3   OH252782   0.188   5.443   3.157 -0.4593  0.2809 -0.5355
10456TIP3    H152783   0.203   5.511   3.092 -1.5845 -0.2249 -1.3695
10456TIP3    H252784   0.258   5.379   3.143 -0.2444  0.5547 -0.7122
10457TIP3   OH252785   2.729   6.655   5.106  0.7828  0.1628  0.1012
10457TIP3    H152786   2.714   6.608   5.188 -1.1972  1.4355  0.5439
10457TIP3    H252787   2.805   6.710   5.123  2.3058 -1.7719  0.0086
10458TIP3   OH252788   2.404   6.200   3.281 -0.0281 -0.0559 -0.0693
10458TIP3    H152789   2.383   6.293   3.276  2.1879  0.4517 -1.3025
10458TIP3    H252790   2.337   6.158   3.226 -0.4108  0.9395 -0.3846
10459TIP3   OH252791   4.793   1.118   5.425  0.1792 -0.0147 -0.1254
10459TIP3    H152792   4.720   1.180   5.420 -0.2561 -0.5268 -0.2460
10459TIP3    H252793   4.862   1.166   5.470 -0.4484  0.2780  0.5531
10460TIP3   OH252794   5.518   2.523  12.545  0.3059  0.6369  0.2515
10460TIP3    H152795   5.553   2.469  12.474 -1.2997  0.8492 -0.7623
10460TIP3    H252796   5.488   2.460  12.610 -0.9256  0.2675 -0.6202
10461TIP3   OH252797   4.902   4.854  14.541 -0.3065 -0.0462 -0.0880
10461TIP3    H152798   4.911   4.949  14.542  0.9631 -0.1440 -0.1068
10461TIP3    H252799   4.983   4.823  14.500  0.7136 -1.2699  2.6594
10462TIP3   OH252800   3.042   2.866  15.041 -0.0761 -0.0547  0.0557
10462TIP3    H152801   3.101   2.929  15.002 -1.6864  2.4581  1.3985
10462TIP3    H252802   2.966   2.865  14.983  0.2356 -1.4455 -0.3780
10463TIP3   OH252803   2.380   5.165  13.418  0.2162  0.0516  0.3760
10463TIP3    H152804   2.389   5.092  13.357  0.1519  1.0813 -0.8852
10463TIP3    H252805   2.469   5.179  13.452  0.4156  0.0056 -0.1170
10464TIP3   OH252806   5.600   2.128  16.190 -0.2716  0.5360 -0.1606
10464TIP3    H152807   5.663   2.072  16.235 -0.8773  1.2198  1.6503
10464TIP3    H252808   5.652   2.177  16.126  0.6962 -0.2107  0.0352
10465TIP3   OH252809   6.099   4.268  11.376 -0.4580 -0.4786 -0.6465
10465TIP3    H152810   6.026   4.211  11.350 -1.1475 -0.1338  0.4553
10465TIP3    H252811   6.167   4.251  11.311  0.7362 -5.1592  1.4146
10466TIP3   OH252812   5.451   3.675   2.011  0.1834 -0.2575  0.0276
10466TIP3    H152813   5.519   3.621   2.052 -0.1418  0.4777  1.6284
10466TIP3    H252814   5.404   3.715   2.085  0.2869  2.0727 -1.0778
10467TIP3   OH252815   2.036   4.665   3.060 -0.2231  0.2054  0.1627
10467TIP3    H152816   2.002   4.747   3.024  2.6034 -0.3116 -4.4880
10467TIP3    H252817   2.129   4.666   3.038  0.2214 -3.6393  1.1227
10468TIP3   OH252818   0.824   6.151  14.283  0.0417 -0.0306 -0.0090
10468TIP3    H152819   0.846   6.098  14.360  0.0038 -0.7685 -0.5004
10468TIP3    H252820   0.909   6.178  14.248  0.0719 -0.0644  0.0365
10469TIP3   OH252821   2.008   4.547   1.347  0.1862  0.3256  0.0967
10469TIP3    H152822   2.015   4.453   1.360  0.6695  0.3783  0.2268
10469TIP3    H252823   2.093   4.572   1.310  0.6703  0.9715  1.6063
10470TIP3   OH252824   3.842   3.206   3.072  0.3620  0.5659 -0.0506
10470TIP3    H152825   3.909   3.144   3.044 -0.3552  1.1108 -3.4303
10470TIP3    H252826   3.832   3.191   3.166 -0.3551 -5.0490 -0.7173
10471TIP3   OH252827   4.369   6.517   2.073 -0.0912 -0.5166 -0.7665
10471TIP3    H152828   4.455   6.523   2.033  0.4219  1.2806  0.4795
10471TIP3    H252829   4.359   6.424   2.095  1.4522 -0.7727 -1.0666
10472TIP3   OH252830   5.218   5.429   1.568 -0.1998  0.6750  0.2151
10472TIP3    H152831   5.247   5.381   1.490 -0.7366  0.1819  0.3179
10472TIP3    H252832   5.123   5.431   1.561 -0.1937  1.6007  0.2882
10473TIP3   OH252833   4.849   5.780  14.978  0.4194 -0.3443  0.7465
10473TIP3    H152834   4.811   5.695  15.001  0.4947 -0.9395 -1.1879
10473TIP3    H252835   4.940   5.774  15.008  0.2512 -0.6997  1.1971
10474TIP3   OH252836   5.374   6.633  14.860 -0.1895 -0.1258 -0.2515
10474TIP3    H152837   5.281   6.611  14.860 -0.5879  1.0072  3.2022
10474TIP3    H252838   5.377   6.726  14.840  0.0848  0.0380  0.5070
10475TIP3   OH252839   4.901   6.812  13.545 -0.2990 -0.7155  0.3959
10475TIP3    H152840   4.876   6.895  13.504 -2.8039 -0.0677  2.8843
10475TIP3    H252841   4.996   6.817  13.556  0.0275  0.3883 -2.3066
10476TIP3   OH252842   5.455   0.993  12.948  0.0364 -0.3905 -0.0336
10476TIP3    H152843   5.470   0.903  12.978 -0.7412 -0.4558  0.1826
10476TIP3    H252844   5.456   0.986  12.852 -0.1928 -0.6646 -0.0180
10477TIP3   OH252845   3.249   3.951  13.969 -0.1745 -0.6324 -0.3200
10477TIP3    H152846   3.287   4.014  14.030 -0.2245  0.7763 -1.6596
10477TIP3    H252847   3.173   3.916  14.015 -0.4911  0.7442  0.2611
10478TIP3   OH252848   2.104   2.159  17.009  0.4084  1.1856 -0.2298
10478TIP3    H152849   2.147   2.139  16.926 -1.3166 -0.7947 -0.7202
10478TIP3    H252850   2.172   2.147  17.075  1.1241  0.1286 -1.1321
10479TIP3   OH252851   1.545   6.760  10.989  0.4825  0.2422  0.0545
10479TIP3    H152852   1.611   6.777  11.056  1.0466 -0.7968 -0.2079
10479TIP3    H252853   1.492   6.839  10.986  1.7317  1.1149  0.2694
10480TIP3   OH252854   1.323   5.889   6.395 -0.6990  0.3601  0.2568
10480TIP3    H152855   1.374   5.970   6.391 -1.3112  0.7315 -2.5635
10480TIP3    H252856   1.247   5.911   6.449 -0.3106  1.3293  0.4351
10481TIP3   OH252857   0.479   4.002   0.889 -0.3531  0.4617 -0.1157
10481TIP3    H152858   0.573   3.989   0.885 -0.3499  0.6445 -0.8769
10481TIP3    H252859   0.445   3.958   0.811 -0.9982 -0.3763  0.6103
10482TIP3   OH252860   3.714   5.352   1.733  0.0016 -0.4617  0.0490
10482TIP3    H152861   3.648   5.298   1.689  0.1383 -0.8432  0.3050
10482TIP3    H252862   3.673   5.438   1.742  0.3994 -0.0096 -1.9063
10483TIP3   OH252863   1.980   4.692  16.341  0.4222  0.1636  0.1888
10483TIP3    H152864   2.031   4.669  16.263 -1.2381 -1.2943 -0.5304
10483TIP3    H252865   2.003   4.625  16.406  0.0040 -0.0561  0.1149
10484TIP3   OH252866   3.685   6.257   4.987 -0.2269  0.0231  0.0601
10484TIP3    H152867   3.642   6.247   4.902  0.6311 -0.5275 -0.3282
10484TIP3    H252868   3.685   6.169   5.024 -2.0308  0.5186  1.3781
10485TIP3   OH252869   3.607   1.421   6.375  0.2219 -0.1526 -0.4780
10485TIP3    H152870   3.590   1.328   6.360 -2.0777  0.4226 -2.0479
10485TIP3    H252871   3.521   1.458   6.394  0.7995  1.9309 -1.5987
10486TIP3   OH252872   1.996   4.626   4.743  0.0611  0.1427 -0.3536
10486TIP3    H152873   2.086   4.595   4.758  0.4619  0.7456 -1.4011
10486TIP3    H252874   1.950   4.548   4.712  0.4217  0.0008 -0.5473
10487TIP3   OH252875   6.115   0.480  15.914  0.3242  0.5261  0.3700
10487TIP3    H152876   6.197   0.436  15.937 -0.2708 -0.5371  0.4909
10487TIP3    H252877   6.133   0.521  15.829  1.0985  0.6347  0.5774
10488TIP3   OH252878   5.100   5.741   2.191 -0.7311  0.0631 -0.5115
10488TIP3    H152879   5.167   5.783   2.136 -1.5672  2.0810 -0.0836
10488TIP3    H252880   5.071   5.666   2.140  1.6250 -0.6951 -0.8384
10489TIP3   OH252881   2.409   3.519  14.566  0.1723  0.1739 -0.0687
10489TIP3    H152882   2.497   3.556  14.577 -0.2031  0.6193  1.8757
10489TIP3    H252883   2.402   3.452  14.635 -0.4806 -0.9451 -1.1881
10490TIP3   OH252884   0.839   1.746   5.954  0.7660 -0.1678 -0.5813
10490TIP3    H152885   0.784   1.824   5.963 -0.5317 -0.8581 -2.1801
10490TIP3    H252886   0.815   1.691   6.028  1.4496  0.7585  0.3694
10491TIP3   OH252887   4.956   4.289   3.939 -0.3832 -0.1213 -0.4153
10491TIP3    H152888   5.029   4.237   3.905 -0.2789  0.0369 -0.4387
10491TIP3    H252889   4.931   4.244   4.020  0.6059  0.5453  0.2849
10492TIP3   OH252890   0.601   2.097   5.794 -0.0516 -0.4039 -0.2537
10492TIP3    H152891   0.524   2.147   5.821  1.5257  0.4728  3.2765
10492TIP3    H252892   0.638   2.064   5.876  0.5727 -5.2230 -2.1365
10493TIP3   OH252893   3.110   1.790   0.944 -0.2518  0.5255 -0.2296
10493TIP3    H152894   3.138   1.807   1.034 -2.2129  0.5846  0.4291
10493TIP3    H252895   3.159   1.713   0.917  2.4481  2.1181 -0.1594
10494TIP3   OH252896   0.199   5.521   2.430 -0.0906  0.5127  0.6942
10494TIP3    H152897   0.181   5.559   2.344 -0.1948 -1.3051 -0.1379
10494TIP3    H252898   0.115   5.522   2.475 -0.2626  0.5487  0.3785
10495TIP3   OH252899   1.895   1.995   0.499 -0.0507  0.0048  0.1887
10495TIP3    H152900   1.969   1.938   0.522 -0.3189 -0.0611  0.9249
10495TIP3    H252901   1.922   2.037   0.417  0.5949 -0.3894  0.1876
10496TIP3   OH252902   0.217   3.531  14.108 -0.2686 -0.3749  0.5461
10496TIP3    H152903   0.236   3.591  14.179 -1.4200 -2.0724  2.3820
10496TIP3    H252904   0.190   3.450  14.151  0.6465 -2.0562 -1.8174
10497TIP3   OH252905   5.829   0.891  12.354  0.6429  0.0232  0.4406
10497TIP3    H152906   5.865   0.886  12.442  1.2773  0.9798  0.2505
10497TIP3    H252907   5.754   0.832  12.355  0.3651  0.3767  1.7589
10498TIP3   OH252908   2.774   5.515  13.967  0.3269  0.3363 -0.0206
10498TIP3    H152909   2.716   5.588  13.946  2.0185  2.3456  1.7731
10498TIP3    H252910   2.730   5.470  14.039 -0.6225 -0.3227 -0.9859
10499TIP3   OH252911   6.641   6.152   4.527  0.0540 -0.5038  0.4500
10499TIP3    H152912   6.724   6.140   4.573  0.4463 -0.6758 -0.2822
10499TIP3    H252913   6.637   6.078   4.466 -0.4201 -0.2406  0.1580
10500TIP3   OH252914   5.888   1.442  11.715 -0.2493 -0.5807 -0.4379
10500TIP3    H152915   5.912   1.407  11.630 -0.4486 -0.1450 -0.6756
10500TIP3    H252916   5.795   1.419  11.725 -0.4750  0.1693 -0.7470
10501TIP3   OH252917   3.817   1.581   6.468  0.4485  0.0879 -0.1137
10501TIP3    H152918   3.769   1.535   6.399  0.1913 -1.0354  0.7928
10501TIP3    H252919   3.748   1.618   6.524  0.6467  0.1115  0.1150
10502TIP3   OH252920   0.358   0.017  12.845  0.1821  1.0537 -0.1753
10502TIP3    H152921   0.436   0.058  12.883 -1.0103  1.7391  1.6989
10502TIP3    H252922   0.391  -0.062  12.802  1.7579  0.3553  2.0669
10503TIP3   OH252923   1.482   2.135  16.775  0.5005  0.4361 -0.0060
10503TIP3    H152924   1.495   2.084  16.695 -1.4962 -0.6880  0.3091
10503TIP3    H252925   1.394   2.172  16.766  0.5514  0.9339  1.3209
10504TIP3   OH252926   6.195   2.262   5.988  0.3423 -0.6812  0.2547
10504TIP3    H152927   6.119   2.287   6.042  1.0675  0.8263  0.6314
10504TIP3    H252928   6.229   2.183   6.030 -1.3661 -1.7704 -0.2890
10505TIP3   OH252929   3.459   5.875  15.887  0.0042 -0.0555 -0.5392
10505TIP3    H152930   3.452   5.941  15.819  1.2545  0.2769 -0.3657
10505TIP3    H252931   3.510   5.917  15.956 -1.1751 -0.4089  0.5814
10506TIP3   OH252932   1.954   5.776   2.232 -0.2702 -0.0879 -0.5965
10506TIP3    H152933   1.981   5.792   2.323 -1.6353  1.2074 -0.3807
10506TIP3    H252934   2.032   5.797   2.180  0.0437  0.7228  0.1762
10507TIP3   OH252935   3.328   1.683   5.554  0.5383  0.0685 -0.1268
10507TIP3    H152936   3.346   1.768   5.593 -1.9938  0.8477 -0.4860
10507TIP3    H252937   3.387   1.623   5.599 -0.0310  1.4388  2.6651
10508TIP3   OH252938   6.677   4.098   2.680 -0.3721 -0.0348  0.8181
10508TIP3    H152939   6.692   4.143   2.763  1.6704  3.2142 -1.0773
10508TIP3    H252940   6.762   4.060   2.658 -1.0899 -1.5361  0.5288
10509TIP3   OH252941   2.110   2.582   3.516 -0.1733 -0.1262 -0.2713
10509TIP3    H152942   2.198   2.602   3.545 -0.3373 -0.4150  0.4383
10509TIP3    H252943   2.121   2.545   3.428  0.5682 -1.8904  0.5309
10510TIP3   OH252944   1.868   4.906  11.625  0.1416 -0.4494 -0.3354
10510TIP3    H152945   1.778   4.917  11.595  0.0959 -1.9819 -0.8193
10510TIP3    H252946   1.865   4.833  11.686  1.3156 -1.6784 -1.6727
10511TIP3   OH252947   5.703   5.575   1.016 -0.7930 -1.1664  0.2490
10511TIP3    H152948   5.755   5.635   0.963 -2.6725 -0.4190 -0.8250
10511TIP3    H252949   5.733   5.488   0.990  0.2687 -0.7543  0.0440
10512TIP3   OH252950   4.053   3.966  13.743 -0.7031 -0.1996  0.0187
10512TIP3    H152951   3.996   3.921  13.681 -1.2545 -0.2684  0.5701
10512TIP3    H252952   4.007   4.046  13.765 -0.8017 -0.4638  0.8055
10513TIP3   OH252953   2.065   5.995   5.736 -0.2224  0.1494 -0.1444
10513TIP3    H152954   1.998   5.984   5.804 -0.9105  2.3030 -0.3847
10513TIP3    H252955   2.015   6.011   5.656  0.5682  0.6512 -0.5489
10514TIP3   OH252956   0.858   4.274   0.834 -0.3989 -0.4200 -0.5846
10514TIP3    H152957   0.951   4.275   0.814 -0.9302 -1.1417 -3.5779
10514TIP3    H252958   0.839   4.184   0.860 -0.0976  0.0389  1.4388
10515TIP3   OH252959   0.477   0.863   2.532 -0.0942  0.0959  0.2468
10515TIP3    H152960   0.457   0.840   2.441 -0.2641  0.8424  0.0887
10515TIP3    H252961   0.429   0.945   2.547  0.9407  0.6457  0.6120
10516TIP3   OH252962   4.680   6.747   0.636 -0.2617 -0.1502  0.3062
10516TIP3    H152963   4.712   6.802   0.565  1.1073  0.6418  1.4688
10516TIP3    H252964   4.759   6.705   0.671 -0.7322  0.3125  2.0232
10517TIP3   OH252965   3.268   6.699  14.169  0.2045 -0.0543 -0.2939
10517TIP3    H152966   3.181   6.660  14.160  0.5458 -1.0090  0.4544
10517TIP3    H252967   3.329   6.628  14.148  0.8198  0.7261 -1.2821
10518TIP3   OH252968   5.051   0.049  15.810 -0.5031 -0.5122 -0.5358
10518TIP3    H152969   5.119   0.013  15.753  1.7471  1.2790  0.8231
10518TIP3    H252970   5.024   0.130  15.767 -0.6956 -0.4797 -0.3579
10519TIP3   OH252971   1.518   0.461   0.814 -0.1609  0.2323  0.0936
10519TIP3    H152972   1.433   0.462   0.771 -0.1061 -2.6704 -0.2701
10519TIP3    H252973   1.502   0.423   0.900  0.6265  0.5889  0.4131
10520TIP3   OH252974   5.201   2.531  15.479  0.2381  0.2154  0.1311
10520TIP3    H152975   5.197   2.471  15.404 -0.5420  0.3242  0.0835
10520TIP3    H252976   5.262   2.488  15.540  1.0023  0.2069 -0.6234
10521TIP3   OH252977   3.275   1.028  11.770  0.2192 -0.0064  0.1401
10521TIP3    H152978   3.286   0.978  11.688  1.0018  0.6614 -0.1793
10521TIP3    H252979   3.358   1.075  11.779  0.3235 -0.4276  1.5734
10522TIP3   OH252980   5.830   1.410  12.501 -0.2135 -0.6487 -0.3880
10522TIP3    H152981   5.794   1.331  12.460 -0.4008 -1.3458  1.0489
10522TIP3    H252982   5.834   1.474  12.430 -2.9887 -0.9721 -0.9747
10523TIP3   OH252983   5.918   5.559  15.760 -0.5699 -0.4165 -0.4608
10523TIP3    H152984   5.980   5.631  15.751 -1.2486  0.3841  0.9409
10523TIP3    H252985   5.833   5.598  15.742 -0.9858 -0.7620  0.6628
10524TIP3   OH252986   6.682   4.012  15.342  0.0393 -0.1405 -0.0750
10524TIP3    H152987   6.758   4.005  15.285 -0.0323 -0.4961 -0.1296
10524TIP3    H252988   6.611   4.040  15.285  0.1140  0.1211 -0.0386
10525TIP3   OH252989   2.904   2.852   3.998 -0.3992  0.6533  0.5455
10525TIP3    H152990   2.868   2.841   3.910  0.3323  0.7984  0.2214
10525TIP3    H252991   2.987   2.898   3.984 -0.8499  1.7825  1.4139
10526TIP3   OH252992   0.231   6.275   2.382 -0.2605  0.3641  0.1344
10526TIP3    H152993   0.215   6.181   2.372  0.2348  0.1780  0.9816
10526TIP3    H252994   0.146   6.311   2.409  0.1377 -0.2615  2.3884
10527TIP3   OH252995   6.216   4.894   2.522 -0.0983  0.0121 -0.4606
10527TIP3    H152996   6.208   4.940   2.606 -1.0438 -1.7552  0.4662
10527TIP3    H252997   6.172   4.952   2.459 -0.6060  0.7281  0.5193
10528TIP3   OH252998   0.957   4.716   2.970  0.0317  0.2817 -0.4739
10528TIP3    H152999   0.916   4.747   2.889  0.7469  2.0861 -0.2075
10528TIP3    H253000   0.887   4.717   3.035 -0.1709  0.4734 -0.6934
10529TIP3   OH253001   6.408   1.792  14.851  0.4884  0.4452 -0.1033
10529TIP3    H153002   6.410   1.713  14.905  0.3963 -0.9591 -2.0401
10529TIP3    H253003   6.319   1.824  14.859 -0.2493 -1.1550 -1.2448
10530TIP3   OH253004   2.144   6.678   5.468 -0.0572 -0.8099 -0.0704
10530TIP3    H153005   2.214   6.669   5.532 -0.2735 -1.2835  0.1060
10530TIP3    H253006   2.171   6.624   5.394  0.0477 -0.5090 -0.2529
10531TIP3   OH253007   1.893   2.549   4.967  0.3333  0.5558  0.7400
10531TIP3    H153008   1.848   2.491   5.029  2.1149 -1.2248  0.4750
10531TIP3    H253009   1.930   2.618   5.021  1.3553 -0.6468  1.6410
10532TIP3   OH253010   5.921   2.148   4.935 -0.4222 -0.3933  0.3511
10532TIP3    H153011   5.841   2.126   4.886 -0.8868 -2.7252  1.9742
10532TIP3    H253012   5.983   2.079   4.911  0.6452  0.5870  0.2150
10533TIP3   OH253013   1.751   1.813   4.518  0.5465  0.2523 -0.4626
10533TIP3    H153014   1.694   1.852   4.452 -1.2575  0.1493  0.9432
10533TIP3    H253015   1.787   1.735   4.476 -2.7133 -1.3856 -0.5629
10534TIP3   OH253016   4.171   0.499  16.494  0.2493 -0.8460  0.3005
10534TIP3    H153017   4.197   0.577  16.543  0.7466 -1.2804  0.7534
10534TIP3    H253018   4.191   0.519  16.403  0.1276 -0.3492  0.3812
10535TIP3   OH253019   1.244   6.346   1.714  0.2917 -0.5771  0.4030
10535TIP3    H153020   1.164   6.311   1.677 -0.3236 -0.7194  1.7969
10535TIP3    H253021   1.314   6.294   1.674 -0.1859  0.2413 -1.6334
10536TIP3   OH253022   2.960   0.771  12.481  0.1665  0.4621  0.5057
10536TIP3    H153023   2.999   0.738  12.400 -0.8074  0.0803  0.1788
10536TIP3    H253024   3.033   0.810  12.529  0.7984  0.4865 -0.4511
10537TIP3   OH253025   1.090   0.790  13.546 -0.6239 -0.4744  0.5098
10537TIP3    H153026   1.035   0.727  13.593 -2.1101 -0.0047 -0.5356
10537TIP3    H253027   1.088   0.868  13.602 -1.8343 -0.1440  0.0484
10538TIP3   OH253028   0.535   5.850  16.616  0.4101  0.9587 -0.1414
10538TIP3    H153029   0.623   5.873  16.585  0.7295  0.7462  0.5821
10538TIP3    H253030   0.538   5.755  16.627 -0.7446  0.5591 -2.6248
10539TIP3   OH253031   6.187   3.193   5.258  0.1445  0.2130  0.0528
10539TIP3    H153032   6.144   3.264   5.212  0.8449  0.3383 -0.4216
10539TIP3    H253033   6.148   3.113   5.221  1.4878  0.2689 -1.6119
10540TIP3   OH253034   1.678   4.232  10.916  0.3197  0.3119 -0.8601
10540TIP3    H153035   1.596   4.251  10.873 -0.1852 -0.9570 -0.5178
10540TIP3    H253036   1.654   4.174  10.989  1.6125 -1.0252 -1.4398
10541TIP3   OH253037   1.720   0.557  12.810  0.0853  0.1347 -0.1296
10541TIP3    H153038   1.815   0.550  12.815  0.0537 -0.2258  0.0271
10541TIP3    H253039   1.700   0.638  12.856  0.2007 -0.6135  1.2989
10542TIP3   OH253040   5.784   2.946   1.635  0.4541 -0.2876 -0.6464
10542TIP3    H153041   5.876   2.930   1.613  0.4543 -1.4116  0.0944
10542TIP3    H253042   5.735   2.912   1.560  0.5210 -2.6800  0.3189
10543TIP3   OH253043   3.845   6.272  12.175 -0.2089 -0.4586  0.1905
10543TIP3    H153044   3.789   6.347  12.152  0.1301  0.1744  1.3215
10543TIP3    H253045   3.934   6.307  12.170  0.0055 -1.0429 -0.1190
10544TIP3   OH253046   2.782   2.761   3.757  0.6264  0.0974 -0.7099
10544TIP3    H153047   2.740   2.847   3.750  1.9275  0.8447  0.2500
10544TIP3    H253048   2.862   2.768   3.705  1.0595 -0.3092 -0.1174
10545TIP3   OH253049   6.380   1.701   3.033 -0.4782  0.6129  0.0729
10545TIP3    H153050   6.419   1.617   3.058  0.0425  0.6467 -0.6159
10545TIP3    H253051   6.454   1.760   3.023 -0.7048  0.7380 -1.0240
10546TIP3   OH253052   1.061   0.994   3.699 -0.7319  0.2106 -0.1229
10546TIP3    H153053   1.062   0.913   3.648  0.0326 -1.2542  2.0793
10546TIP3    H253054   1.152   1.022   3.701 -0.7842  0.3572  0.2647
10547TIP3   OH253055   1.166   4.859   1.704  0.2092 -0.0659 -0.1952
10547TIP3    H153056   1.079   4.830   1.731 -0.7306  2.0008 -0.7996
10547TIP3    H253057   1.210   4.883   1.785  0.0775 -0.7652  0.0870
10548TIP3   OH253058   3.235   1.926  14.533  0.0116  0.0145 -0.0208
10548TIP3    H153059   3.257   1.843  14.490  1.1067  0.8378 -1.1007
10548TIP3    H253060   3.306   1.985  14.509 -0.0027  0.8786  1.9204
10549TIP3   OH253061   0.926   6.793   1.609 -0.7021  0.0819 -0.5006
10549TIP3    H153062   0.949   6.700   1.612 -2.1041 -0.2688  1.0185
10549TIP3    H253063   0.832   6.795   1.626 -0.7454  1.7775 -0.7691
10550TIP3   OH253064   5.224   4.260  13.692 -0.4762  0.2935  0.3093
10550TIP3    H153065   5.314   4.294  13.685 -0.2805 -0.0244  1.1284
10550TIP3    H253066   5.171   4.337  13.710 -0.2851  0.4070  0.3891
10551TIP3   OH253067   3.389   2.670   6.278 -0.1994  0.1731 -0.0900
10551TIP3    H153068   3.424   2.745   6.325  2.2390 -1.4746  0.9168
10551TIP3    H253069   3.443   2.662   6.199  0.9378 -1.6154  0.8014
10552TIP3   OH253070   1.002   5.380   4.018  0.1993 -0.4778  0.1450
10552TIP3    H153071   0.931   5.427   3.975 -0.4957 -1.5368  0.0903
10552TIP3    H253072   1.058   5.449   4.055 -0.3325  0.3893 -0.6256
10553TIP3   OH253073   4.099   3.484  14.823 -0.1941  0.1674 -0.2483
10553TIP3    H153074   4.036   3.455  14.757  0.0913 -1.1861  0.0617
10553TIP3    H253075   4.142   3.404  14.853  0.9481  0.9586  0.2913
10554TIP3   OH253076   4.456   2.191   4.833  0.1005 -0.3492  0.1676
10554TIP3    H153077   4.545   2.189   4.866  0.9597 -0.1799 -1.9528
10554TIP3    H253078   4.411   2.122   4.881  1.1742 -0.0042  1.7405
10555TIP3   OH253079   5.561   5.356   2.246 -0.2856 -0.2582  0.5780
10555TIP3    H153080   5.545   5.262   2.247 -1.0595 -0.1813 -1.0406
10555TIP3    H253081   5.491   5.392   2.191  1.0027  1.0603 -0.2887
10556TIP3   OH253082   0.008   0.195   2.159 -0.2006 -1.0633  0.3264
10556TIP3    H153083   0.095   0.154   2.164 -1.1498 -3.3443 -0.6740
10556TIP3    H253084  -0.005   0.235   2.245  1.7459 -0.8035  0.5536
10557TIP3   OH253085   5.353   2.149   6.133 -0.7432  0.0491  0.4080
10557TIP3    H153086   5.300   2.221   6.097 -0.3678  0.2426  0.2280
10557TIP3    H253087   5.411   2.192   6.195 -0.8283 -0.1684  0.6381
10558TIP3   OH253088   2.822   0.198   5.492  0.0475  0.0654  0.3649
10558TIP3    H153089   2.756   0.266   5.486 -1.5700 -1.3182  1.5692
10558TIP3    H253090   2.905   0.243   5.474 -1.3182  1.4578 -3.6670
10559TIP3   OH253091   5.961   3.968   2.937  0.2583 -0.2409  0.0486
10559TIP3    H153092   6.013   3.911   2.994 -0.1550  0.2204  0.9039
10559TIP3    H253093   6.011   4.050   2.934 -1.2956  0.8969  2.4483
10560TIP3   OH253094   4.448   4.437  16.456 -0.0026  0.1515  0.0575
10560TIP3    H153095   4.386   4.457  16.526  1.1887 -0.2816  1.2883
10560TIP3    H253096   4.395   4.400  16.386 -1.2171  0.5037  0.7758
10561TIP3   OH253097   2.120   3.679   4.688  0.3646  0.6245 -0.8431
10561TIP3    H153098   2.101   3.759   4.639 -1.8717  0.4378 -0.3853
10561TIP3    H253099   2.058   3.680   4.761  2.9158  0.4096  1.5049
10562TIP3   OH253100   4.449   1.570   3.483  0.1123  0.7587 -0.2808
10562TIP3    H153101   4.504   1.518   3.425 -0.2427 -0.8023  0.7058
10562TIP3    H253102   4.509   1.601   3.551  0.0358  0.2143  0.0412
10563TIP3   OH253103   6.768   4.506   2.403 -0.1921 -0.5761  0.8477
10563TIP3    H153104   6.806   4.514   2.315 -1.3495 -0.8518  0.3097
10563TIP3    H253105   6.809   4.577   2.453  0.0812 -0.0800 -0.0474
10564TIP3   OH253106   3.529   2.425  10.789  0.4418 -0.3629  0.2164
10564TIP3    H153107   3.434   2.428  10.780  0.4757 -2.1197 -1.4934
10564TIP3    H253108   3.562   2.458  10.705  1.3666  0.4063  0.8549
10565TIP3   OH253109   2.686   2.970   2.866 -0.1970  0.0625  0.0035
10565TIP3    H153110   2.713   2.879   2.877 -0.6369 -0.1294 -0.4789
10565TIP3    H253111   2.622   2.984   2.935 -2.0101 -0.7622 -1.4302
10566TIP3   OH253112   0.268   5.337   3.680 -0.2926  0.5883 -0.1312
10566TIP3    H153113   0.288   5.359   3.589  1.1325 -0.0588 -0.0148
10566TIP3    H253114   0.327   5.391   3.732 -0.6073  0.4546  0.3800
10567TIP3   OH253115   0.801   2.342   3.891 -0.0353 -0.1635 -0.7994
10567TIP3    H153116   0.893   2.368   3.895  0.2537 -1.3890  1.6702
10567TIP3    H253117   0.797   2.255   3.930 -2.3890  0.3112  0.2480
10568TIP3   OH253118   1.317   6.744  10.559 -0.3716  0.4465 -0.2803
10568TIP3    H153119   1.306   6.680  10.488  1.4507 -0.1393 -0.0837
10568TIP3    H253120   1.349   6.693  10.633 -1.4117  1.2017  0.7284
10569TIP3   OH253121   3.939   3.189   2.515 -0.2229 -0.4774 -0.0114
10569TIP3    H153122   3.991   3.127   2.565 -2.3262 -1.8325  0.6493
10569TIP3    H253123   3.886   3.235   2.580 -0.1453  0.5870 -0.6723
10570TIP3   OH253124   0.694   5.978   5.393 -0.0227  0.1668  0.0301
10570TIP3    H153125   0.758   5.908   5.406  1.1690  1.1272 -0.4796
10570TIP3    H253126   0.743   6.058   5.407 -1.3352  0.9289  0.4893
10571TIP3   OH253127   4.396   5.541  12.155  0.5999 -1.0666  0.0441
10571TIP3    H153128   4.470   5.589  12.119 -0.3208 -0.6283 -1.3400
10571TIP3    H253129   4.405   5.551  12.250  1.7176 -0.1354 -0.1381
10572TIP3   OH253130   5.554   4.285  15.271  0.7343  0.2987  0.4622
10572TIP3    H153131   5.581   4.196  15.248  0.4259  0.6855 -1.6059
10572TIP3    H253132   5.623   4.341  15.236 -0.6282  1.0393 -1.1591
10573TIP3   OH253133   5.911   0.722  16.310  0.2419 -0.1079  0.1347
10573TIP3    H153134   5.857   0.787  16.356  2.4075  0.4969  1.9877
10573TIP3    H253135   5.876   0.638  16.339 -1.6142  0.1997 -1.0859
10574TIP3   OH253136   1.827   2.885  14.978  0.7440 -0.0269  0.6391
10574TIP3    H153137   1.870   2.959  15.022  2.1744 -0.8141  0.6394
10574TIP3    H253138   1.855   2.808  15.028 -1.8520 -0.4833  1.5077
10575TIP3   OH253139   0.761   5.580  12.062 -0.3765  0.1481 -0.4530
10575TIP3    H153140   0.779   5.538  12.146  0.8863  2.0088  0.2849
10575TIP3    H253141   0.791   5.518  11.996 -0.1637 -0.7914  0.5127
10576TIP3   OH253142   5.056   4.293   2.803 -0.0283  0.6419 -0.1392
10576TIP3    H153143   5.024   4.253   2.884  0.6543  1.5705  0.6264
10576TIP3    H253144   5.088   4.220   2.750 -0.5424  0.0136  0.3975
10577TIP3   OH253145   2.051   1.281  13.623  0.2709 -0.3217 -0.2174
10577TIP3    H153146   2.046   1.196  13.667 -1.4653  0.3468  0.9949
10577TIP3    H253147   1.969   1.287  13.574  1.0348  0.0597 -1.4963
10578TIP3   OH253148   4.574   3.631   1.805 -0.0815 -0.1328 -0.1057
10578TIP3    H153149   4.518   3.602   1.878 -1.7134  0.0576 -1.2286
10578TIP3    H253150   4.513   3.666   1.741  1.4821  1.5826 -0.7353
10579TIP3   OH253151   1.453   2.867  15.553 -0.2300 -0.7896 -0.0342
10579TIP3    H153152   1.379   2.894  15.499 -1.1476 -2.1424  0.5017
10579TIP3    H253153   1.417   2.860  15.642  0.6501 -1.0342  0.3212
10580TIP3   OH253154   2.764   2.939   0.427 -0.0776 -0.0373  0.9408
10580TIP3    H153155   2.829   2.869   0.424  0.4178  0.4396 -0.4377
10580TIP3    H253156   2.808   3.014   0.388 -1.4930  0.2480 -0.2095
10581TIP3   OH253157   0.611   0.095  11.125 -0.4055 -0.2305 -0.2574
10581TIP3    H153158   0.539   0.081  11.064 -0.9731 -2.6263  0.8395
10581TIP3    H253159   0.690   0.081  11.073 -0.8837 -2.4155 -0.5154
10582TIP3   OH253160   0.505   5.834   0.068 -0.5966  0.4818 -0.5194
10582TIP3    H153161   0.593   5.808   0.097 -0.6876 -0.7141 -1.2770
10582TIP3    H253162   0.512   5.929   0.057  0.2485  0.5745  0.5931
10583TIP3   OH253163   1.335   5.973  14.075  0.0423 -0.1051 -0.6281
10583TIP3    H153164   1.429   5.955  14.063  0.3101  0.0582  0.9205
10583TIP3    H253165   1.332   6.059  14.117 -0.7731 -0.2820 -0.2973
10584TIP3   OH253166   4.586   4.132  13.991  0.1638 -0.2601  0.1174
10584TIP3    H153167   4.595   4.227  13.994  1.0492 -0.3510  1.1510
10584TIP3    H253168   4.505   4.114  14.038  0.6724 -0.0692  1.1050
10585TIP3   OH253169   2.590   3.711   0.787  0.8784  0.3362 -0.3575
10585TIP3    H153170   2.655   3.715   0.717  1.0704 -1.8313 -0.3561
10585TIP3    H253171   2.630   3.656   0.854 -0.1738  0.5981  0.5171
10586TIP3   OH253172   0.055   0.598  10.727  0.0504  0.6153  0.0856
10586TIP3    H153173   0.113   0.673  10.736 -0.5112  0.7913  3.1542
10586TIP3    H253174   0.111   0.522  10.737  0.3119  0.6474 -1.0127
10587TIP3   OH253175   3.803   1.541  15.905 -0.1756 -0.1591 -0.6002
10587TIP3    H153176   3.885   1.501  15.934 -1.3525 -0.5277  2.6935
10587TIP3    H253177   3.735   1.483  15.940 -1.8874  0.4656 -2.6998
10588TIP3   OH253178   5.874   4.683  14.872  0.1133  0.3916  0.1613
10588TIP3    H153179   5.937   4.751  14.847  0.2538  0.5471  0.9041
10588TIP3    H253180   5.876   4.684  14.968  0.0572 -0.6080  0.1760
10589TIP3   OH253181   4.353   2.723  14.008 -0.2040 -0.2742 -0.4979
10589TIP3    H153182   4.351   2.628  13.994 -0.5920 -0.4319  0.5476
10589TIP3    H253183   4.281   2.756  13.954 -1.0726 -0.7624  0.3296
10590TIP3   OH253184   4.316   0.279  14.733  0.1070  0.7322 -0.0795
10590TIP3    H153185   4.357   0.262  14.818  1.4987 -0.7212 -0.9918
10590TIP3    H253186   4.265   0.359  14.747  2.5550  2.1873  1.4043
10591TIP3   OH253187   3.327   2.231   3.998 -0.2783 -0.0781 -0.0798
10591TIP3    H153188   3.283   2.151   4.028 -0.0876 -0.4577 -0.7916
10591TIP3    H253189   3.295   2.299   4.057  0.2885 -0.8429  1.1534
10592TIP3   OH253190   6.575   1.867   2.956  0.0933 -0.5134 -0.0504
10592TIP3    H153191   6.626   1.879   3.036 -2.2918 -0.0420  1.5161
10592TIP3    H253192   6.613   1.928   2.893  1.3754 -0.1301  1.0495
10593TIP3   OH253193   3.488   3.665  14.141 -0.8808  0.2820  0.1964
10593TIP3    H153194   3.464   3.580  14.176  0.2544 -0.6842 -1.2610
10593TIP3    H253195   3.470   3.659  14.047 -0.9653  1.7196  0.0922
10594TIP3   OH253196   2.778   3.011  16.047  0.3302 -0.1825  0.0851
10594TIP3    H153197   2.868   3.024  16.017 -0.1028 -1.7057 -2.1192
10594TIP3    H253198   2.724   3.035  15.973 -1.1277  0.8291  1.4254
10595TIP3   OH253199   2.069   6.382  13.505 -0.1174  0.1804 -0.0696
10595TIP3    H153200   2.129   6.309  13.523 -0.6404  0.3521  2.8395
10595TIP3    H253201   2.112   6.459  13.542 -1.0563  0.7343 -0.0870
10596TIP3   OH253202   6.468   0.095   2.135 -0.1665 -0.3007  0.4437
10596TIP3    H153203   6.560   0.076   2.117  0.3942  1.9204  0.6033
10596TIP3    H253204   6.452   0.060   2.223  0.6257 -0.4362  0.5354
10597TIP3   OH253205   6.684   2.128  13.136  0.2530 -0.8847 -0.0209
10597TIP3    H153206   6.618   2.138  13.204 -0.0112  2.5451 -0.5880
10597TIP3    H253207   6.708   2.035  13.138 -1.5894 -1.4073  2.9430
10598TIP3   OH253208   2.913   2.081  10.962 -0.2295 -0.3610 -0.1047
10598TIP3    H153209   2.980   2.041  10.908  0.1462  0.7681 -0.5027
10598TIP3    H253210   2.837   2.091  10.904  0.0180  0.4208 -0.3034
10599TIP3   OH253211   0.114   3.115   4.142  0.1226  0.3556 -0.5439
10599TIP3    H153212   0.022   3.121   4.169  0.4672  1.9830  0.4173
10599TIP3    H253213   0.118   3.035   4.089 -2.2764  1.3183 -2.3722
10600TIP3   OH253214   1.254   4.998   0.727  0.2257  0.0018 -0.2200
10600TIP3    H153215   1.238   4.948   0.647  2.8467  0.6521 -1.2549
10600TIP3    H253216   1.180   5.058   0.733 -0.9270 -1.2643 -1.1423
10601TIP3   OH253217   2.165   0.503  13.440  0.1199 -0.2822 -0.3616
10601TIP3    H153218   2.201   0.483  13.353  1.8067 -1.4398  0.5550
10601TIP3    H253219   2.093   0.440  13.451  0.8348 -1.1088 -0.3466
10602TIP3   OH253220   6.772   2.264   1.718  0.4344  0.1605  0.2661
10602TIP3    H153221   6.841   2.258   1.783  0.2887  0.8190  0.4858
10602TIP3    H253222   6.723   2.182   1.728 -0.3764  0.8002  1.8972
10603TIP3   OH253223   2.260   3.132  15.415 -0.3894  0.1728  0.3779
10603TIP3    H153224   2.295   3.050  15.382 -1.8812 -0.0755 -0.6791
10603TIP3    H253225   2.295   3.139  15.505  2.5517  0.1244 -0.6429
10604TIP3   OH253226   6.411   0.318   1.436 -0.6816  0.0694  0.2262
10604TIP3    H153227   6.334   0.270   1.467  1.2021 -2.5787  1.2786
10604TIP3    H253228   6.383   0.360   1.355 -2.9323 -1.7639 -0.0541
10605TIP3   OH253229   6.008   5.592   0.970  0.0647  0.1228 -0.1191
10605TIP3    H153230   6.026   5.500   0.989 -1.9703 -0.1218  0.9868
10605TIP3    H253231   6.032   5.638   1.051 -0.8828  0.2332  0.1195
10606TIP3   OH253232   4.122   4.249   4.403 -0.3339  1.0766  0.2468
10606TIP3    H153233   4.069   4.171   4.420  1.3428  0.0257  0.9950
10606TIP3    H253234   4.126   4.256   4.308 -3.4460  2.4179  0.1157
10607TIP3   OH253235   4.711   2.337  15.798  0.4139 -0.0257  0.3112
10607TIP3    H153236   4.623   2.339  15.836  0.8918 -0.0810  1.4556
10607TIP3    H253237   4.752   2.419  15.828  0.4024  0.5474 -1.1309
10608TIP3   OH253238   6.707   6.036   6.288  0.1352  0.0685  0.5036
10608TIP3    H153239   6.772   5.981   6.245 -0.5012  0.0995 -0.5454
10608TIP3    H253240   6.758   6.107   6.328  0.8674 -0.7305  1.0178
10609TIP3   OH253241   5.696   2.928   1.103  0.1423  0.0760  0.3515
10609TIP3    H153242   5.724   3.018   1.086  0.0931  0.0791  0.2814
10609TIP3    H253243   5.650   2.902   1.022  1.4110 -0.5147 -0.2005
10610TIP3   OH253244   3.248   4.283   5.930  0.2573  0.7918  0.1400
10610TIP3    H153245   3.330   4.329   5.908  0.3089  1.3415  1.3790
10610TIP3    H253246   3.180   4.332   5.884  0.3757  1.8117  1.0081
10611TIP3   OH253247   5.584   0.903  16.113  0.1605 -0.7902 -0.8906
10611TIP3    H153248   5.643   0.978  16.119 -1.4057  0.3887  2.0881
10611TIP3    H253249   5.514   0.933  16.055 -0.6171  0.2565  0.5290
10612TIP3   OH253250   4.006   5.330   4.831 -0.0904  0.5940  0.2820
10612TIP3    H153251   4.048   5.272   4.768 -1.0698 -0.6879  0.7474
10612TIP3    H253252   4.056   5.317   4.912 -0.2709  0.4332  0.3694
10613TIP3   OH253253   5.585   1.957  14.333  0.2750 -0.2661  0.3832
10613TIP3    H153254   5.497   1.927  14.310  0.7042 -0.1631 -1.5063
10613TIP3    H253255   5.643   1.911  14.272  1.3664  1.0207  0.4057
10614TIP3   OH253256   1.675   4.501   1.362 -0.0209 -0.0045  0.5506
10614TIP3    H153257   1.751   4.511   1.305  1.4359 -0.2700  2.3435
10614TIP3    H253258   1.705   4.441   1.430 -1.6420  0.4033  1.6618
10615TIP3   OH253259   2.406   3.930  16.066  0.3465 -0.2826 -0.1929
10615TIP3    H153260   2.392   4.022  16.088  0.4734  0.7474 -3.7970
10615TIP3    H253261   2.323   3.902  16.027  0.8817 -1.1441 -0.7382
10616TIP3   OH253262   3.769   2.369   3.638  0.2608 -0.5320 -0.0160
10616TIP3    H153263   3.696   2.428   3.656  0.6263 -0.3423  0.8633
10616TIP3    H253264   3.774   2.367   3.542  1.4013  2.3259 -0.0982
10617TIP3   OH253265   1.339   5.659   3.593  0.9270 -0.0124 -0.2813
10617TIP3    H153266   1.350   5.566   3.574  1.4272 -0.0591  0.2055
10617TIP3    H253267   1.423   5.686   3.631  0.5790  0.4910  0.1497
10618TIP3   OH253268   4.907   6.261   5.092 -0.6853 -0.1649 -0.1810
10618TIP3    H153269   4.881   6.169   5.091  0.4210 -0.5257  1.3625
10618TIP3    H253270   5.002   6.259   5.081 -0.7565  0.8674 -1.1905
10619TIP3   OH253271   1.739   6.690   2.913 -0.4685  0.0592 -0.9414
10619TIP3    H153272   1.700   6.631   2.977  1.8609 -0.1301  0.4277
10619TIP3    H253273   1.697   6.774   2.930  0.8512  0.3076  1.7553
10620TIP3   OH253274   0.343   1.849  14.962 -0.1848 -0.3282  0.0390
10620TIP3    H153275   0.282   1.829  15.033  1.0788 -0.9110  1.0163
10620TIP3    H253276   0.412   1.901  15.004 -0.0731  0.4408 -1.0604
10621TIP3   OH253277   4.995   4.162  13.638  0.3705 -0.1711 -0.3953
10621TIP3    H153278   5.009   4.134  13.548 -0.1234  0.3656 -0.6508
10621TIP3    H253279   5.079   4.197  13.666  0.8111 -1.2819 -0.2909
10622TIP3   OH253280   5.658   2.849   2.428 -0.1348 -0.6452  0.4005
10622TIP3    H153281   5.678   2.776   2.486  1.3714 -0.9161 -0.4168
10622TIP3    H253282   5.737   2.903   2.428 -1.2545  1.0824  1.0784
10623TIP3   OH253283   1.333   0.689   4.043  0.2729 -0.0135  0.1228
10623TIP3    H153284   1.334   0.604   4.086 -0.1169  0.9725  2.2332
10623TIP3    H253285   1.290   0.747   4.106  0.4944  1.7464 -1.2545
10624TIP3   OH253286   5.943   5.132   5.014 -0.1837 -0.0813 -0.0422
10624TIP3    H153287   5.865   5.142   5.068  0.8087  0.6730  1.3039
10624TIP3    H253288   5.982   5.219   5.010  1.0150 -0.5900 -0.0210
10625TIP3   OH253289   0.007   2.979  13.609 -0.4105 -0.4574  0.1601
10625TIP3    H153290   0.014   2.930  13.527 -0.2473 -1.5895  0.8318
10625TIP3    H253291  -0.008   3.070  13.581  2.2992 -0.2985 -1.1893
10626TIP3   OH253292   3.609   0.549   6.147  0.7642 -0.3997 -0.2574
10626TIP3    H153293   3.535   0.507   6.191  1.3290 -1.9172 -0.6803
10626TIP3    H253294   3.596   0.643   6.161 -1.2183 -0.6368 -0.3160
10627TIP3   OH253295   3.049   6.710  11.466  0.3073  0.3660  0.1210
10627TIP3    H153296   3.001   6.710  11.383  1.7603  1.7980 -0.7718
10627TIP3    H253297   3.047   6.619  11.495 -1.2029  0.0406 -0.8908
10628TIP3   OH253298   2.566   6.231   4.361  0.2506  0.0153 -0.1847
10628TIP3    H153299   2.605   6.194   4.281 -0.2860 -0.2847 -0.3091
10628TIP3    H253300   2.622   6.306   4.382 -0.6447  1.2006 -1.8495
10629TIP3   OH253301   4.137   2.954   0.166 -0.3517  0.5745 -0.3065
10629TIP3    H153302   4.100   2.973   0.079 -0.5030 -1.7120 -0.8158
10629TIP3    H253303   4.098   2.869   0.189  3.7084 -1.5415 -0.4164
10630TIP3   OH253304   3.477   6.083  16.562 -0.0624  0.9071  0.0495
10630TIP3    H153305   3.385   6.060  16.546  0.5696 -1.3300 -0.8189
10630TIP3    H253306   3.515   6.094  16.475  0.5176  1.7973  0.4027
10631TIP3   OH253307   6.379   3.446  16.856  0.4800  0.5057  0.1884
10631TIP3    H153308   6.349   3.476  16.941  0.6853 -0.0324  0.4562
10631TIP3    H253309   6.471   3.473  16.852  1.0431 -1.1871  0.9734
10632TIP3   OH253310   2.953   4.193  15.598  0.2805 -0.5942 -0.5302
10632TIP3    H153311   2.994   4.268  15.557 -0.2251 -0.3558 -0.6047
10632TIP3    H253312   2.971   4.120  15.539 -0.1309 -0.3248 -0.9923
10633TIP3   OH253313   6.739   3.986   3.694  0.2702  0.0334  0.3397
10633TIP3    H153314   6.825   3.979   3.652  0.9466  0.0976  1.6684
10633TIP3    H253315   6.697   4.061   3.651  0.7571 -0.1760 -0.5172
10634TIP3   OH253316   6.131   5.399  15.906  0.0061  0.3537  0.0388
10634TIP3    H153317   6.114   5.437  15.992 -4.1135 -1.6368  0.3199
10634TIP3    H253318   6.057   5.427  15.852  0.6645 -1.2841 -1.8391
10635TIP3   OH253319   1.887   6.545   0.234  0.2185 -0.0731 -0.2527
10635TIP3    H153320   1.945   6.480   0.196  0.2619 -0.2396  0.0920
10635TIP3    H253321   1.902   6.624   0.183  0.3027 -0.2835 -0.5528
10636TIP3   OH253322   1.628   6.297  14.524  0.5502 -0.2477 -0.0900
10636TIP3    H153323   1.573   6.362  14.482  1.7995  2.2153  1.8126
10636TIP3    H253324   1.581   6.273  14.604 -0.3395 -2.4989 -1.2139
10637TIP3   OH253325   4.273   5.633  10.616 -0.2668  0.6944 -0.4486
10637TIP3    H153326   4.343   5.602  10.674 -0.6212 -1.1254 -0.9470
10637TIP3    H253327   4.231   5.554  10.585 -2.5398  1.7379 -0.2074
10638TIP3   OH253328   3.438   3.911  11.787 -0.1647  0.6823 -0.5226
10638TIP3    H153329   3.497   3.949  11.722  0.5808  0.7897  0.2062
10638TIP3    H253330   3.403   3.986  11.835 -0.4519  0.5802 -0.5675
10639TIP3   OH253331   2.467   0.433  15.872  0.4533 -0.3935  0.1475
10639TIP3    H153332   2.420   0.350  15.862 -1.6264  0.3478  2.7725
10639TIP3    H253333   2.524   0.419  15.948  2.3790 -0.2872 -1.1854
10640TIP3   OH253334   1.892   4.216  13.172  0.1355 -0.7081 -0.4839
10640TIP3    H153335   1.986   4.198  13.179  0.1403 -0.0969  1.3460
10640TIP3    H253336   1.855   4.189  13.256 -0.5389  3.4797  0.7945
10641TIP3   OH253337   3.964   4.479   6.446  0.1773 -0.0232  0.1388
10641TIP3    H153338   3.889   4.536   6.430 -0.0178 -0.2245  0.3381
10641TIP3    H253339   3.965   4.419   6.372  0.4625  0.3186 -0.1416
10642TIP3   OH253340   4.307   6.381  10.740 -0.5610 -0.0027 -0.6320
10642TIP3    H153341   4.372   6.369  10.670  0.8349  0.2459  0.5552
10642TIP3    H253342   4.241   6.315  10.723 -0.7676  0.6739 -2.7184
10643TIP3   OH253343   4.518   4.800   4.210  0.1907 -0.1861 -0.0374
10643TIP3    H153344   4.530   4.854   4.133 -1.2003 -1.4276 -1.1823
10643TIP3    H253345   4.471   4.723   4.179 -0.0542 -0.9219  1.9763
10644TIP3   OH253346   2.776   5.840  12.636  0.2257  0.0662 -0.1646
10644TIP3    H153347   2.815   5.807  12.555  0.1841  0.4434 -0.3446
10644TIP3    H253348   2.686   5.806  12.635  0.3130 -0.1648 -0.1362
10645TIP3   OH253349   2.392   2.671   2.750  0.9472 -0.2477  0.1490
10645TIP3    H153350   2.387   2.733   2.823  1.0560 -0.1326  0.0578
10645TIP3    H253351   2.443   2.598   2.785 -0.9797 -1.2746  0.9704
10646TIP3   OH253352   6.655   2.100   2.551  0.6954  0.3526  0.4995
10646TIP3    H153353   6.687   2.083   2.640  0.2538 -1.9809  0.2926
10646TIP3    H253354   6.733   2.091   2.495  0.1691 -4.9122  0.0413
10647TIP3   OH253355   1.039   0.280  16.995  0.7250 -0.0604 -0.3665
10647TIP3    H153356   0.987   0.326  16.928  1.0134 -0.0032 -0.5552
10647TIP3    H253357   1.126   0.273  16.956  1.3451  1.4227  0.6565
10648TIP3   OH253358   5.885   5.108  15.001  0.6071  0.4265  0.6227
10648TIP3    H153359   5.929   5.167  14.939 -0.0419  0.6793  0.3973
10648TIP3    H253360   5.946   5.034  15.011 -1.6413 -2.9147 -5.2194
10649TIP3   OH253361   3.830   2.311   0.107 -0.4220  0.2505  0.1432
10649TIP3    H153362   3.798   2.303   0.017  0.4106 -0.0698 -0.1361
10649TIP3    H253363   3.814   2.403   0.129 -1.5956  0.0834  0.0600
10650TIP3   OH253364   5.559   1.390  13.011  0.2298 -0.2233  0.0446
10650TIP3    H153365   5.529   1.369  12.923  0.6895 -1.1283  0.0955
10650TIP3    H253366   5.532   1.481  13.024  0.0220 -0.1265 -0.9654
10651TIP3   OH253367   5.699   0.797   5.465  0.5324  0.5942 -0.4034
10651TIP3    H153368   5.713   0.759   5.378  0.1345  1.0188 -0.6601
10651TIP3    H253369   5.778   0.775   5.514  0.4648 -0.2614 -0.6519
10652TIP3   OH253370   5.006   5.534  14.780  0.6970 -0.1069  0.3790
10652TIP3    H153371   4.916   5.559  14.759  0.9569  1.2504  0.8023
10652TIP3    H253372   5.008   5.533  14.876  0.9229 -0.9962  0.3764
10653TIP3   OH253373   5.174   4.984   6.105  0.4833  0.4263  0.3244
10653TIP3    H153374   5.169   5.061   6.048  0.6128  0.9493  1.0113
10653TIP3    H253375   5.138   5.012   6.188 -1.3566 -0.8370  0.0186
10654TIP3   OH253376   0.357   6.740   6.090 -0.4808 -0.2931  0.6855
10654TIP3    H153377   0.409   6.760   6.168  1.2225 -2.0921  0.1127
10654TIP3    H253378   0.313   6.658   6.111  1.2992 -1.7019 -0.7340
10655TIP3   OH253379   4.483   4.427   2.070 -0.1743  0.4844  0.0432
10655TIP3    H153380   4.517   4.339   2.088  1.5951  1.1022 -0.1679
10655TIP3    H253381   4.434   4.417   1.989  0.7305 -0.1479 -0.4388
10656TIP3   OH253382   1.255   1.871   3.282  0.4649 -0.1626 -0.7015
10656TIP3    H153383   1.303   1.801   3.325  0.1329 -0.2120 -0.4090
10656TIP3    H253384   1.286   1.870   3.192  1.5961  0.3191 -0.3322
10657TIP3   OH253385   5.435   6.567  11.793  0.1967 -0.0461  0.2212
10657TIP3    H153386   5.467   6.653  11.767 -3.6489  1.5812  0.2547
10657TIP3    H253387   5.421   6.521  11.710 -0.2574  0.4134  0.0367
10658TIP3   OH253388   4.176   4.744   3.303  0.2673  0.2748  0.2726
10658TIP3    H153389   4.089   4.721   3.335 -0.9688  2.4675 -1.2258
10658TIP3    H253390   4.187   4.690   3.224 -0.9139  1.8152 -1.0022
10659TIP3   OH253391   5.071   0.950  14.684  0.3452 -0.1925  0.2071
10659TIP3    H153392   5.013   1.023  14.706 -0.5799 -0.5295 -1.0001
10659TIP3    H253393   5.016   0.872  14.696  0.3462 -0.4924 -1.4691
10660TIP3   OH253394   3.128   0.650   3.271  0.3004 -0.4090  0.7598
10660TIP3    H153395   3.144   0.607   3.355 -0.1249 -1.3156  0.3827
10660TIP3    H253396   3.188   0.607   3.210 -1.5099 -1.9240 -0.0606
10661TIP3   OH253397   1.054   4.124   1.526  0.0184 -0.0226  0.2401
10661TIP3    H153398   1.088   4.040   1.556  0.1918  0.2836  0.9229
10661TIP3    H253399   1.034   4.172   1.607 -2.2165 -0.2536 -0.1108
10662TIP3   OH253400   2.425   2.779  14.523 -0.3113 -0.2728  0.8995
10662TIP3    H153401   2.382   2.731  14.453  0.5452  0.9036 -0.4722
10662TIP3    H253402   2.427   2.870  14.493 -0.1047  0.3085  2.5431
10663TIP3   OH253403   5.283   4.353  16.616 -0.2774 -0.3982 -0.5235
10663TIP3    H153404   5.237   4.343  16.700 -0.0505  1.2490 -0.1530
10663TIP3    H253405   5.217   4.389  16.557  0.2915  1.2870 -0.1888
10664TIP3   OH253406   4.011   3.718  14.362  0.4226 -0.0914  0.4467
10664TIP3    H153407   3.967   3.683  14.439 -2.5211 -0.2768 -1.1799
10664TIP3    H253408   4.085   3.658  14.348  1.6119  0.4678  3.5361
10665TIP3   OH253409   6.663   4.850  10.324 -0.1064  0.0453 -0.1139
10665TIP3    H153410   6.725   4.878  10.256 -1.1296 -0.8092 -1.4501
10665TIP3    H253411   6.612   4.929  10.344 -0.3909  0.1075 -1.0152
10666TIP3   OH253412   2.761   3.714   0.544 -0.0741  0.1806 -0.4400
10666TIP3    H153413   2.763   3.619   0.533  1.1689  0.1795 -0.2562
10666TIP3    H253414   2.735   3.748   0.459 -1.6477 -0.3615 -0.2112
10667TIP3   OH253415   6.453   6.652   1.898 -0.3311 -0.4261  0.1313
10667TIP3    H153416   6.519   6.702   1.945 -1.2575  1.1570 -0.1826
10667TIP3    H253417   6.370   6.697   1.917 -1.2143 -1.8950 -0.1085
10668TIP3   OH253418   4.676   6.123   1.520  0.0450 -0.1575  0.0520
10668TIP3    H153419   4.668   6.217   1.504  1.1883 -0.4131 -2.3625
10668TIP3    H253420   4.675   6.084   1.433 -1.8652 -2.5563  1.0313
10669TIP3   OH253421   4.904   6.586   3.281  0.8786  0.0114 -0.2444
10669TIP3    H153422   4.970   6.520   3.262 -1.1005 -2.1330 -0.0973
10669TIP3    H253423   4.821   6.546   3.252 -0.5157  2.0929  0.6264
10670TIP3   OH253424   1.801   4.323  14.664  0.5057  0.3215  0.2110
10670TIP3    H153425   1.825   4.244  14.712  3.3696  1.7628  1.4144
10670TIP3    H253426   1.818   4.302  14.573 -0.5455 -0.9804  0.2775
10671TIP3   OH253427   2.904   6.098   4.392 -0.1225 -0.4391 -0.2761
10671TIP3    H153428   2.916   6.068   4.302  1.9570 -1.2774  0.2257
10671TIP3    H253429   2.822   6.148   4.390 -0.9813 -1.8080 -2.2658
10672TIP3   OH253430   0.159   6.005  10.475  0.3277 -0.1256  0.0295
10672TIP3    H153431   0.159   5.952  10.555 -0.2148 -1.1165 -0.5957
10672TIP3    H253432   0.092   6.072  10.490 -1.4289 -1.6879 -0.4281
10673TIP3   OH253433   5.655   4.251  12.384  0.0410 -0.4786  0.0626
10673TIP3    H153434   5.715   4.317  12.419  0.0080 -1.0324  1.2139
10673TIP3    H253435   5.573   4.299  12.368  0.1694 -0.1393  0.4186
10674TIP3   OH253436   2.053   3.191   1.334 -0.1931 -0.0348  0.0274
10674TIP3    H153437   2.145   3.217   1.323 -0.4675  0.7699 -0.4279
10674TIP3    H253438   2.049   3.155   1.423  0.2744  1.2132  0.5802
10675TIP3   OH253439   3.314   1.453   6.409 -0.4221 -0.4187  0.1823
10675TIP3    H153440   3.220   1.471   6.416 -0.3473 -0.4411  1.4583
10675TIP3    H253441   3.319   1.366   6.370 -0.9085 -0.1445 -0.5209
10676TIP3   OH253442   4.963   1.506  11.711  0.6760 -0.2895 -0.3130
10676TIP3    H153443   5.030   1.443  11.739  0.6731 -0.0187  0.3204
10676TIP3    H253444   5.013   1.579  11.675  0.7928  0.4551  1.2816
10677TIP3   OH253445   5.359   4.563  13.435 -0.0448  0.3735  0.0469
10677TIP3    H153446   5.300   4.540  13.507 -0.3066  0.2394 -0.2108
10677TIP3    H253447   5.380   4.480  13.392  0.7552  0.3552  0.4564
10678TIP3   OH253448   6.720   6.080   2.440 -0.0094 -0.1032  0.3696
10678TIP3    H153449   6.686   6.156   2.393 -1.5751 -0.8401  0.2578
10678TIP3    H253450   6.765   6.118   2.516 -2.0912  0.9412  1.1794
10679TIP3   OH253451   0.345   2.945   4.340 -0.1619  0.8064  0.5369
10679TIP3    H153452   0.299   3.022   4.306 -0.3001  0.7917  0.6925
10679TIP3    H253453   0.293   2.871   4.309  0.2051  0.7569  0.0279
10680TIP3   OH253454   2.950   1.995  16.811 -0.2216 -0.0374  0.1461
10680TIP3    H153455   3.033   1.973  16.770  0.7776  2.3506  0.6935
10680TIP3    H253456   2.888   1.929  16.778  2.0555 -2.5164  0.5468
10681TIP3   OH253457   0.529   6.062   2.579 -0.0517  0.4526  0.3681
10681TIP3    H153458   0.624   6.062   2.590 -0.0439  1.5848  0.4939
10681TIP3    H253459   0.503   6.152   2.602 -1.0497  0.4035 -0.5182
10682TIP3   OH253460   5.441   4.719   2.686  0.4286  0.3927 -0.1576
10682TIP3    H153461   5.467   4.650   2.748 -0.4402 -0.7129 -0.9699
10682TIP3    H253462   5.380   4.774   2.735 -0.9277 -0.9746 -0.2489
10683TIP3   OH253463   2.632   1.708   1.167  0.2449  0.4095 -0.1037
10683TIP3    H153464   2.645   1.715   1.073 -0.3452 -0.1899 -0.2300
10683TIP3    H253465   2.615   1.616   1.183 -1.2378  0.7471  0.3914
10684TIP3   OH253466   5.010   3.815  12.332 -0.5304 -0.1387 -0.3952
10684TIP3    H153467   5.021   3.841  12.423  0.3733  1.1493 -0.8235
10684TIP3    H253468   5.010   3.720  12.333  0.8048 -0.1589  0.8312
10685TIP3   OH253469   3.386   5.578  11.985  0.5080  0.0428 -0.0357
10685TIP3    H153470   3.344   5.594  12.069 -3.5809 -1.7217 -1.4638
10685TIP3    H253471   3.431   5.494  11.997  2.1084  1.0016  0.9887
10686TIP3   OH253472   1.315   5.937  16.297 -0.6433  0.1943 -0.1194
10686TIP3    H153473   1.224   5.908  16.306 -0.8000  0.1785 -1.5316
10686TIP3    H253474   1.360   5.863  16.257 -0.4878  0.9565 -1.3909
10687TIP3   OH253475   6.160   6.618   1.469 -0.3097  0.3739  0.4934
10687TIP3    H153476   6.249   6.608   1.502 -0.5905 -0.3230  1.0611
10687TIP3    H253477   6.142   6.536   1.423 -1.0449  0.0465  1.3380
10688TIP3   OH253478   6.385   4.650  15.883 -0.2384  0.0384  0.4358
10688TIP3    H153479   6.388   4.559  15.853  1.2805  0.1026  0.3309
10688TIP3    H253480   6.358   4.644  15.975 -0.2412 -0.5043  0.4045
10689TIP3   OH253481   0.988   6.387  10.537  0.5709 -0.6283 -0.1160
10689TIP3    H153482   0.896   6.409  10.521  0.8891  0.2262 -0.8538
10689TIP3    H253483   0.985   6.302  10.582 -0.5701 -0.6471 -0.1975
10690TIP3   OH253484   1.418   5.005  13.861 -0.0650 -0.2766 -0.8551
10690TIP3    H153485   1.355   4.979  13.928  1.1222 -0.3121  0.2923
10690TIP3    H253486   1.427   5.100  13.873 -0.0562 -0.2390 -1.1605
10691TIP3   OH253487   5.767   6.437   3.398 -0.2333  0.1303 -0.3437
10691TIP3    H153488   5.700   6.403   3.458  0.3039 -1.1585 -0.4423
10691TIP3    H253489   5.837   6.372   3.401 -0.5610 -0.4974 -3.0624
10692TIP3   OH253490   1.416   1.949  15.823  0.1127 -0.5968 -0.1370
10692TIP3    H153491   1.393   1.950  15.730 -1.2818 -1.6329  0.1691
10692TIP3    H253492   1.511   1.966  15.824 -0.3041  2.3545 -1.5350
10693TIP3   OH253493   2.666   4.466   0.058 -0.4884 -0.3329 -0.3016
10693TIP3    H153494   2.642   4.558   0.076 -0.7795 -0.4790  0.0854
10693TIP3    H253495   2.619   4.416   0.125  0.8572 -0.6442  0.4564
10694TIP3   OH253496   5.250   4.325  15.894  0.3742  0.2458  0.7488
10694TIP3    H153497   5.197   4.382  15.950 -1.1168 -0.1805 -0.1521
10694TIP3    H253498   5.282   4.257  15.952 -3.5055 -1.8489  0.7528
10695TIP3   OH253499   1.598   2.874   5.146 -0.0472  0.3877 -0.1356
10695TIP3    H153500   1.519   2.825   5.170 -0.5884  0.1772 -2.2108
10695TIP3    H253501   1.594   2.953   5.201 -1.6898  0.3776 -0.1908
10696TIP3   OH253502   1.360   0.106  14.640 -0.1079  0.0238  0.1973
10696TIP3    H153503   1.294   0.138  14.701  0.5061 -0.1394  0.9646
10696TIP3    H253504   1.442   0.141  14.673  0.4666 -1.5015  0.4803
10697TIP3   OH253505   3.789   0.508   1.877  0.3095 -0.1281 -0.3824
10697TIP3    H153506   3.812   0.458   1.956  0.8357 -0.0735 -0.4978
10697TIP3    H253507   3.859   0.573   1.869  0.7764 -0.7425 -1.4274
10698TIP3   OH253508   0.741   0.094  16.863 -0.1658  0.3247 -0.3213
10698TIP3    H153509   0.719   0.001  16.857 -2.8934  0.8996 -0.8749
10698TIP3    H253510   0.728   0.127  16.774  0.5932  1.2737 -0.0958
10699TIP3   OH253511   5.971   2.199  15.435  0.6480  0.6367 -0.2706
10699TIP3    H153512   6.004   2.179  15.523 -1.0938 -0.8847  0.1119
10699TIP3    H253513   6.049   2.202  15.380  1.6168 -0.4465  0.9797
10700TIP3   OH253514   2.132   3.096   2.422  0.0859  0.1299 -0.3573
10700TIP3    H153515   2.074   3.162   2.383 -0.0552  0.2017 -0.0298
10700TIP3    H253516   2.086   3.013   2.411  0.0729  0.1420 -0.3936
10701TIP3   OH253517   4.375   3.683   3.714 -0.1005  0.0240 -0.5282
10701TIP3    H153518   4.416   3.601   3.687 -0.8681 -0.2066 -1.0344
10701TIP3    H253519   4.282   3.671   3.694 -0.3865  0.6196  0.3708
10702TIP3   OH253520   3.708   6.763  16.623 -0.7616 -0.6175 -0.1456
10702TIP3    H153521   3.637   6.821  16.597  0.2329  0.3102 -0.8719
10702TIP3    H253522   3.765   6.817  16.677  0.5914 -0.6471 -1.4726
10703TIP3   OH253523   2.900   6.671   0.552  0.2771  0.0398  0.0880
10703TIP3    H153524   2.870   6.706   0.468 -0.7316 -1.4223 -0.2086
10703TIP3    H253525   2.905   6.576   0.537  1.6225 -0.0934  1.2278
10704TIP3   OH253526   1.913   1.519  14.662 -0.0277  0.3952  0.1714
10704TIP3    H153527   1.896   1.553  14.574 -0.0914 -0.6760 -0.2563
10704TIP3    H253528   1.885   1.427  14.658 -0.6238  0.4908  1.5000
10705TIP3   OH253529   0.399   2.573   3.584  0.3070  0.5758  0.0976
10705TIP3    H153530   0.486   2.542   3.558  0.4902  0.7048  0.5445
10705TIP3    H253531   0.369   2.625   3.509 -0.1991 -1.0256 -0.8603
10706TIP3   OH253532   2.619   4.223  13.179  0.0517 -0.2638 -0.2364
10706TIP3    H153533   2.590   4.132  13.186 -1.1185  0.1392  0.3304
10706TIP3    H253534   2.685   4.221  13.110 -1.1535 -1.2638 -1.4265
10707TIP3   OH253535   5.413   5.102   3.034 -0.2526 -0.4892  0.0816
10707TIP3    H153536   5.487   5.162   3.027  0.1380 -0.7116  1.7133
10707TIP3    H253537   5.337   5.155   3.013  0.1318  0.4864  1.0323
10708TIP3   OH253538   0.017   0.033   5.283  0.2419 -0.0824  0.2151
10708TIP3    H153539   0.071   0.090   5.229  0.0611  0.9314  1.0689
10708TIP3    H253540   0.025  -0.053   5.243  1.0801  0.4041 -0.6960
10709TIP3   OH253541   0.994   4.562   6.233  0.1562 -0.5005  0.3494
10709TIP3    H153542   0.966   4.473   6.256  0.3812 -0.7856 -0.4587
10709TIP3    H253543   1.090   4.555   6.225  0.1281 -0.3000 -0.1852
10710TIP3   OH253544   5.384   0.147  15.507  0.0169 -0.1922 -0.7098
10710TIP3    H153545   5.306   0.108  15.469 -0.9886  0.0043  1.0300
10710TIP3    H253546   5.417   0.081  15.568 -0.1098  0.5633  0.2082
10711TIP3   OH253547   5.627   1.059  12.507 -0.0897  0.0112  0.3543
10711TIP3    H153548   5.553   1.118  12.518 -0.4138 -0.2249 -0.4864
10711TIP3    H253549   5.590   0.971  12.518  0.1700 -0.0883  0.4550
10712TIP3   OH253550   3.552   2.458   0.964 -0.1617  0.0726 -0.4777
10712TIP3    H153551   3.554   2.478   1.058  0.3592  1.1762 -0.7146
10712TIP3    H253552   3.571   2.364   0.959 -1.3189 -0.2424  0.5863
10713TIP3   OH253553   6.751   0.053  15.475  0.1698 -0.3039 -0.0491
10713TIP3    H153554   6.750   0.135  15.524 -0.1056 -1.1643  1.4694
10713TIP3    H253555   6.729  -0.014  15.540 -0.1210 -1.5300 -1.3481
10714TIP3   OH253556   0.128   3.584   2.629  0.1660  0.1318 -0.2716
10714TIP3    H153557   0.154   3.550   2.544 -0.5553  0.3182 -0.5813
10714TIP3    H253558   0.077   3.513   2.668 -1.7251  0.9620 -1.1075
10715TIP3   OH253559   2.384   5.093  11.167 -0.7057  0.2456  0.3391
10715TIP3    H153560   2.458   5.136  11.211 -0.8122 -0.4150  1.1916
10715TIP3    H253561   2.415   5.079  11.077 -1.8952  5.3210 -1.2243
10716TIP3   OH253562   5.820   5.982   0.473 -0.2686 -0.1747  0.3136
10716TIP3    H153563   5.875   5.924   0.421  0.4721  0.6868  0.1001
10716TIP3    H253564   5.738   5.987   0.425 -0.7000 -1.7691  0.8296
10717TIP3   OH253565   5.171   2.921   2.439 -0.5883 -0.5100 -0.3637
10717TIP3    H153566   5.258   2.960   2.437 -1.2045  0.9293 -1.2321
10717TIP3    H253567   5.150   2.905   2.346 -1.4956 -0.2228 -0.2162
10718TIP3   OH253568   2.280   3.648   5.332 -0.4282 -0.5060 -0.0981
10718TIP3    H153569   2.316   3.612   5.250  0.6397 -0.4195  0.3171
10718TIP3    H253570   2.219   3.716   5.303  1.4077  0.9140 -0.8384
10719TIP3   OH253571   3.794   5.503  11.982  0.1826 -0.4237 -0.0657
10719TIP3    H153572   3.853   5.460  12.044  1.6692  0.4719 -0.7908
10719TIP3    H253573   3.788   5.593  12.012 -1.9973 -0.7976  0.7872
10720TIP3   OH253574   0.937   5.972  14.924 -0.0415 -0.5167 -0.3801
10720TIP3    H153575   1.006   5.907  14.916  2.4065  2.0148 -1.1908
10720TIP3    H253576   0.965   6.029  14.995 -0.5876  1.3156 -1.5609
10721TIP3   OH253577   5.775   0.217   4.730 -0.8645 -0.4248  0.2928
10721TIP3    H153578   5.731   0.264   4.659 -1.8567  0.2346  1.3178
10721TIP3    H253579   5.708   0.159   4.766  0.3260 -2.7527 -0.9570
10722TIP3   OH253580   5.893   6.456  10.406 -0.3258 -0.0102 -0.0857
10722TIP3    H153581   5.841   6.456  10.486 -2.0066  1.7226 -1.0917
10722TIP3    H253582   5.834   6.489  10.338  2.0617  2.1641 -1.3012
10723TIP3   OH253583   0.991   6.396  11.682  0.8583 -0.3673 -0.0543
10723TIP3    H153584   0.936   6.440  11.748  1.8729  3.3509 -1.4063
10723TIP3    H253585   0.963   6.305  11.684 -3.1791  0.6818  1.4640
10724TIP3   OH253586   5.299   1.395  10.730  0.0573  0.2753  0.1622
10724TIP3    H153587   5.253   1.478  10.745  2.6473  2.1989 -1.6681
10724TIP3    H253588   5.231   1.336  10.695 -1.4503  2.2762 -0.4618
10725TIP3   OH253589   3.284   3.082  15.737  0.1315  0.0634  0.1731
10725TIP3    H153590   3.224   3.116  15.803 -1.0045 -0.9940 -0.2783
10725TIP3    H253591   3.324   3.159  15.698 -1.4824  0.8403 -0.0241
10726TIP3   OH253592   3.219   5.210  15.631 -0.0074 -0.3235  0.3736
10726TIP3    H153593   3.284   5.140  15.631 -0.0025 -0.3184  0.4492
10726TIP3    H253594   3.270   5.290  15.619 -0.0035 -0.3224  0.3984
10727TIP3   OH253595   6.738   4.934  11.357  0.2706  0.2415  0.5026
10727TIP3    H153596   6.808   4.869  11.366  0.4327  0.4244  0.5712
10727TIP3    H253597   6.756   4.977  11.273 -0.2313 -0.2691  0.1327
10728TIP3   OH253598   0.018   1.666  12.019  0.0426  0.1769 -0.5974
10728TIP3    H153599   0.010   1.571  12.018 -0.7375  0.2296 -0.5202
10728TIP3    H253600   0.064   1.686  12.100 -0.7619 -0.0808 -0.0660
10729TIP3   OH253601   6.745   5.112   3.154  0.0601 -0.1716 -0.0312
10729TIP3    H153602   6.703   5.147   3.075  0.9553  0.2735 -0.3204
10729TIP3    H253603   6.759   5.188   3.209 -3.3369 -0.8025  1.9669
10730TIP3   OH253604   0.376   5.550  13.583  0.2417 -0.6292 -0.3662
10730TIP3    H153605   0.315   5.564  13.655  2.0716  0.1535  1.1172
10730TIP3    H253606   0.332   5.588  13.507 -1.6173 -1.2058  0.3603
10731TIP3   OH253607   5.768   5.048   0.631 -0.0245  0.1548 -0.3252
10731TIP3    H153608   5.761   5.095   0.548  0.1081  0.9190  0.0790
10731TIP3    H253609   5.818   4.969   0.610  1.7509  1.2949 -0.6226
10732TIP3   OH253610   4.757   2.409   2.501 -0.0664  0.1190  0.1853
10732TIP3    H153611   4.720   2.496   2.519  0.6524  0.5669 -0.4585
10732TIP3    H253612   4.762   2.368   2.587  2.0885  1.7420  0.9461
10733TIP3   OH253613   1.381   2.764  13.926 -0.7911  0.6586  0.0990
10733TIP3    H153614   1.323   2.840  13.927 -0.3505  1.0080  2.0723
10733TIP3    H253615   1.340   2.704  13.864 -1.9196  1.8906 -0.4110
10734TIP3   OH253616   3.421   5.639  11.711  0.0397  0.6496  0.0067
10734TIP3    H153617   3.433   5.612  11.802 -0.9735  0.4444  0.0915
10734TIP3    H253618   3.443   5.733  11.711 -0.2007  0.7131  0.5219
10735TIP3   OH253619   2.284   1.431  13.542 -0.3076  0.7044 -0.5951
10735TIP3    H153620   2.219   1.397  13.604  0.5104  0.0631 -0.0820
10735TIP3    H253621   2.231   1.468  13.471 -1.2456 -0.9201 -0.8016
10736TIP3   OH253622   1.284   2.161   3.613  0.2580  0.2165 -0.0831
10736TIP3    H153623   1.310   2.252   3.598 -0.5484  0.6304  0.8533
10736TIP3    H253624   1.297   2.118   3.528  1.7799  0.9024 -0.2336
10737TIP3   OH253625   1.588   4.368   5.375 -0.5908  0.4454  0.4056
10737TIP3    H153626   1.530   4.393   5.446  0.1940  1.7105  0.6223
10737TIP3    H253627   1.633   4.449   5.351  0.1131 -0.2363 -0.6472
10738TIP3   OH253628   1.022   5.165  14.061  0.4624 -0.0393 -0.2132
10738TIP3    H153629   0.966   5.183  14.136  1.8441 -0.3609  0.9220
10738TIP3    H253630   1.060   5.250  14.038  2.0579 -0.3328  1.1424
10739TIP3   OH253631   1.151   1.948  14.980  0.0017  0.7717  0.5797
10739TIP3    H153632   1.197   1.938  14.897  3.8368 -1.6409  2.6491
10739TIP3    H253633   1.092   1.873  14.984 -1.1504  1.5912 -0.3926
10740TIP3   OH253634   2.950   5.406   2.454  0.5114 -0.1428 -0.0908
10740TIP3    H153635   2.929   5.379   2.544  0.6182 -0.9058 -0.2916
10740TIP3    H253636   2.865   5.405   2.409  0.1696  1.8936  0.4044
10741TIP3   OH253637   4.110   2.679   4.620 -0.0696  0.4250  0.3643
10741TIP3    H153638   4.098   2.770   4.592 -0.4553 -0.2364 -1.7706
10741TIP3    H253639   4.202   2.660   4.600 -0.2463  0.0535 -0.0930
10742TIP3   OH253640   2.869   5.507  12.731  0.1862  0.4695 -0.3263
10742TIP3    H153641   2.945   5.536  12.782 -0.6613 -0.3337  1.5174
10742TIP3    H253642   2.834   5.433  12.781  0.2457 -1.5110 -3.0017
10743TIP3   OH253643   2.686   3.539   1.549  0.2226 -0.0012  0.4295
10743TIP3    H153644   2.737   3.479   1.603  0.8152  0.1371  0.0460
10743TIP3    H253645   2.641   3.596   1.611  0.9999  0.2459  0.7874
10744TIP3   OH253646   0.225   2.720  17.005 -0.0501 -0.3535  0.2933
10744TIP3    H153647   0.164   2.733  17.078 -1.6689  0.2271 -1.0883
10744TIP3    H253648   0.217   2.628  16.983  0.1593 -0.4488  0.6149
10745TIP3   OH253649   5.550   1.669   2.186 -0.1442  0.3555 -0.0307
10745TIP3    H153650   5.556   1.745   2.128 -3.0280 -0.1172 -1.1306
10745TIP3    H253651   5.509   1.703   2.266 -1.6508 -0.0187 -0.6119
10746TIP3   OH253652   3.597   5.544   2.118 -0.1475  0.5066 -0.6494
10746TIP3    H153653   3.657   5.493   2.173 -0.0645  1.5212  0.2505
10746TIP3    H253654   3.645   5.625   2.099 -1.1648  1.3101  0.0284
10747TIP3   OH253655   4.420   1.820   3.137 -0.4058 -0.3604 -0.4495
10747TIP3    H153656   4.453   1.740   3.097 -1.1241 -0.6440 -0.4873
10747TIP3    H253657   4.333   1.832   3.099 -0.8263 -0.2751  0.5186
10748TIP3   OH253658   0.368   4.213   1.369  0.4979 -1.2137 -0.1149
10748TIP3    H153659   0.415   4.234   1.289  1.0754 -1.0256  0.2692
10748TIP3    H253660   0.307   4.286   1.381 -1.1600 -2.2871 -1.5451
10749TIP3   OH253661   5.332   0.542  14.648  0.5027  0.2264 -0.0980
10749TIP3    H153662   5.315   0.507  14.736  3.2713 -0.0104  0.4449
10749TIP3    H253663   5.284   0.485  14.589 -1.6668  0.5628  1.2298
10750TIP3   OH253664   0.514   1.696   0.449  0.0570 -0.3314 -0.5211
10750TIP3    H153665   0.562   1.759   0.395 -1.1243  0.8516 -0.2504
10750TIP3    H253666   0.508   1.737   0.535  1.5810 -2.0269  0.4568
10751TIP3   OH253667   6.334   0.988  14.157 -0.2369  0.2883 -0.4010
10751TIP3    H153668   6.359   0.902  14.191  0.6925 -0.3630 -2.5314
10751TIP3    H253669   6.278   1.025  14.224  1.6240 -0.7646  1.8875
10752TIP3   OH253670   6.740   3.105   0.687  0.2824  0.6183  0.1816
10752TIP3    H153671   6.797   3.099   0.764  1.7535  1.0280 -0.8379
10752TIP3    H253672   6.655   3.075   0.718  1.8752 -3.8397  0.8540
10753TIP3   OH253673   0.984   3.586   2.630  0.0798 -0.4604 -0.1536
10753TIP3    H153674   0.903   3.601   2.581 -0.2017  1.3948  0.7741
10753TIP3    H253675   1.011   3.498   2.606  0.2057  0.4242 -3.9927
10754TIP3   OH253676   2.373   5.001  15.999  0.1299  0.3688 -0.4670
10754TIP3    H153677   2.279   4.986  15.996  0.1329  0.4996 -1.3653
10754TIP3    H253678   2.391   5.025  16.090 -0.6995  0.3462 -0.2936
10755TIP3   OH253679   5.084   1.272   3.439  0.0886  0.0289  0.5404
10755TIP3    H153680   5.138   1.351   3.441 -0.0588  0.1643 -0.5224
10755TIP3    H253681   5.055   1.265   3.349 -1.0210 -0.4926  0.9249
10756TIP3   OH253682   3.305   1.592   4.344  0.1545  0.5030  0.1379
10756TIP3    H153683   3.395   1.561   4.338 -0.8499 -2.5732 -0.6292
10756TIP3    H253684   3.263   1.534   4.407 -2.0276 -0.2732 -1.8594
10757TIP3   OH253685   2.053   1.481   5.988 -0.0108 -0.1779  0.2667
10757TIP3    H153686   2.048   1.557   6.047  1.7144  1.4146 -1.4859
10757TIP3    H253687   2.140   1.445   6.003 -0.8746 -1.9883  1.1921
10758TIP3   OH253688   4.801   4.410  15.618  0.3420 -1.1830 -0.3562
10758TIP3    H153689   4.728   4.444  15.669  1.6893  0.1933  0.7561
10758TIP3    H253690   4.791   4.315  15.622 -1.5674 -1.0360 -0.5835
10759TIP3   OH253691   2.998   2.501  12.290 -0.3445  0.7696 -0.8492
10759TIP3    H153692   3.071   2.460  12.245 -0.5674  0.8587 -1.2955
10759TIP3    H253693   2.937   2.429  12.308  0.3499  0.4893  0.5449
10760TIP3   OH253694   0.504   0.035  15.047 -1.1402 -0.4810  0.1742
10760TIP3    H153695   0.426   0.087  15.066 -1.8354 -1.1571 -0.7042
10760TIP3    H253696   0.502  -0.036  15.111 -0.4306  0.3090  1.0915
10761TIP3   OH253697   5.631   0.006  16.511 -0.1472 -0.2129 -0.4302
10761TIP3    H153698   5.542  -0.028  16.502  0.5568 -1.7086 -2.2849
10761TIP3    H253699   5.676  -0.059  16.565 -0.1825  0.6045  0.6110
10762TIP3   OH253700   2.237   0.832  12.013 -0.3723  0.3215 -0.4199
10762TIP3    H153701   2.219   0.765  12.079 -0.1808 -0.2753 -0.9631
10762TIP3    H253702   2.327   0.860  12.031 -0.8377  1.2810  0.5302
10763TIP3   OH253703   1.019   1.745   4.317  0.2921 -0.6641  0.0968
10763TIP3    H153704   0.944   1.758   4.259 -1.3995  0.2616  2.3348
10763TIP3    H253705   1.072   1.824   4.305 -1.1473  0.5529  1.2375
10764TIP3   OH253706   3.304   5.461   6.015 -0.2483 -0.0179 -0.1091
10764TIP3    H153707   3.267   5.376   6.038 -2.8875  1.4012  1.3243
10764TIP3    H253708   3.242   5.525   6.050  1.2611  2.5264 -1.7366
10765TIP3   OH253709   3.828   5.725   1.330  0.2544 -0.1853  0.2545
10765TIP3    H153710   3.921   5.749   1.336  0.5070 -1.0296 -0.1294
10765TIP3    H253711   3.782   5.808   1.331  1.1512  0.4399 -2.3509
10766TIP3   OH253712   1.549   4.199  14.488  0.5491 -0.1614 -0.1167
10766TIP3    H153713   1.561   4.293  14.503 -0.9634 -0.1185  1.0062
10766TIP3    H253714   1.580   4.185  14.399 -0.3138  1.6276 -0.7428
10767TIP3   OH253715   4.284   5.669   3.787 -0.5547  0.0261  0.0560
10767TIP3    H153716   4.295   5.723   3.865 -0.6141  1.0669 -0.6360
10767TIP3    H253717   4.328   5.587   3.808 -0.2840  0.4162  1.0562
10768TIP3   OH253718   0.374   5.925  14.500  0.5611 -0.0911 -0.2569
10768TIP3    H153719   0.283   5.952  14.495  0.5508 -0.0998 -0.1180
10768TIP3    H253720   0.420   5.999  14.541  0.7977  0.3362 -1.2726
10769TIP3   OH253721   0.103   0.740   3.403 -0.6080  0.1308  0.0846
10769TIP3    H153722   0.101   0.789   3.485  2.2383  2.1606 -0.8868
10769TIP3    H253723   0.177   0.680   3.412 -0.2440  0.3997 -0.9696
10770TIP3   OH253724   3.968   1.536   0.878 -0.2635 -0.0623 -0.6101
10770TIP3    H153725   3.953   1.597   0.951 -0.1921 -0.5424 -0.1935
10770TIP3    H253726   4.015   1.463   0.917 -1.9462 -1.2574 -0.7062
10771TIP3   OH253727   2.446   3.191  10.455 -0.6471 -0.0097 -0.5545
10771TIP3    H153728   2.410   3.183  10.543  0.9318  1.0816  0.2376
10771TIP3    H253729   2.371   3.174  10.397 -2.2790  1.4114  0.9905
10772TIP3   OH253730   1.520   0.123   2.909  0.0885  0.0517 -0.0749
10772TIP3    H153731   1.440   0.137   2.960 -0.6982  0.5928 -1.4239
10772TIP3    H253732   1.490   0.102   2.821  1.4364  0.1832 -0.5915
10773TIP3   OH253733   5.132   6.566  15.202  0.0458  0.2958 -0.8540
10773TIP3    H153734   5.174   6.480  15.213 -0.8040  0.0331  0.5187
10773TIP3    H253735   5.091   6.562  15.116  1.3832 -0.0544 -1.5129
10774TIP3   OH253736   0.008   0.207  14.663 -0.2238  0.0469  0.4279
10774TIP3    H153737  -0.066   0.180  14.610  0.8255  0.7429 -1.4768
10774TIP3    H253738   0.063   0.258  14.604  2.4629 -1.5724  1.3326
10775TIP3   OH253739   4.920   2.153  10.957  0.1576 -0.3377 -0.3155
10775TIP3    H153740   4.974   2.086  11.000 -0.3806 -2.4830 -2.7378
10775TIP3    H253741   4.918   2.226  11.020  2.2420 -1.8608  1.7069
10776TIP3   OH253742   6.262   2.107   3.197  0.4465  1.0047 -0.6861
10776TIP3    H153743   6.257   2.083   3.289 -0.1446  0.3179 -0.8918
10776TIP3    H253744   6.172   2.130   3.172  0.4680  0.4737 -1.2764
10777TIP3   OH253745   3.223   0.540   5.838 -0.3954 -0.8399  0.3460
10777TIP3    H153746   3.317   0.519   5.842 -0.5024 -1.4075 -0.0304
10777TIP3    H253747   3.189   0.485   5.768 -0.6157  0.9378 -1.0364
10778TIP3   OH253748   5.953   3.632  15.390  0.0976  0.8107  0.2728
10778TIP3    H153749   6.017   3.673  15.332 -0.4024  0.0906 -0.8178
10778TIP3    H253750   6.004   3.571  15.444  0.0420 -2.9660 -3.3931
10779TIP3   OH253751   1.752   5.640  13.072  0.1750  0.1573 -0.3440
10779TIP3    H153752   1.697   5.631  13.150  0.0940 -1.0740 -0.5254
10779TIP3    H253753   1.750   5.734  13.052 -2.6281  0.0889 -0.8677
10780TIP3   OH253754   3.265   5.377  12.877  0.4525  0.0905  0.0448
10780TIP3    H153755   3.289   5.367  12.784  1.7711 -0.7927  0.4528
10780TIP3    H253756   3.336   5.334  12.925 -0.8103 -0.5205  1.4398
10781TIP3   OH253757   1.356   3.940   0.055 -0.3283 -0.2206  0.0975
10781TIP3    H153758   1.308   3.966   0.134 -1.2290 -3.7400  0.8818
10781TIP3    H253759   1.399   3.858   0.079  1.4778 -0.1023 -2.3590
10782TIP3   OH253760   6.783   1.988   3.829 -0.5783  0.3709  0.2722
10782TIP3    H153761   6.806   1.896   3.816 -1.4803  0.2078 -0.2754
10782TIP3    H253762   6.860   2.037   3.803  0.0131 -0.2394  0.8399
10783TIP3   OH253763   0.754   5.591   0.479  0.1360 -0.1569  0.1678
10783TIP3    H153764   0.826   5.575   0.539  0.3405 -0.3155 -0.1199
10783TIP3    H253765   0.796   5.606   0.394 -0.1766 -0.4596 -0.0436
10784TIP3   OH253766   5.847   5.083   1.378 -0.0621 -0.7565  0.0909
10784TIP3    H153767   5.896   5.138   1.317 -0.7634  1.3708  1.3659
10784TIP3    H253768   5.879   4.994   1.361  2.2183  0.2047 -0.9881
10785TIP3   OH253769   4.093   6.391   1.532 -0.4649  0.1078 -0.0076
10785TIP3    H153770   4.180   6.358   1.511 -0.5912 -0.5451  0.4645
10785TIP3    H253771   4.066   6.439   1.454  0.3938  0.4816 -0.0833
10786TIP3   OH253772   1.492   3.886   1.242  0.3518 -0.5424 -0.4520
10786TIP3    H153773   1.562   3.851   1.297 -0.3139  1.0530  1.5249
10786TIP3    H253774   1.464   3.966   1.286 -0.6245  0.5463 -2.8482
10787TIP3   OH253775   2.917   3.266  17.030 -0.2252 -0.0842 -0.1411
10787TIP3    H153776   3.005   3.275  17.068  0.0184  1.9820 -1.0722
10787TIP3    H253777   2.875   3.350  17.047 -2.6985 -1.5723  1.7470
10788TIP3   OH253778   3.947   0.111  13.810 -0.2533 -0.0459 -0.5946
10788TIP3    H153779   4.038   0.085  13.826 -1.2042 -3.5032 -0.0206
10788TIP3    H253780   3.904   0.101  13.895 -0.9315  3.2704 -0.4138
10789TIP3   OH253781   5.626   4.375  12.108  0.3883 -0.0466  0.2672
10789TIP3    H153782   5.567   4.429  12.056  1.3389 -0.1123 -0.9263
10789TIP3    H253783   5.587   4.287  12.106 -0.5397  0.3209  1.2351
10790TIP3   OH253784   2.581   1.629  16.701 -0.3708  0.2484 -0.2149
10790TIP3    H153785   2.498   1.670  16.724 -0.3010  0.1252  0.2554
10790TIP3    H253786   2.569   1.599  16.611 -1.0498 -0.3357  0.0694
10791TIP3   OH253787   1.763   2.502   2.412 -0.5408  0.0130  0.5876
10791TIP3    H153788   1.810   2.547   2.342 -2.6538 -0.1287 -1.0364
10791TIP3    H253789   1.831   2.473   2.472  1.1412  2.6239  0.0997
10792TIP3   OH253790   0.914   6.291   5.235  0.2192 -0.4732 -0.6508
10792TIP3    H153791   0.938   6.245   5.154 -0.4234 -1.2084 -0.4399
10792TIP3    H253792   0.922   6.224   5.303  0.5571  0.0862 -0.1295
10793TIP3   OH253793   3.643   1.123  12.108  0.0195 -0.3447  0.6285
10793TIP3    H153794   3.587   1.045  12.118 -1.4804  0.7007  0.7065
10793TIP3    H253795   3.607   1.168  12.031  0.1862  0.8077  1.2057
10794TIP3   OH253796   6.321   4.865  14.562 -0.5102  0.2019 -0.0574
10794TIP3    H153797   6.242   4.819  14.534  1.3151 -2.7338 -0.9443
10794TIP3    H253798   6.338   4.929  14.493 -1.9741  0.7477  0.0640
10795TIP3   OH253799   0.168   2.178  13.403 -0.5191  0.1949  0.2372
10795TIP3    H153800   0.106   2.234  13.449  0.9675  1.4300  0.8347
10795TIP3    H253801   0.132   2.090  13.412 -1.1977  0.6283  2.2889
10796TIP3   OH253802   5.456   4.818   1.061 -0.0883 -0.1390  0.4856
10796TIP3    H153803   5.422   4.845   1.146 -0.4029 -0.9235  0.6213
10796TIP3    H253804   5.545   4.788   1.080  0.9633  2.4590  0.0373
10797TIP3   OH253805   0.868   0.471   0.036 -0.0929  0.7521  0.1696
10797TIP3    H153806   0.811   0.408   0.079  2.2135  0.1602  2.6058
10797TIP3    H253807   0.931   0.418  -0.013 -0.9263  1.3718 -1.6742
10798TIP3   OH253808   3.010   3.122   5.522  0.3786  0.0375  0.1322
10798TIP3    H153809   2.991   3.211   5.494 -1.3839  0.1530  1.5413
10798TIP3    H253810   2.983   3.067   5.448 -0.8104  0.5446  0.1691
10799TIP3   OH253811   0.753   2.013   1.540  0.7611 -0.0504 -0.6241
10799TIP3    H153812   0.770   1.935   1.487  1.0590 -0.1565 -0.3745
10799TIP3    H253813   0.673   2.051   1.502 -0.5873 -1.5919  0.5123
10800TIP3   OH253814   2.648   0.290  11.233 -0.6486 -0.3255  0.0476
10800TIP3    H153815   2.561   0.304  11.196 -0.2896 -1.2324 -1.1918
10800TIP3    H253816   2.692   0.232  11.171  0.5929 -0.4793  1.0249
10801TIP3   OH253817   3.210   6.415   0.998 -0.4468 -0.0496  0.1128
10801TIP3    H153818   3.123   6.443   0.970  0.5454  1.9994 -1.1278
10801TIP3    H253819   3.251   6.495   1.032  0.5575 -1.2249  1.8254
10802TIP3   OH253820   3.310   4.847  16.406 -0.7412 -0.0005 -0.1893
10802TIP3    H153821   3.246   4.908  16.368 -1.0969 -0.5615 -0.4930
10802TIP3    H253822   3.333   4.887  16.490 -0.1057  1.1381 -0.8915
10803TIP3   OH253823   5.524   3.159   3.828  0.1364  0.4946  0.0951
10803TIP3    H153824   5.568   3.074   3.832 -2.3686 -1.0313 -1.5851
10803TIP3    H253825   5.543   3.200   3.913 -0.7446 -2.9286  2.1446
10804TIP3   OH253826   3.863   4.130   5.144  0.2100  0.5131  0.1099
10804TIP3    H153827   3.797   4.168   5.086  0.4251  0.8443  0.0831
10804TIP3    H253828   3.849   4.036   5.137  1.5995  0.3855 -2.1551
10805TIP3   OH253829   0.856   5.551   3.859  0.0035  0.5756  0.8248
10805TIP3    H153830   0.851   5.641   3.826 -0.1472  0.0293 -0.7347
10805TIP3    H253831   0.823   5.498   3.787  1.2045 -0.8321  1.2736
10806TIP3   OH253832   0.449   5.421   2.408  0.4584 -0.3199  0.4622
10806TIP3    H153833   0.355   5.437   2.408  0.4775 -0.1945  0.9251
10806TIP3    H253834   0.487   5.495   2.455  0.8499 -0.0664 -0.2209
10807TIP3   OH253835   0.247   2.441  10.393  0.2985 -0.0264  0.5354
10807TIP3    H153836   0.205   2.382  10.331 -0.7143  0.9175  0.2900
10807TIP3    H253837   0.178   2.462  10.456  0.9910 -0.0568  1.3142
10808TIP3   OH253838   4.002   5.951   1.423 -0.4293  0.0580 -0.3729
10808TIP3    H153839   4.080   5.917   1.379  0.1272  1.3366 -0.4101
10808TIP3    H253840   4.029   5.960   1.515 -0.2155  1.3231 -0.5345
10809TIP3   OH253841   0.410   4.591  16.901  0.2204 -0.1066 -0.1475
10809TIP3    H153842   0.350   4.658  16.931 -1.0949 -0.8439 -1.0357
10809TIP3    H253843   0.355   4.528  16.854  1.3566 -1.8985  0.7942
10810TIP3   OH253844   0.383   5.738  15.624  0.4873  0.0034 -0.7175
10810TIP3    H153845   0.321   5.789  15.676  1.1850 -1.4362  1.7254
10810TIP3    H253846   0.468   5.778  15.641  0.7814 -0.7401 -0.3651
10811TIP3   OH253847   4.669   1.612  12.786  0.0770 -0.2273 -0.4132
10811TIP3    H153848   4.604   1.542  12.777 -0.2318 -0.1243  0.8424
10811TIP3    H253849   4.750   1.572  12.754 -0.3736 -0.7051 -1.0021
10812TIP3   OH253850   1.930   4.408  16.739 -0.7765  0.3834 -0.8188
10812TIP3    H153851   1.938   4.380  16.829  0.0560  1.1648 -0.6331
10812TIP3    H253852   1.975   4.341  16.688  0.1284  0.7380 -0.4991
10813TIP3   OH253853   0.271   5.678   4.708 -0.9194  0.2513  0.0587
10813TIP3    H153854   0.295   5.761   4.667 -0.7793  0.3015  0.2436
10813TIP3    H253855   0.299   5.687   4.799  0.3707 -0.5118 -0.2322
10814TIP3   OH253856   0.289   0.132   0.738  0.0570 -0.0977 -0.3448
10814TIP3    H153857   0.261   0.041   0.736 -0.0334 -0.0690 -0.3879
10814TIP3    H253858   0.383   0.129   0.719  0.1982 -0.2436  0.3349
10815TIP3   OH253859   0.543   0.700   1.340 -0.5797 -0.5215  0.2477
10815TIP3    H153860   0.459   0.656   1.354 -1.0792  0.0049 -0.9198
10815TIP3    H253861   0.523   0.793   1.351 -0.3352 -0.3297 -0.7609
10816TIP3   OH253862   4.312   0.942  16.704  0.1194 -0.7176  0.0187
10816TIP3    H153863   4.304   0.914  16.796  0.4378 -1.5388 -0.1881
10816TIP3    H253864   4.240   0.897  16.660 -1.6621  1.6959  0.2719
10817TIP3   OH253865   6.489   4.752  16.871  0.0975  0.2397  0.1628
10817TIP3    H153866   6.537   4.797  16.801  1.2433 -2.1726 -0.6994
10817TIP3    H253867   6.425   4.697  16.825 -0.8106  0.4399  1.1428
10818TIP3   OH253868   6.342   5.705   1.745 -0.7473  0.1001  0.1332
10818TIP3    H153869   6.346   5.609   1.742 -2.2553 -0.0045  0.6741
10818TIP3    H253870   6.318   5.730   1.656 -0.2054 -0.0125 -0.0464
10819TIP3   OH253871   4.314   1.724  14.273 -0.2720 -0.2220  0.4410
10819TIP3    H153872   4.230   1.768  14.256 -0.3681 -0.2423  0.8555
10819TIP3    H253873   4.346   1.699  14.186 -0.6015 -0.0391  0.2657
10820TIP3   OH253874   5.808   6.548  10.770  0.1030  0.4680 -0.0353
10820TIP3    H153875   5.813   6.608  10.696  0.6456 -0.0927 -0.4669
10820TIP3    H253876   5.764   6.470  10.736  1.3938 -0.2643 -0.1226
10821TIP3   OH253877   1.875   2.471   1.988 -0.2497  0.1300  0.2704
10821TIP3    H153878   1.927   2.449   1.911  0.6174  1.6717  0.3794
10821TIP3    H253879   1.811   2.535   1.956  0.6878  1.4602  0.9721
10822TIP3   OH253880   4.943   0.727  16.056  0.4959 -0.8616  0.1283
10822TIP3    H153881   4.941   0.703  16.149 -0.5834  2.0431  0.9601
10822TIP3    H253882   4.854   0.707  16.025 -0.4746  1.8773  0.8778
10823TIP3   OH253883   5.869   5.507  14.879  0.3321  0.5957  0.1661
10823TIP3    H153884   5.819   5.534  14.956  0.3692 -1.8351  1.1268
10823TIP3    H253885   5.808   5.457  14.827  0.7813  0.7761 -0.5453
10824TIP3   OH253886   5.011   4.046  11.306 -0.2175 -0.0144 -0.2312
10824TIP3    H153887   4.957   4.041  11.385 -0.4343 -2.9395 -0.4524
10824TIP3    H253888   5.061   4.127  11.316 -1.6008  0.6640  1.9642
10825TIP3   OH253889   1.692   3.745  16.715  0.4256 -0.5797 -0.3652
10825TIP3    H153890   1.680   3.828  16.761 -0.1726 -0.9435  0.1707
10825TIP3    H253891   1.758   3.698  16.767 -0.2420 -0.9863  0.1425
10826TIP3   OH253892   0.022   6.683  16.684 -0.2943 -0.7160 -0.4936
10826TIP3    H153893   0.060   6.614  16.630  1.6204  0.0410 -0.2200
10826TIP3    H253894   0.086   6.695  16.755 -0.5079  1.3539 -0.5898
10827TIP3   OH253895   2.531   5.302   1.988 -0.3517  0.0280 -0.3982
10827TIP3    H153896   2.627   5.305   1.989 -0.2840 -1.3954 -0.3968
10827TIP3    H253897   2.506   5.316   2.079  0.0085 -2.0658  0.0914
10828TIP3   OH253898   2.822   3.459   3.592  0.0146 -0.2369 -0.1876
10828TIP3    H153899   2.776   3.410   3.660 -1.5971 -0.3005 -1.2835
10828TIP3    H253900   2.865   3.530   3.639 -1.6448  0.1324  0.8416
10829TIP3   OH253901   5.112   5.933   5.313 -0.4224  0.5099 -0.4596
10829TIP3    H153902   5.044   5.991   5.348  0.2398 -0.0103  1.9003
10829TIP3    H253903   5.194   5.973   5.340  0.0600 -1.5025  1.4014
10830TIP3   OH253904   2.457   5.410   3.859  0.4408  0.6577  0.3502
10830TIP3    H153905   2.482   5.411   3.767 -0.2478  2.5900  0.1341
10830TIP3    H253906   2.376   5.360   3.861  1.3611 -0.8829  0.2037
10831TIP3   OH253907   0.546   5.347  13.816 -0.0115 -0.1504  0.0409
10831TIP3    H153908   0.591   5.276  13.861 -0.2786  0.0915  0.7067
10831TIP3    H253909   0.538   5.318  13.726  0.3537 -0.7346  0.1951
10832TIP3   OH253910   4.201   5.614  12.542  0.3162  0.2435 -0.2760
10832TIP3    H153911   4.282   5.658  12.568  0.0209  0.5990  0.0324
10832TIP3    H253912   4.205   5.529  12.587  0.4620  0.3040 -0.1723
10833TIP3   OH253913   3.869   4.987  10.926 -0.3577  0.2181  0.1499
10833TIP3    H153914   3.822   5.061  10.887  0.3002  0.1978 -0.6871
10833TIP3    H253915   3.928   4.956  10.858 -0.7568 -1.2148  0.4198
10834TIP3   OH253916   2.472   4.212   4.807 -0.3459  0.0955 -0.3746
10834TIP3    H153917   2.493   4.143   4.744  0.0656  0.0542 -0.1975
10834TIP3    H253918   2.528   4.285   4.782  0.0724 -0.0388  0.1483
10835TIP3   OH253919   5.421   5.033   3.439 -0.0383 -0.2109  0.0209
10835TIP3    H153920   5.503   5.051   3.393  0.7125 -1.8572  0.6519
10835TIP3    H253921   5.367   5.110   3.421  1.7058  1.0207 -0.2203
10836TIP3   OH253922   5.178   2.274   0.980 -0.1879  0.4837 -0.0558
10836TIP3    H153923   5.144   2.222   1.053  2.6201 -0.7347  0.5191
10836TIP3    H253924   5.124   2.352   0.978 -0.5936  0.3899  3.1240
10837TIP3   OH253925   2.056   4.689   1.008 -0.3878 -0.3976  0.4213
10837TIP3    H153926   2.049   4.607   0.959 -0.5654  0.2276 -0.6296
10837TIP3    H253927   2.136   4.680   1.059 -0.8203 -1.5381  0.9266
10838TIP3   OH253928   4.303   3.631   1.131  0.4034 -0.5170 -0.4539
10838TIP3    H153929   4.364   3.702   1.112 -0.0537  0.3239  1.0696
10838TIP3    H253930   4.243   3.631   1.056 -0.5707  1.8266  0.2160
10839TIP3   OH253931   3.744   2.875   0.053 -0.2939  0.5734  0.9382
10839TIP3    H153932   3.834   2.907   0.059  0.4161 -1.5127  2.7634
10839TIP3    H253933   3.744   2.819  -0.025  0.2197 -0.0624  1.3912
10840TIP3   OH253934   5.732   6.296  16.906 -0.6425  0.7223 -0.3870
10840TIP3    H153935   5.722   6.392  16.908  1.0070  0.9373 -0.9219
10840TIP3    H253936   5.819   6.282  16.869 -0.2190 -0.9578  1.1240
10841TIP3   OH253937   4.326   4.015   4.177  0.1477  0.1930 -0.3333
10841TIP3    H153938   4.281   3.938   4.143  0.9742  0.3220 -1.8382
10841TIP3    H253939   4.283   4.089   4.134 -1.3968  0.7372  1.9475
10842TIP3   OH253940   2.626   3.634  10.807 -0.1234  0.4948  0.0286
10842TIP3    H153941   2.668   3.607  10.725 -3.7884 -1.6881 -1.3614
10842TIP3    H253942   2.571   3.708  10.781 -1.4474 -0.3282  0.4021
10843TIP3   OH253943   1.253   1.867  11.633  0.7195 -0.6306 -0.6165
10843TIP3    H153944   1.265   1.919  11.553 -0.1236 -1.6410 -1.4407
10843TIP3    H253945   1.187   1.917  11.683  1.8080  0.4004 -0.1643
10844TIP3   OH253946   0.414   5.915   2.005 -0.1083 -0.2315  0.6766
10844TIP3    H153947   0.502   5.914   1.967 -0.6171  1.0832 -0.6548
10844TIP3    H253948   0.399   5.825   2.035  1.8831 -0.3436  1.4663
10845TIP3   OH253949   5.203   0.530   2.341  0.3003  0.2248  0.1706
10845TIP3    H153950   5.179   0.547   2.433  2.3740 -1.3145  1.0544
10845TIP3    H253951   5.138   0.466   2.311 -0.4190  0.7685  0.5169
10846TIP3   OH253952   5.906   1.436  11.127  0.1343  0.6613  0.4247
10846TIP3    H153953   5.894   1.419  11.033  0.6761 -2.0924  0.7555
10846TIP3    H253954   5.993   1.476  11.133 -0.2145  1.5577 -0.2915
10847TIP3   OH253955   2.707   3.277   3.148  0.0032 -0.1538  0.2191
10847TIP3    H153956   2.771   3.235   3.090  0.5344  0.9624 -0.0224
10847TIP3    H253957   2.740   3.260   3.236  0.5368  0.2501  0.1009
10848TIP3   OH253958   4.666   2.306  14.405 -0.3585 -0.0613  0.0685
10848TIP3    H153959   4.752   2.327  14.368 -0.6922 -1.3053 -1.4864
10848TIP3    H253960   4.604   2.355  14.352 -0.6969  0.1045  0.6060
10849TIP3   OH253961   1.087   6.451   2.373 -0.0972 -0.6251  0.3177
10849TIP3    H153962   1.161   6.487   2.324  0.8097 -0.7552  1.5504
10849TIP3    H253963   1.087   6.500   2.455  0.1329 -2.2470  1.3324
10850TIP3   OH253964   4.789   3.933  13.989  0.7525 -0.2923  0.1525
10850TIP3    H153965   4.747   4.016  13.965  2.5382  0.8782  0.8702
10850TIP3    H253966   4.842   3.911  13.913 -0.9672 -1.7211 -0.7168
10851TIP3   OH253967   6.247   2.843   3.895 -0.2630 -0.2437  0.3497
10851TIP3    H153968   6.158   2.808   3.897 -0.1808 -0.5786 -0.9903
10851TIP3    H253969   6.248   2.909   3.965 -1.6743  0.0404  0.1331
10852TIP3   OH253970   0.054   5.932   3.848  0.1139 -0.5323  0.2780
10852TIP3    H153971   0.033   5.855   3.901  1.4378 -1.1033 -0.0038
10852TIP3    H253972   0.073   6.000   3.912 -0.2655 -0.6572  0.5298
10853TIP3   OH253973   0.759   4.914   4.441  0.0714  0.1832  0.1734
10853TIP3    H153974   0.724   4.881   4.523  1.7428  0.5179  1.0628
10853TIP3    H253975   0.772   4.836   4.387 -0.8946 -0.0506  0.2589
10854TIP3   OH253976   3.483   1.346  10.329  0.4500  0.0051  0.3607
10854TIP3    H153977   3.577   1.340  10.345  0.1283 -0.5935  2.2860
10854TIP3    H253978   3.464   1.272  10.271  0.5642 -2.5460  3.3470
10855TIP3   OH253979   3.823   2.813  15.336  0.3816 -0.1543 -0.4514
10855TIP3    H153980   3.785   2.884  15.284  0.6629  0.5434  0.2725
10855TIP3    H253981   3.821   2.737  15.278 -0.5545  0.2781 -1.0039
10856TIP3   OH253982   4.414   4.427   4.847  0.4171 -0.1609 -0.1997
10856TIP3    H153983   4.485   4.490   4.841  2.0356 -1.8666  0.2700
10856TIP3    H253984   4.344   4.465   4.793  1.8305  1.3429 -1.0707
10857TIP3   OH253985   1.911   6.542  14.881 -0.0544  0.2980 -0.0830
10857TIP3    H153986   1.821   6.546  14.848  0.4815 -0.4340 -1.7482
10857TIP3    H253987   1.943   6.632  14.873 -0.3953  0.4108 -0.2122
10858TIP3   OH253988   3.913   2.352   1.335  0.3216 -0.5799  0.1560
10858TIP3    H153989   3.839   2.376   1.389  0.9772 -1.5509  1.5499
10858TIP3    H253990   3.981   2.327   1.397  0.3845 -3.9372 -1.0577
10859TIP3   OH253991   6.584   5.737  16.881  0.1803 -0.7187  0.0889
10859TIP3    H153992   6.593   5.667  16.817  0.3551 -0.2588 -0.3958
10859TIP3    H253993   6.503   5.781  16.857 -1.7788 -2.7679  2.3933
10860TIP3   OH253994   1.671   6.681   1.108 -0.1015  0.2419  0.3554
10860TIP3    H153995   1.698   6.609   1.051 -1.4712 -0.5458  0.6593
10860TIP3    H253996   1.646   6.751   1.047 -3.0733 -1.1388 -0.1671
10861TIP3   OH253997   3.236   0.514   5.439 -0.3558 -0.2253  0.0747
10861TIP3    H153998   3.226   0.456   5.364  0.0648  1.2685 -1.1738
10861TIP3    H253999   3.322   0.493   5.475  0.7983  1.1194 -1.7492
10862TIP3   OH254000   2.737   4.176  15.198  0.2748  0.0605 -0.1229
10862TIP3    H154001   2.764   4.268  15.204 -0.3010  0.1485  2.5164
10862TIP3    H254002   2.654   4.179  15.150  0.7115  0.7788 -0.8723
10863TIP3   OH254003   1.602   3.863   3.315 -0.3910  0.6868 -0.6511
10863TIP3    H154004   1.542   3.790   3.319 -0.5446  0.8446  1.8821
10863TIP3    H254005   1.689   3.823   3.317 -0.4573  0.5374 -0.7787
10864TIP3   OH254006   3.035   2.085  15.266 -0.0903  0.4472 -0.6424
10864TIP3    H154007   2.947   2.119  15.279 -0.2838  1.3769 -3.7069
10864TIP3    H254008   3.022   2.000  15.224  0.5057 -0.6630  1.2899
10865TIP3   OH254009   6.079   4.643  15.075 -0.5257 -0.0028  0.3278
10865TIP3    H154010   6.014   4.604  15.134 -0.2876 -0.0415  0.5701
10865TIP3    H254011   6.155   4.585  15.083 -0.4071  0.1316  0.1681
10866TIP3   OH254012   4.703   2.197  13.102 -0.1043 -0.6410  0.0828
10866TIP3    H154013   4.751   2.129  13.055  0.4796 -0.7495  0.8252
10866TIP3    H254014   4.646   2.236  13.035  0.7945 -0.7084 -0.7483
10867TIP3   OH254015   3.410   0.796   5.577  0.2875 -0.1663  0.2000
10867TIP3    H154016   3.317   0.795   5.556  0.1026 -4.8455  0.2932
10867TIP3    H254017   3.453   0.791   5.491  0.3266 -0.6837  0.2488
10868TIP3   OH254018   5.845   3.979   4.256 -0.2560  0.4192 -0.7443
10868TIP3    H154019   5.856   4.074   4.260 -0.4089  0.4019  0.8731
10868TIP3    H254020   5.931   3.946   4.230  0.2268  0.9362  0.1327
10869TIP3   OH254021   4.944   1.213  15.241  0.3445  0.0191 -0.4879
10869TIP3    H154022   4.951   1.163  15.159 -0.5162 -0.2124 -0.4289
10869TIP3    H254023   4.970   1.150  15.309 -0.8058 -0.3899 -0.4069
10870TIP3   OH254024   6.383   6.736  14.792  0.5947  0.3506 -0.3391
10870TIP3    H154025   6.476   6.730  14.814  0.5687  0.8441 -0.0821
10870TIP3    H254026   6.369   6.665  14.729  0.9606 -0.2344  0.2255
10871TIP3   OH254027   4.202   1.327   5.281 -0.7634  0.1389 -0.6250
10871TIP3    H154028   4.184   1.338   5.188  0.6138 -2.0180 -1.1974
10871TIP3    H254029   4.257   1.402   5.304 -1.8268  1.1586 -1.2895
10872TIP3   OH254030   5.691   5.588   3.804 -0.4741  0.0039 -0.2020
10872TIP3    H154031   5.667   5.567   3.714  0.0058 -1.1529 -0.0693
10872TIP3    H254032   5.703   5.504   3.846 -0.4746  0.5391  0.8977
10873TIP3   OH254033   3.858   3.123   0.981 -0.1116  0.2382 -0.5851
10873TIP3    H154034   3.897   3.210   0.981  1.6438 -0.4858 -1.5149
10873TIP3    H254035   3.809   3.120   0.898 -1.0676  0.6865 -0.0496
10874TIP3   OH254036   6.052   6.729   0.674  0.0631  0.0151 -0.0164
10874TIP3    H154037   6.121   6.709   0.738  2.3295  1.3955 -1.8834
10874TIP3    H254038   6.044   6.824   0.676  2.3728  0.4935 -3.6815
10875TIP3   OH254039   0.126   5.522   0.883 -0.2321  0.2790 -0.7104
10875TIP3    H154040   0.096   5.557   0.799 -0.0403  0.7865 -0.5714
10875TIP3    H254041   0.201   5.467   0.861  1.1976  2.1279 -0.6751
10876TIP3   OH254042   1.795   1.590   0.121 -0.4902  0.2584  0.2868
10876TIP3    H154043   1.707   1.623   0.101 -0.0435  2.0262  1.0168
10876TIP3    H254044   1.837   1.662   0.168  1.6182 -0.2540 -0.6871
10877TIP3   OH254045   2.729   6.100  14.867  0.3584 -0.1833  0.3420
10877TIP3    H154046   2.711   6.052  14.947 -1.1351 -3.2898 -1.6512
10877TIP3    H254047   2.818   6.074  14.843 -0.4085 -2.1013 -0.6781
10878TIP3   OH254048   4.972   5.077   1.390  0.0808  0.6088 -0.0171
10878TIP3    H154049   5.010   5.011   1.447  0.7434  0.5379 -0.5315
10878TIP3    H254050   4.884   5.045   1.370  0.1153  0.2775  0.3656
10879TIP3   OH254051   6.510   0.624   3.371 -0.8335  0.3638 -0.4525
10879TIP3    H154052   6.506   0.718   3.392 -2.4376  0.4756 -1.1113
10879TIP3    H254053   6.566   0.620   3.293  0.9855  0.4928  0.7683
10880TIP3   OH254054   1.692   3.387   0.931 -0.2203  0.1601 -0.3176
10880TIP3    H154055   1.597   3.379   0.924 -0.2570 -0.8744  0.8316
10880TIP3    H254056   1.710   3.372   1.024  1.1778 -1.1797 -0.7492
10881TIP3   OH254057   3.297   4.778   2.343  0.0114  0.6483  0.3987
10881TIP3    H154058   3.390   4.757   2.350 -0.0844  0.4584  1.1932
10881TIP3    H254059   3.294   4.874   2.344  0.2575  0.6694 -0.5367
10882TIP3   OH254060   0.084   4.448   0.848 -0.9413 -0.3043 -0.3501
10882TIP3    H154061   0.104   4.388   0.777 -0.0037  0.4663 -0.7617
10882TIP3    H254062   0.117   4.405   0.927  1.3609  0.4110 -0.8628
10883TIP3   OH254063   4.935   1.530   4.223  0.7557  0.0777  0.4437
10883TIP3    H154064   4.962   1.616   4.254  1.7370 -0.5320  1.3511
10883TIP3    H254065   4.948   1.472   4.298 -3.2653 -0.3292  1.1014
10884TIP3   OH254066   2.850   1.395  10.462  0.1250  0.0761  0.6894
10884TIP3    H154067   2.897   1.349  10.532  0.6087 -0.3461  0.0945
10884TIP3    H254068   2.917   1.447  10.418  0.3053 -1.3552 -0.8487
10885TIP3   OH254069   6.178   5.427   4.277  0.0244  0.3911 -0.1872
10885TIP3    H154070   6.182   5.456   4.186 -0.2291  0.5640 -0.1435
10885TIP3    H254071   6.268   5.435   4.309  0.1824  0.0064 -0.5209
10886TIP3   OH254072   3.308   5.603   6.458  0.1013 -0.6711  0.2854
10886TIP3    H154073   3.219   5.633   6.477  0.5585  1.2434 -0.4059
10886TIP3    H254074   3.323   5.628   6.367  0.9020 -2.1878 -0.0403
10887TIP3   OH254075   0.533   6.139  15.074 -0.2201 -0.0875  0.4322
10887TIP3    H154076   0.448   6.183  15.074 -0.3780 -0.3790  1.0956
10887TIP3    H254077   0.528   6.078  15.000 -0.4130  0.2167  0.1903
10888TIP3   OH254078   2.718   3.791   3.273  0.0965 -0.5795 -0.2636
10888TIP3    H154079   2.807   3.826   3.277 -0.6833  1.4743  1.4896
10888TIP3    H254080   2.700   3.782   3.179  1.4356  0.9358 -0.7161
10889TIP3   OH254081   4.560   2.342  13.384  0.1971 -0.1855  0.3112
10889TIP3    H154082   4.485   2.283  13.374  0.3130 -0.5608  1.4744
10889TIP3    H254083   4.629   2.286  13.420  0.8603  0.2824 -0.2161
10890TIP3   OH254084   3.901   0.786   3.351  0.6268  0.2203 -0.0549
10890TIP3    H154085   3.975   0.776   3.411 -0.0196  2.9320  1.3497
10890TIP3    H254086   3.854   0.863   3.383 -1.4788  0.0099 -2.3182
10891TIP3   OH254087   6.673   4.883   1.691 -0.0141  0.5894 -0.1051
10891TIP3    H154088   6.722   4.865   1.611 -0.4859  2.5960 -0.8983
10891TIP3    H254089   6.689   4.975   1.709 -0.8800  0.4711  1.4484
10892TIP3   OH254090   2.170   5.591   4.838  0.4637  0.2394  0.4081
10892TIP3    H154091   2.172   5.605   4.933  0.3048 -0.1407  0.4673
10892TIP3    H254092   2.205   5.503   4.825 -1.8453 -0.7489  0.3340
10893TIP3   OH254093   3.619   1.641  11.816 -0.1446  0.1422  0.0312
10893TIP3    H154094   3.692   1.659  11.876 -0.2519 -1.2876  0.6366
10893TIP3    H254095   3.579   1.561  11.850 -0.7725 -0.2052 -1.4360
10894TIP3   OH254096   0.514   6.701   3.547 -0.1518  0.4035 -0.4712
10894TIP3    H154097   0.594   6.753   3.547 -0.2810  0.6065 -0.8300
10894TIP3    H254098   0.544   6.610   3.547  0.0794  0.4450  1.2515
10895TIP3   OH254099   4.535   1.109  15.204  0.2043 -0.3445 -0.9095
10895TIP3    H154100   4.598   1.108  15.132  2.0998 -1.4869  0.6697
10895TIP3    H254101   4.473   1.040  15.182  0.5766 -0.4731 -1.5873
10896TIP3   OH254102   2.272   1.185   0.003 -0.1955  0.1906 -0.2103
10896TIP3    H154103   2.187   1.215   0.034  1.2976  3.0454  1.6397
10896TIP3    H254104   2.258   1.164  -0.090 -2.6099  2.0416 -0.3608
10897TIP3   OH254105   5.996   6.119   1.081 -0.4883 -0.2306 -0.1414
10897TIP3    H154106   6.020   6.181   1.150  0.3982  0.5071 -1.0761
10897TIP3    H254107   5.909   6.146   1.052 -0.4238  0.1095 -0.0176
10898TIP3   OH254108   3.876   1.421   2.298  0.3096  0.7131 -1.1509
10898TIP3    H154109   3.805   1.368   2.260  0.7575 -1.6495  1.0293
10898TIP3    H254110   3.947   1.415   2.234  0.2124 -1.0993 -1.1444
10899TIP3   OH254111   3.804   0.254  15.129  0.2125 -1.3274 -0.0141
10899TIP3    H154112   3.807   0.309  15.051 -0.5240 -1.7921 -0.3894
10899TIP3    H254113   3.857   0.299  15.193 -0.0291 -0.4039 -0.4513
10900TIP3   OH254114   0.309   3.665  14.355  0.2615  0.1609 -0.1455
10900TIP3    H154115   0.235   3.726  14.357  0.0172 -0.1434  0.7899
10900TIP3    H254116   0.309   3.626  14.442  0.1595 -1.4825 -0.8554
10901TIP3   OH254117   6.265   0.853   5.091 -0.2048  0.5132  0.6681
10901TIP3    H154118   6.322   0.878   5.163 -0.8936  2.4333  0.5845
10901TIP3    H254119   6.293   0.909   5.018 -0.0623 -0.8212 -0.3466
10902TIP3   OH254120   5.926   0.176   4.296 -0.5614 -0.5274 -0.6298
10902TIP3    H154121   5.841   0.219   4.305 -0.6746 -0.4326 -2.0135
10902TIP3    H254122   5.920   0.126   4.214  0.5267 -0.9606 -0.4662
10903TIP3   OH254123   4.619   5.130  15.416  0.0911 -0.2392 -0.3453
10903TIP3    H154124   4.588   5.039  15.415  1.0997 -0.6952  2.0420
10903TIP3    H254125   4.542   5.181  15.439 -0.4659 -0.4685 -1.6187
10904TIP3   OH254126   3.143   4.384  15.508  0.4265  0.7153 -0.0089
10904TIP3    H154127   3.086   4.455  15.480  0.7225  0.1443 -2.2013
10904TIP3    H254128   3.231   4.412  15.483  0.6411 -0.0905 -0.1840
10905TIP3   OH254129   5.974   3.159   0.268 -0.5149  0.2895  0.4854
10905TIP3    H154130   5.900   3.203   0.225  0.2121  1.2588  0.1892
10905TIP3    H254131   5.983   3.077   0.220 -2.1038 -0.3877  1.2555
10906TIP3   OH254132   4.235   1.221  14.138 -0.4573  0.4491 -0.4112
10906TIP3    H154133   4.196   1.222  14.226 -0.9544  0.9598 -0.6308
10906TIP3    H254134   4.170   1.176  14.084 -0.5790  0.9732 -0.7046
10907TIP3   OH254135   4.099   3.052  14.923  0.9427 -0.6189  0.7213
10907TIP3    H154136   4.164   3.017  14.984  0.3689 -3.3400 -0.1161
10907TIP3    H254137   4.038   2.980  14.908 -0.6176  0.9185 -0.7885
10908TIP3   OH254138   4.494   4.890  15.455  0.5761 -0.5202  0.1428
10908TIP3    H154139   4.437   4.835  15.403  0.6061 -1.5343  1.1571
10908TIP3    H254140   4.491   4.853  15.543  0.7685  0.9587  0.8120
10909TIP3   OH254141   6.240   2.105  14.189 -0.4761  0.2864  0.1506
10909TIP3    H154142   6.239   2.174  14.123 -0.4139  1.7477  1.5914
10909TIP3    H254143   6.304   2.135  14.253 -1.1820 -0.6091  1.3199
10910TIP3   OH254144   2.467   2.268   5.727  0.3783  0.0453  0.4916
10910TIP3    H154145   2.540   2.257   5.789  1.7004  2.8093 -0.3973
10910TIP3    H254146   2.401   2.318   5.776 -1.2523 -2.8348  1.4397
10911TIP3   OH254147   1.321   5.251   5.306 -0.0543 -0.6833 -0.4613
10911TIP3    H154148   1.371   5.291   5.235 -0.2716 -0.4014 -0.4584
10911TIP3    H254149   1.232   5.283   5.294  0.1994  0.6609  0.8622
10912TIP3   OH254150   2.522   1.218   5.131  0.0108 -0.8931  0.1129
10912TIP3    H154151   2.490   1.160   5.063 -1.1551 -1.6798  1.2954
10912TIP3    H254152   2.462   1.206   5.204  0.2902  1.0944  0.7468
10913TIP3   OH254153   6.596   0.738   1.216  0.6436  0.5014  0.1367
10913TIP3    H154154   6.584   0.685   1.295  1.2735  0.5472  0.2670
10913TIP3    H254155   6.678   0.785   1.231  0.6797  0.6358 -0.4740
10914TIP3   OH254156   6.781   5.319  11.458  0.2146  0.2344 -0.2814
10914TIP3    H154157   6.873   5.323  11.481  0.1627  0.9337 -0.1675
10914TIP3    H254158   6.771   5.237  11.410  1.0015  0.4164 -0.7692
10915TIP3   OH254159   4.047   4.913  10.740 -0.1462  0.9217 -0.4093
10915TIP3    H154160   4.129   4.934  10.696 -0.7752  1.6729 -1.2719
10915TIP3    H254161   4.071   4.848  10.806  0.7947 -0.4836 -2.0457
10916TIP3   OH254162   0.952   3.264  14.296  0.8089 -0.1890 -0.1435
10916TIP3    H154163   0.982   3.177  14.322  0.9613 -0.4854 -1.2549
10916TIP3    H254164   0.932   3.309  14.378  0.4793 -1.3636  0.4282
10917TIP3   OH254165   4.579   3.129   3.626  0.4204  0.2992 -0.4590
10917TIP3    H154166   4.519   3.177   3.569 -1.1859 -1.3132 -0.2013
10917TIP3    H254167   4.561   3.037   3.608  0.5055 -0.2573  2.0009
10918TIP3   OH254168   3.464   1.438   1.571  0.2558  0.4719  0.3576
10918TIP3    H154169   3.544   1.430   1.519  1.7465  0.9143  2.4598
10918TIP3    H254170   3.405   1.373   1.534  2.1287 -0.9270 -0.3284
10919TIP3   OH254171   0.960   1.003   4.464  0.1665  0.0288 -0.0313
10919TIP3    H154172   1.036   0.944   4.468 -0.1955 -0.3958  0.8312
10919TIP3    H254173   0.952   1.025   4.371  0.3146 -1.2741 -0.3725
10920TIP3   OH254174   3.262   3.767   0.472 -0.5810 -0.1438  0.2047
10920TIP3    H154175   3.179   3.740   0.433 -1.2320  1.0507  0.7234
10920TIP3    H254176   3.273   3.709   0.547 -0.0354 -1.4913 -0.8691
10921TIP3   OH254177   5.406   4.084   6.041 -0.2026 -0.0722 -0.5012
10921TIP3    H154178   5.501   4.098   6.042 -0.1412 -0.4452 -0.7373
10921TIP3    H254179   5.396   3.990   6.055 -0.2527 -1.1682 -5.8361
10922TIP3   OH254180   4.006   4.504  16.130  0.3431  0.3770  0.3611
10922TIP3    H154181   3.969   4.417  16.119  1.1410  0.1966 -1.2451
10922TIP3    H254182   4.096   4.497  16.096  0.7974  1.5531  1.2325
10923TIP3   OH254183   4.447   5.661  13.749 -0.0196  0.2124 -0.2583
10923TIP3    H154184   4.435   5.647  13.655  0.2031  0.4817 -0.3293
10923TIP3    H254185   4.421   5.578  13.790 -0.1784  0.1169 -0.5520
10924TIP3   OH254186   6.118   5.400  12.350  0.2951  0.4677  0.7600
10924TIP3    H154187   6.106   5.473  12.411 -0.3582  0.1186  1.0603
10924TIP3    H254188   6.138   5.442  12.266  0.7100  0.9643  1.1074
10925TIP3   OH254189   6.656   3.312  16.540  0.2735 -0.4414  0.1184
10925TIP3    H154190   6.627   3.331  16.629  0.6496 -0.3140  0.2183
10925TIP3    H254191   6.664   3.217  16.536  0.0125 -0.4635  0.1443
10926TIP3   OH254192   2.338   4.884   3.680  0.6995 -0.5079  0.0376
10926TIP3    H154193   2.357   4.861   3.589  0.4623 -1.1017  0.1336
10926TIP3    H254194   2.321   4.979   3.677  0.7838 -0.5027 -0.5181
10927TIP3   OH254195   3.244   5.812   2.203  0.3748 -0.1711 -0.0383
10927TIP3    H154196   3.283   5.749   2.263  0.4824 -0.5563 -0.5069
10927TIP3    H254197   3.171   5.850   2.253  0.6813 -0.2272  0.4576
10928TIP3   OH254198   6.524   6.393  14.467  0.2788  0.0352  0.4234
10928TIP3    H154199   6.522   6.311  14.418  1.8470  1.2278 -1.7978
10928TIP3    H254200   6.616   6.421  14.463 -0.0860  1.5754  1.7118
10929TIP3   OH254201   3.249   5.535  14.835  0.4791  0.2503  0.5435
10929TIP3    H154202   3.154   5.531  14.831  0.4538  0.8919  0.2801
10929TIP3    H254203   3.270   5.628  14.822  1.2088 -0.1270 -1.5277
10930TIP3   OH254204   1.118   3.360   3.289 -0.0574  0.2174 -0.1434
10930TIP3    H154205   1.201   3.357   3.242  1.0238 -1.5085  1.6865
10930TIP3    H254206   1.051   3.367   3.221  1.5167  0.3551 -1.7423
10931TIP3   OH254207   4.460   4.928  11.993  0.1451 -0.0714  0.0751
10931TIP3    H154208   4.435   4.841  12.025 -0.3800 -0.8333 -2.2634
10931TIP3    H254209   4.395   4.987  12.032 -0.7214 -1.0115  0.0896
10932TIP3   OH254210   1.133   4.973  10.662  0.3078  0.7067 -0.7423
10932TIP3    H154211   1.080   4.979  10.583  0.7772 -0.8000 -1.1990
10932TIP3    H254212   1.223   4.962  10.630  0.2332 -2.5658 -0.0945
10933TIP3   OH254213   1.467   6.380  16.938 -0.2857 -0.4231  0.2219
10933TIP3    H154214   1.447   6.404  17.028 -1.0552  0.5642 -0.1925
10933TIP3    H254215   1.488   6.286  16.942  0.6176 -0.1991  1.5483
10934TIP3   OH254216   4.433   0.600   0.429 -0.1822  0.4340  0.4785
10934TIP3    H154217   4.437   0.685   0.387  2.4338  0.0654 -0.1785
10934TIP3    H254218   4.428   0.537   0.357  0.1912 -0.0610  0.8715
10935TIP3   OH254219   2.517   0.844  12.323 -0.2091 -0.4327 -0.0482
10935TIP3    H154220   2.609   0.831  12.298 -0.2215 -1.1969  0.2921
10935TIP3    H254221   2.481   0.897  12.252  0.3653 -0.5720 -0.4557
10936TIP3   OH254222   6.157   1.226   5.985  0.4001 -0.3422 -0.5031
10936TIP3    H154223   6.218   1.246   6.056  0.3571 -0.7882 -0.3401
10936TIP3    H254224   6.104   1.305   5.976  0.5768 -0.1901 -0.2121
10937TIP3   OH254225   1.044   6.681  16.169 -0.7055 -0.8308  0.6189
10937TIP3    H154226   1.091   6.698  16.250 -0.1572  0.3405  0.0746
10937TIP3    H254227   0.963   6.638  16.197 -0.6771 -0.1423  1.8180
10938TIP3   OH254228   3.614   5.519   0.606  0.1461  0.0318 -0.2187
10938TIP3    H154229   3.569   5.498   0.688  0.5866 -0.0989 -0.0091
10938TIP3    H254230   3.569   5.467   0.540 -0.6949  0.6962 -0.1889
10939TIP3   OH254231   0.585   5.616   4.658 -0.7800 -0.4362 -0.4198
10939TIP3    H154232   0.555   5.594   4.570 -1.8456  0.6946 -0.3745
10939TIP3    H254233   0.509   5.601   4.714 -0.0255 -1.4238  0.3732
10940TIP3   OH254234   4.830   1.969  14.870 -0.1556  0.2095  0.0111
10940TIP3    H154235   4.769   1.924  14.928  1.2858 -2.2829 -0.2473
10940TIP3    H254236   4.846   2.054  14.912 -1.1972 -0.4341  1.8163
10941TIP3   OH254237   4.361   1.368  17.046 -0.1407  0.0100 -0.3553
10941TIP3    H154238   4.365   1.311  16.970 -1.7710 -0.8657  0.1670
10941TIP3    H254239   4.330   1.312  17.117 -2.0160  1.5594  0.1362
10942TIP3   OH254240   0.339   0.634  10.543  0.3090  0.0499 -0.2013
10942TIP3    H154241   0.403   0.634  10.614 -0.3123 -0.2230  0.3685
10942TIP3    H254242   0.349   0.720  10.502  1.2370 -0.1015 -0.3047
10943TIP3   OH254243   0.138   0.787   0.746 -0.1683  0.2429  0.5522
10943TIP3    H154244   0.196   0.801   0.672 -1.8355 -0.4302 -0.9574
10943TIP3    H254245   0.116   0.875   0.777  1.5009  0.5142  1.1046
10944TIP3   OH254246   4.391   5.648  13.479 -0.4636 -0.6172 -0.0291
10944TIP3    H154247   4.357   5.737  13.478  1.1237  0.0453  1.0166
10944TIP3    H254248   4.328   5.597  13.428 -1.9253  0.8997  0.1990
10945TIP3   OH254249   1.084   6.562  16.802 -0.4443 -0.3156 -0.4094
10945TIP3    H154250   1.050   6.644  16.766 -2.2348 -0.6410  0.4208
10945TIP3    H254251   1.166   6.587  16.844 -0.4401  0.8467 -1.0415
10946TIP3   OH254252   5.070   2.166   4.617 -0.3942 -0.3807  0.1576
10946TIP3    H154253   5.054   2.179   4.523  2.4777  0.2706 -0.3500
10946TIP3    H254254   5.151   2.115   4.620 -0.8086 -0.9895  2.3103
10947TIP3   OH254255   1.863   2.223   5.887  0.0892 -0.7142  0.2471
10947TIP3    H154256   1.849   2.149   5.828 -0.7445 -1.0904  0.9016
10947TIP3    H254257   1.833   2.192   5.972 -0.1031  0.3222  0.5700
10948TIP3   OH254258   3.379   6.460  15.197  0.1922 -0.0229 -0.3596
10948TIP3    H154259   3.335   6.469  15.282 -1.6117  2.1237 -1.4060
10948TIP3    H254260   3.348   6.375  15.164 -2.0482  0.7144 -0.3595
10949TIP3   OH254261   3.887   0.394   4.872 -0.8327 -0.3977  0.2630
10949TIP3    H154262   3.815   0.450   4.902 -1.1033 -0.7340  0.2509
10949TIP3    H254263   3.964   0.451   4.875 -1.0616 -0.0913  0.4735
10950TIP3   OH254264   1.535   1.995   0.850 -0.4458 -0.2423 -0.2414
10950TIP3    H154265   1.592   2.058   0.805 -0.7210  0.4155  0.3067
10950TIP3    H254266   1.592   1.923   0.874  0.1490  0.3677  0.2140
10951TIP3   OH254267   2.666   3.999   1.072 -0.3980 -0.0777  0.0701
10951TIP3    H154268   2.604   4.070   1.084  1.3073  1.5509 -0.3714
10951TIP3    H254269   2.746   4.041   1.040  1.4109 -1.8632  1.8700
10952TIP3   OH254270   2.096   1.229   4.686  0.1682  0.3374  0.0983
10952TIP3    H154271   2.081   1.322   4.705 -1.4186  0.5465 -1.8658
10952TIP3    H254272   2.014   1.198   4.648  1.0881 -1.5473 -0.4899
10953TIP3   OH254273   2.971   3.063  15.796  0.1157 -0.4416 -0.5141
10953TIP3    H154274   2.998   3.126  15.862  2.5127  0.2902 -2.0568
10953TIP3    H254275   2.978   3.110  15.713 -0.0492 -2.1193 -1.5352
10954TIP3   OH254276   1.194   4.435  14.041 -0.6154 -0.1207  0.0174
10954TIP3    H154277   1.243   4.354  14.024 -0.2626  0.3160 -1.1106
10954TIP3    H254278   1.227   4.497  13.976 -1.2120  0.7988  0.5738
10955TIP3   OH254279   2.948   2.189   0.480 -0.2112  0.1789  0.3799
10955TIP3    H154280   3.034   2.226   0.501 -1.3471  3.1346  0.2787
10955TIP3    H254281   2.948   2.181   0.385 -0.3375  0.9581  0.3128
10956TIP3   OH254282   1.949   3.039  11.195 -0.1424  0.2169 -0.0788
10956TIP3    H154283   1.896   2.976  11.146  0.8472 -1.2289  0.6306
10956TIP3    H254284   1.906   3.046  11.280 -0.1579  0.3672 -0.0989
10957TIP3   OH254285   6.623   6.176  14.990 -0.1463 -0.0700  0.2749
10957TIP3    H154286   6.586   6.162  14.903  1.2630 -0.5761 -0.2699
10957TIP3    H254287   6.556   6.143  15.050 -1.1374  0.2699 -0.6000
10958TIP3   OH254288   0.884   6.417  16.947  0.2631  0.1186  0.1007
10958TIP3    H154289   0.834   6.467  17.012  0.5292  0.5389 -0.0103
10958TIP3    H254290   0.970   6.461  16.944  0.7142 -0.7163  0.4389
10959TIP3   OH254291   2.278   4.833   6.006 -0.8130  0.0855 -0.7013
10959TIP3    H154292   2.276   4.926   5.982 -1.4155  0.6244  1.3020
10959TIP3    H254293   2.202   4.821   6.062 -1.0018 -1.7602 -1.2907
10960TIP3   OH254294   1.219   4.497   4.367 -0.1538 -0.0056 -0.4038
10960TIP3    H154295   1.235   4.566   4.303 -0.9186 -0.1540 -0.7681
10960TIP3    H254296   1.160   4.436   4.322  1.9983 -1.9175 -0.8196
10961TIP3   OH254297   3.830   2.319   3.326  0.3952 -0.2416  0.5856
10961TIP3    H154298   3.739   2.345   3.309  1.1057  1.2348 -1.4169
10961TIP3    H254299   3.844   2.243   3.270  0.5287 -0.1538  0.4983
10962TIP3   OH254300   6.620   2.409   4.369  0.2857  0.0596 -0.7149
10962TIP3    H154301   6.646   2.497   4.400 -1.6441  0.2028  0.6467
10962TIP3    H254302   6.679   2.350   4.417  0.7539  0.5403 -0.6764
10963TIP3   OH254303   6.047   1.715  11.862  0.2479 -0.0318 -0.1253
10963TIP3    H154304   6.029   1.622  11.845 -1.4955  0.2249  0.1464
10963TIP3    H254305   6.143   1.722  11.857  0.3485 -1.6187 -1.2590
10964TIP3   OH254306   6.548   3.341  10.970  0.9119  0.0275 -0.1848
10964TIP3    H154307   6.629   3.334  10.919  0.8582 -2.2894 -0.0681
10964TIP3    H254308   6.544   3.258  11.018 -0.5531  0.9220  1.3130
10965TIP3   OH254309   3.453   1.710   0.975 -0.1584 -0.1873  0.1772
10965TIP3    H154310   3.526   1.701   1.036 -1.0653  0.2772  1.3690
10965TIP3    H254311   3.388   1.763   1.022 -1.8397 -1.7108 -0.2935
10966TIP3   OH254312   0.134   4.250  17.013  0.3681 -0.5095  0.0364
10966TIP3    H154313   0.208   4.190  17.010 -0.0946 -1.2207  1.7199
10966TIP3    H254314   0.097   4.239  17.100  0.1553  2.1375  0.3661
10967TIP3   OH254315   0.774   3.846   1.084  0.6596  0.4578 -0.0796
10967TIP3    H154316   0.705   3.892   1.131 -1.1087 -1.7403 -0.3991
10967TIP3    H254317   0.826   3.804   1.153 -2.1008 -3.0108  0.1508
10968TIP3   OH254318   4.546   3.069   4.486  0.8005 -0.0469  0.3002
10968TIP3    H154319   4.559   2.988   4.437 -0.2179 -0.0450  0.0066
10968TIP3    H254320   4.593   3.056   4.568  0.4919 -0.9965  0.3307
10969TIP3   OH254321   2.659   6.031  14.119  0.3307  0.4662 -0.0262
10969TIP3    H154322   2.671   6.088  14.195 -1.0907 -0.0027  0.5840
10969TIP3    H254323   2.690   5.945  14.148  2.5196  0.8685 -0.9623
10970TIP3   OH254324   0.735   4.815  15.046  0.1732 -0.1156 -0.0678
10970TIP3    H154325   0.646   4.792  15.070  0.1106  0.7315  0.5788
10970TIP3    H254326   0.767   4.867  15.121  0.5586  1.1782 -1.0951
10971TIP3   OH254327   4.811   5.705   5.129  0.0595 -0.0443 -0.1520
10971TIP3    H154328   4.736   5.726   5.185  0.9146  2.1306  0.2682
10971TIP3    H254329   4.771   5.669   5.049 -1.3703 -0.0114  0.5134
10972TIP3   OH254330   3.854   1.719  15.220  0.5023 -0.5197 -0.1323
10972TIP3    H154331   3.763   1.699  15.198  0.0719 -0.6254  1.6233
10972TIP3    H254332   3.898   1.724  15.135 -0.1681 -4.8568 -0.9964
10973TIP3   OH254333   6.569   2.293  12.579  0.3917  0.3304  0.0165
10973TIP3    H154334   6.546   2.385  12.570  0.7610  0.3776 -0.4574
10973TIP3    H254335   6.661   2.288  12.553  1.0287  0.1854  2.0870
10974TIP3   OH254336   0.564   2.977  10.430  0.1627  0.1640  0.1330
10974TIP3    H154337   0.510   3.055  10.417 -0.4765 -0.2936 -0.0109
10974TIP3    H254338   0.527   2.935  10.507 -1.7285 -1.7945 -1.6929
10975TIP3   OH254339   0.480   6.630  15.695  0.7037 -0.6429 -0.0639
10975TIP3    H154340   0.526   6.711  15.673 -2.7913  1.3299 -0.7974
10975TIP3    H254341   0.463   6.637  15.789 -0.3524 -0.0575 -0.2871
10976TIP3   OH254342   0.951   4.072   4.618  0.0544  0.1182  0.3406
10976TIP3    H154343   0.883   4.138   4.629  0.4814  0.4809  0.8349
10976TIP3    H254344   0.988   4.090   4.532 -2.0557 -1.5768 -1.0459
10977TIP3   OH254345   2.145   2.776  14.862 -0.0796 -0.9443 -0.1210
10977TIP3    H154346   2.233   2.738  14.866 -0.2163 -1.3559 -0.7444
10977TIP3    H254347   2.088   2.702  14.841 -0.2819 -0.3274 -1.9699
10978TIP3   OH254348   5.810   6.298   3.669 -0.0569 -0.3318 -0.5019
10978TIP3    H154349   5.751   6.330   3.737 -0.3764 -0.3421 -0.7671
10978TIP3    H254350   5.797   6.204   3.668 -0.2608 -0.3040 -0.7601
10979TIP3   OH254351   4.743   6.403  13.330 -0.2888 -0.0046  0.2250
10979TIP3    H154352   4.687   6.368  13.399  0.4283 -1.5229  0.0911
10979TIP3    H254353   4.813   6.338  13.321  0.2409  0.7134 -1.1659
10980TIP3   OH254354   0.338   3.815  14.619 -0.9849 -0.0796  0.5581
10980TIP3    H154355   0.367   3.832  14.708  0.8833  0.1011 -0.0338
10980TIP3    H254356   0.300   3.727  14.622  0.9986 -0.9722  1.1455
10981TIP3   OH254357   5.125   3.449  15.033 -0.3274 -0.0285 -0.3668
10981TIP3    H154358   5.059   3.436  14.964 -1.6269  1.0069  0.6311
10981TIP3    H254359   5.096   3.392  15.104  1.6359 -1.9662 -1.0229
10982TIP3   OH254360   4.117   4.137   0.736  0.8550  0.4154 -0.6050
10982TIP3    H154361   4.030   4.105   0.762  0.8537  0.4023 -0.6238
10982TIP3    H254362   4.166   4.142   0.818  1.2225 -0.7619 -0.7217
10983TIP3   OH254363   6.694   5.223  11.758 -0.3257 -0.2534 -0.7803
10983TIP3    H154364   6.695   5.271  11.675 -0.6919 -0.4650 -0.9091
10983TIP3    H254365   6.758   5.153  11.745 -2.7229 -2.3517 -2.1457
10984TIP3   OH254366   6.417   4.547   2.848  0.3994  0.4082 -0.3035
10984TIP3    H154367   6.327   4.559   2.817  0.2180  1.1716  0.4634
10984TIP3    H254368   6.469   4.532   2.769 -0.2651  0.8531 -0.8332
10985TIP3   OH254369   2.206   1.653   5.816 -0.2687  0.4530  0.1150
10985TIP3    H154370   2.161   1.591   5.873 -2.0186  2.1431  0.7081
10985TIP3    H254371   2.168   1.639   5.729 -2.3497  2.0583  0.6614
10986TIP3   OH254372   1.887   3.964  10.793  0.6545  0.0481  0.4254
10986TIP3    H154373   1.919   3.899  10.731  0.0416  1.4608 -1.4607
10986TIP3    H254374   1.791   3.953  10.792  0.4606  1.5282 -0.6339
10987TIP3   OH254375   2.340   6.549   6.426 -0.1140  0.6295 -0.2130
10987TIP3    H154376   2.390   6.628   6.406 -0.1909  0.9753  0.9427
10987TIP3    H254377   2.404   6.490   6.465 -0.4557  0.8193  0.6418
10988TIP3   OH254378   0.945   0.338   5.766 -0.0850  0.3445 -0.3310
10988TIP3    H154379   0.935   0.243   5.758  1.6882 -0.0510  1.2788
10988TIP3    H254380   0.872   0.365   5.822  0.5386 -0.4204  0.8878
10989TIP3   OH254381   6.265   3.881  13.302 -0.3010  0.1729 -0.4129
10989TIP3    H154382   6.274   3.962  13.352 -2.0018  0.0019  0.2421
10989TIP3    H254383   6.351   3.868  13.262 -0.1404  2.6180 -1.0429
10990TIP3   OH254384   1.005   0.229   2.870 -0.4213  0.3199 -0.0628
10990TIP3    H154385   1.019   0.135   2.861 -3.3048 -0.1314 -1.0417
10990TIP3    H254386   1.045   0.267   2.791  0.7484 -0.0523  0.3357
10991TIP3   OH254387   1.003   3.244   5.528 -0.2604 -0.0330 -0.4281
10991TIP3    H154388   0.990   3.217   5.619 -0.0024  0.5687 -0.2023
10991TIP3    H254389   0.919   3.282   5.502 -0.4783 -0.6148 -0.5968
10992TIP3   OH254390   3.449   4.499  11.952  0.3949 -0.3063 -0.4882
10992TIP3    H154391   3.414   4.498  11.863  0.3111  1.9505 -0.5381
10992TIP3    H254392   3.543   4.513  11.940  0.5506 -1.1152 -0.2346
10993TIP3   OH254393   2.911   4.413  14.019 -0.2565  0.9005  0.0084
10993TIP3    H154394   2.954   4.485  13.973  1.3884  1.3925  2.1652
10993TIP3    H254395   2.827   4.449  14.046  0.2261  1.7888  0.3849
10994TIP3   OH254396   2.540   2.610   6.499  0.0922  0.2710  0.0586
10994TIP3    H154397   2.541   2.517   6.522 -0.2950  0.5464  1.2488
10994TIP3    H254398   2.453   2.640   6.525  0.1720  0.9463 -0.4329
10995TIP3   OH254399   0.312   6.320  12.405  0.1464 -0.6248 -0.5127
10995TIP3    H154400   0.391   6.270  12.426 -0.4661 -0.6073  2.0998
10995TIP3    H254401   0.244   6.283  12.461 -1.4131  0.2403 -1.7480
10996TIP3   OH254402   2.068   5.804   2.476  0.2777 -0.0862  0.1142
10996TIP3    H154403   2.155   5.839   2.497  0.5572 -0.8179  0.2102
10996TIP3    H254404   2.051   5.739   2.544 -1.0173  1.1152  0.9935
10997TIP3   OH254405   4.653   2.350   2.240  0.3345  0.0269  0.2677
10997TIP3    H154406   4.667   2.357   2.334 -1.5529 -0.0283  0.5961
10997TIP3    H254407   4.606   2.430   2.216  2.5711  1.0457 -1.0646
10998TIP3   OH254408   0.739   4.824  14.625  0.3996  0.2821 -0.6729
10998TIP3    H154409   0.650   4.853  14.648  0.2756  1.1420 -2.1551
10998TIP3    H254410   0.796   4.878  14.681  0.0230  0.1762 -0.1714
10999TIP3   OH254411   6.557   4.750  12.249 -0.5743  0.9111  0.4192
10999TIP3    H154412   6.503   4.671  12.242  0.3817  0.2032  0.7490
10999TIP3    H254413   6.596   4.744  12.336 -0.4143  1.7075  0.4057
11000TIP3   OH254414   1.523   1.798   2.830  0.4478 -0.6084  0.4293
11000TIP3    H154415   1.540   1.891   2.817  0.1777 -0.3906  1.5737
11000TIP3    H254416   1.513   1.763   2.741 -0.4927  0.6479  0.0087
11001TIP3   OH254417   5.865   5.136  16.842 -0.2477 -0.5079  0.2126
11001TIP3    H154418   5.780   5.101  16.870 -0.4855  0.0578  0.2058
11001TIP3    H254419   5.919   5.133  16.921 -0.1550 -1.2016  0.1338
11002TIP3   OH254420   1.290   2.643   4.939  0.6248  0.3971  0.2078
11002TIP3    H154421   1.375   2.685   4.923  1.3717 -0.9250  0.5339
11002TIP3    H254422   1.227   2.714   4.935  1.7227  1.3799 -0.2945
11003TIP3   OH254423   1.373   0.888   5.645 -0.2120 -0.4322  0.1166
11003TIP3    H154424   1.439   0.857   5.708 -2.6725 -0.5192  2.8574
11003TIP3    H254425   1.339   0.968   5.685 -1.1790  0.0730 -1.6534
11004TIP3   OH254426   6.164   6.592  14.480  0.4043 -0.0662 -0.1820
11004TIP3    H154427   6.133   6.509  14.443  1.1873 -0.2652 -0.4138
11004TIP3    H254428   6.219   6.566  14.554  0.1533  0.2693  0.1203
11005TIP3   OH254429   0.623   0.209  15.260 -0.4274  0.0098  0.1889
11005TIP3    H154430   0.604   0.193  15.353 -2.2775  1.1653  0.0588
11005TIP3    H254431   0.563   0.152  15.213 -0.0958  0.0640 -0.3131
11006TIP3   OH254432   2.069   1.012   1.798  0.5839 -0.3587  0.3666
11006TIP3    H154433   2.032   1.100   1.796  1.2498 -0.0706 -1.7505
11006TIP3    H254434   2.096   0.999   1.889  0.0045  1.4116  0.8209
11007TIP3   OH254435   1.037   2.851  11.161 -0.1697  0.0518 -0.7374
11007TIP3    H154436   0.982   2.830  11.085 -2.4248 -2.4946  1.3964
11007TIP3    H254437   0.981   2.903  11.218  1.7474  2.6064 -0.9726
11008TIP3   OH254438   2.996   1.553  13.848  0.3324 -0.1046 -0.0528
11008TIP3    H154439   2.922   1.556  13.786 -0.7573 -1.2819  1.1215
11008TIP3    H254440   3.069   1.592  13.800 -1.2851  2.1420 -0.9138
11009TIP3   OH254441   3.210   5.804  14.078  0.7579  0.2380 -0.1275
11009TIP3    H154442   3.238   5.768  13.994  1.9287  1.3162 -0.2335
11009TIP3    H254443   3.266   5.881  14.090 -0.5036  1.0235  0.8785
11010TIP3   OH254444   3.443   6.387  16.532  0.1166  0.2867 -0.2154
11010TIP3    H154445   3.529   6.421  16.558  1.5908 -3.5780  0.6387
11010TIP3    H254446   3.409   6.345  16.611 -2.1507  0.8551 -0.8156
11011TIP3   OH254447   0.891   0.179  15.169 -0.1932 -0.0260  0.3796
11011TIP3    H154448   0.888   0.140  15.081 -0.1125 -0.8107  0.7126
11011TIP3    H254449   0.800   0.181  15.198 -0.1219 -0.6967  0.6662
11012TIP3   OH254450   4.330   6.451  16.030 -0.2495  0.0851 -0.0868
11012TIP3    H154451   4.291   6.425  16.114  0.6816 -0.8603  0.0790
11012TIP3    H254452   4.329   6.371  15.978 -1.3691  0.8035 -1.2247
11013TIP3   OH254453   1.543   1.821  15.379 -0.1152  0.1016  0.6668
11013TIP3    H154454   1.564   1.818  15.473 -0.2107 -1.3630  0.6541
11013TIP3    H254455   1.448   1.810  15.375  0.0929 -1.8431  0.3307
11014TIP3   OH254456   3.357   5.197   1.284 -0.1448 -0.6008  0.1192
11014TIP3    H154457   3.395   5.157   1.363 -0.0281  0.9538  0.8891
11014TIP3    H254458   3.426   5.255   1.251  0.6276 -2.7344 -2.3913
11015TIP3   OH254459   3.256   0.876  14.375  0.0241 -0.0107 -0.0332
11015TIP3    H154460   3.287   0.954  14.328  0.4483 -0.4716 -0.5385
11015TIP3    H254461   3.167   0.898  14.402  0.6211  1.1848  1.0735
11016TIP3   OH254462   5.031   5.487   2.082 -0.5557 -0.4903 -0.2488
11016TIP3    H154463   5.126   5.478   2.087 -0.7291 -2.1065  1.4403
11016TIP3    H254464   5.013   5.501   1.989  1.3985  1.4591 -0.4492
11017TIP3   OH254465   5.954   0.994   3.524  0.2733  0.7157  0.4832
11017TIP3    H154466   6.030   1.053   3.523  0.4604  0.4739 -0.8546
11017TIP3    H254467   5.883   1.047   3.560  0.8073  1.2749  0.7366
11018TIP3   OH254468   1.591   1.727   3.701 -0.8101  0.2099 -0.5513
11018TIP3    H154469   1.556   1.790   3.638 -0.2325  0.4157 -0.6691
11018TIP3    H254470   1.658   1.776   3.748 -1.9978  0.4102  1.0095
11019TIP3   OH254471   1.483   1.244   3.103 -0.4287 -0.1491 -0.4821
11019TIP3    H154472   1.418   1.194   3.053 -0.7291 -0.0309 -0.2115
11019TIP3    H254473   1.537   1.287   3.036  0.1807 -1.2688 -0.7320
11020TIP3   OH254474   0.094   1.245  13.972 -0.5654  0.6367  0.3403
11020TIP3    H154475   0.095   1.193  14.052  0.3048 -2.2164 -1.3993
11020TIP3    H254476   0.036   1.198  13.912 -1.6284  2.9795 -0.5993
11021TIP3   OH254477   3.458   5.022   0.290 -0.0366 -0.2083  0.2117
11021TIP3    H154478   3.510   5.037   0.369  0.4247  0.2200 -0.1628
11021TIP3    H254479   3.384   4.968   0.319 -0.5340  0.9460  1.1737
11022TIP3   OH254480   3.088   3.581  13.386 -0.2413  0.3824 -0.3825
11022TIP3    H154481   3.043   3.616  13.462  0.9949  0.0461  0.5233
11022TIP3    H254482   3.072   3.645  13.317 -1.9097  0.3725 -0.0376
11023TIP3   OH254483   2.173   0.706   2.614 -0.4152  0.5236 -0.4508
11023TIP3    H154484   2.112   0.632   2.621 -0.3118  0.5051  0.3268
11023TIP3    H254485   2.220   0.690   2.532  0.3307 -0.8446  0.2028
11024TIP3   OH254486   3.768   3.964   0.727 -0.4075 -0.2135 -0.6315
11024TIP3    H154487   3.840   3.905   0.747 -1.5510 -1.1691  0.9604
11024TIP3    H254488   3.718   3.919   0.658 -1.5831 -1.4593  0.9580
11025TIP3   OH254489   2.210   6.235  14.158  0.0669 -0.1684  0.1801
11025TIP3    H154490   2.289   6.183  14.139  0.9256  1.3288 -0.5433
11025TIP3    H254491   2.200   6.229  14.253 -0.8216 -2.9475 -0.0132
11026TIP3   OH254492   3.718   3.242  14.255  0.2949 -0.1807  0.8266
11026TIP3    H154493   3.787   3.253  14.190 -0.7751 -1.2259 -0.5337
11026TIP3    H254494   3.639   3.274  14.213 -1.0461 -3.7186  0.3206
11027TIP3   OH254495   1.944   1.119  14.696 -0.1479 -0.2584  0.1916
11027TIP3    H154496   1.875   1.052  14.697 -2.0524  1.5675  2.1326
11027TIP3    H254497   1.903   1.194  14.652 -0.2526  1.5594  3.1098
11028TIP3   OH254498   0.862   3.451   2.407  0.2601 -0.8585 -0.2757
11028TIP3    H154499   0.772   3.458   2.438  0.7868  1.8378  0.9315
11028TIP3    H254500   0.854   3.436   2.313 -1.5289  1.4203 -0.5701
11029TIP3   OH254501   2.819   1.781  16.448  0.0810  0.0026 -0.7586
11029TIP3    H154502   2.893   1.733  16.485 -0.5349 -0.7873 -0.5163
11029TIP3    H254503   2.787   1.834  16.521 -0.2205 -0.4379 -0.5641
11030TIP3   OH254504   1.466   5.774  14.379 -0.1558 -0.0025  0.2790
11030TIP3    H154505   1.468   5.701  14.441 -0.7859 -0.9819 -0.8065
11030TIP3    H254506   1.539   5.830  14.405  0.0259 -0.7561  1.4556
11031TIP3   OH254507   0.619   6.168   3.966 -0.5532 -0.4476 -0.1001
11031TIP3    H154508   0.635   6.251   4.010  1.2356 -0.9545  0.2971
11031TIP3    H254509   0.694   6.158   3.906 -1.0957 -1.4503 -0.6298
11032TIP3   OH254510   2.406   6.113  11.879 -0.7666  0.6115 -0.6178
11032TIP3    H154511   2.475   6.048  11.866 -0.6735  0.6225 -0.1984
11032TIP3    H254512   2.451   6.190  11.912 -1.0464  0.4132  0.2580
11033TIP3   OH254513   4.057   5.429  11.314  0.2042 -0.7803 -0.5394
11033TIP3    H154514   3.970   5.446  11.352  0.3964  0.9918 -0.7810
11033TIP3    H254515   4.042   5.430  11.220  0.4824 -0.3817 -0.5833
11034TIP3   OH254516   3.669   5.464   0.009  0.3397 -0.1994 -0.1935
11034TIP3    H154517   3.582   5.436   0.039  0.1152 -0.6950 -1.2594
11034TIP3    H254518   3.729   5.431   0.075 -0.2598 -0.0173  0.4595
11035TIP3   OH254519   3.881   0.118  14.825 -0.1928  0.7312  0.1444
11035TIP3    H154520   3.965   0.114  14.779 -0.1267  2.8726 -0.0228
11035TIP3    H254521   3.858   0.027  14.842  1.1734  0.0179 -1.5932
11036TIP3   OH254522   0.560   3.826  13.747 -0.3009 -0.3972  0.1207
11036TIP3    H154523   0.615   3.844  13.824 -1.4274 -0.4438  0.9728
11036TIP3    H254524   0.478   3.871  13.767 -0.3628  0.2047 -1.4065
11037TIP3   OH254525   0.605   1.558   1.923  0.4555 -0.0216  0.4634
11037TIP3    H154526   0.682   1.536   1.871  0.9376 -1.0004  1.5350
11037TIP3    H254527   0.538   1.580   1.859  1.5478  0.6252 -0.4976
11038TIP3   OH254528   6.722   2.451   0.108  0.7602 -0.0671 -0.2972
11038TIP3    H154529   6.648   2.396   0.080  1.2205 -0.2704 -1.1626
11038TIP3    H254530   6.712   2.530   0.055  0.1544  0.6622  0.8754
11039TIP3   OH254531   6.608   3.355  14.333  0.0846  0.0409 -0.0485
11039TIP3    H154532   6.568   3.392  14.255 -0.9296  0.0363  0.4639
11039TIP3    H254533   6.536   3.344  14.395  0.4318 -2.1867  0.0538
11040TIP3   OH254534   6.802   4.203  13.135 -0.1604 -0.2154 -0.2477
11040TIP3    H154535   6.859   4.266  13.092  0.5267 -0.3002  0.5071
11040TIP3    H254536   6.714   4.239  13.125  0.0978  0.2876 -0.7893
11041TIP3   OH254537   4.293   0.651  12.775  0.1706  0.1605 -0.0127
11041TIP3    H154538   4.381   0.674  12.747  0.2536  1.6203  1.3064
11041TIP3    H254539   4.263   0.587  12.711  1.2749  1.4210 -1.8858
11042TIP3   OH254540   0.849   0.662   3.120 -0.2497  0.5013  0.0447
11042TIP3    H154541   0.883   0.702   3.200 -0.9066  0.3525  0.4076
11042TIP3    H254542   0.899   0.580   3.111 -3.0931 -1.8203  2.8169
11043TIP3   OH254543   1.607   3.797  12.452 -0.1130 -0.2919 -0.8044
11043TIP3    H154544   1.695   3.781  12.486 -0.9400 -1.5383  0.9073
11043TIP3    H254545   1.590   3.889  12.470  0.7920 -0.0809 -1.0213
11044TIP3   OH254546   5.923   4.979  11.244 -0.0026 -0.4742 -0.0745
11044TIP3    H154547   5.958   5.067  11.228 -0.1405 -0.2466  0.7974
11044TIP3    H254548   5.838   4.978  11.199 -0.1105 -0.0698  0.1166
11045TIP3   OH254549   5.911   0.348   2.719 -0.2849  0.0503  0.2284
11045TIP3    H154550   5.907   0.433   2.674 -0.4548 -0.2908 -0.4198
11045TIP3    H254551   5.987   0.354   2.776 -0.4521  0.7350  0.3827
11046TIP3   OH254552   0.358   5.141  16.533  0.0912 -0.2377  0.7098
11046TIP3    H154553   0.429   5.084  16.563 -0.4254 -0.4412  1.5981
11046TIP3    H254554   0.389   5.230  16.549  0.9472 -0.2299 -0.7834
11047TIP3   OH254555   1.945   4.102   5.444 -0.7251 -0.0890  0.1745
11047TIP3    H154556   2.032   4.076   5.412 -1.5930 -0.0478 -2.3896
11047TIP3    H254557   1.918   4.028   5.499  0.3208 -0.7664 -0.1802
11048TIP3   OH254558   2.995   4.439  14.687  0.1059 -0.4369 -0.3795
11048TIP3    H154559   3.050   4.482  14.754  1.6966 -1.8463 -0.7101
11048TIP3    H254560   3.053   4.376  14.645 -1.0274 -0.0467 -2.7066
11049TIP3   OH254561   0.212   5.841  12.758  0.2401  0.5236  0.4129
11049TIP3    H154562   0.283   5.904  12.776 -0.2475  0.9539  0.8832
11049TIP3    H254563   0.211   5.832  12.663  0.3515  1.2031  0.3398
11050TIP3   OH254564   3.132   1.425  13.069  0.1901  0.1145  0.2601
11050TIP3    H154565   3.203   1.360  13.068  0.3273  0.2475 -1.8162
11050TIP3    H254566   3.177   1.509  13.063 -0.1042  0.1823 -1.6043
11051TIP3   OH254567   5.057   3.686  12.056 -0.2177 -0.0373 -0.2517
11051TIP3    H154568   5.102   3.672  12.140  0.2511  0.8807 -0.3332
11051TIP3    H254569   5.025   3.599  12.031 -0.1196 -0.3714  0.7389
11052TIP3   OH254570   5.480   0.269   0.501 -0.4545 -0.3716  0.2453
11052TIP3    H154571   5.546   0.334   0.478 -1.1175  0.5137  0.7603
11052TIP3    H254572   5.487   0.202   0.433 -0.0974  0.4871 -0.5801
11053TIP3   OH254573   5.510   6.675   1.076  0.0423 -0.5582 -0.0859
11053TIP3    H154574   5.421   6.694   1.106  0.5597 -0.6709  1.6532
11053TIP3    H254575   5.524   6.583   1.097  0.6300 -0.4993 -0.1965
11054TIP3   OH254576   1.383   6.104   3.170  0.1392  0.3950 -0.2728
11054TIP3    H154577   1.336   6.064   3.098  1.6902 -1.1791 -0.4929
11054TIP3    H254578   1.426   6.031   3.214 -0.2608  1.3783  1.8908
11055TIP3   OH254579   3.727   2.641  12.500 -0.1158 -0.4922  0.1048
11055TIP3    H154580   3.713   2.566  12.558 -0.2047 -0.4966  0.0770
11055TIP3    H254581   3.693   2.716  12.548  1.2435 -0.2394  0.7381
11056TIP3   OH254582   5.147   2.527  12.633  0.0100 -0.5137  0.1635
11056TIP3    H154583   5.241   2.521  12.617  0.1664  0.9258  0.4189
11056TIP3    H254584   5.132   2.618  12.660 -1.5246 -0.5893 -0.2897
11057TIP3   OH254585   2.940   2.587  13.926  0.2238  0.4140  0.6849
11057TIP3    H154586   2.969   2.499  13.952 -0.9870 -0.8893 -2.0039
11057TIP3    H254587   2.901   2.623  14.006  0.1925 -1.7379  1.7325
11058TIP3   OH254588   4.468   3.117   2.941  0.1399  0.1868 -0.4472
11058TIP3    H154589   4.389   3.115   2.995  0.5176 -0.6478  0.0817
11058TIP3    H254590   4.529   3.172   2.990  0.4642 -0.5283 -0.0387
11059TIP3   OH254591   4.757   1.630  13.575 -0.5801 -0.2142 -0.0579
11059TIP3    H154592   4.828   1.693  13.563 -0.6795 -0.2697 -0.9950
11059TIP3    H254593   4.770   1.597  13.664 -0.5981  1.1983  0.4947
11060TIP3   OH254594   1.936   1.820  10.814  0.4801 -0.0442  0.0723
11060TIP3    H154595   1.970   1.751  10.871 -0.1287  1.6604  2.6758
11060TIP3    H254596   2.014   1.867  10.785  1.0112 -2.3258 -2.6498
11061TIP3   OH254597   4.650   2.610   0.833  0.3643 -0.1966 -0.2586
11061TIP3    H154598   4.698   2.691   0.818 -0.6527  1.1340  2.7994
11061TIP3    H254599   4.566   2.623   0.788  0.4972  0.1147 -0.4161
11062TIP3   OH254600   2.510   5.715   1.910 -0.2494  0.0902 -0.5509
11062TIP3    H154601   2.573   5.740   1.842 -1.3439  0.6004 -1.4099
11062TIP3    H254602   2.433   5.768   1.892 -0.9298 -0.5181  0.4793
11063TIP3   OH254603   3.825   1.423   3.212  0.2097  0.4905  0.1492
11063TIP3    H154604   3.784   1.441   3.297  0.0660  0.4462  0.0889
11063TIP3    H254605   3.756   1.439   3.148 -0.6058 -2.3441  0.1955
11064TIP3   OH254606   0.742   5.603  13.758  0.6476 -0.2123 -0.3358
11064TIP3    H154607   0.650   5.584  13.776  0.1706  0.6778 -1.7083
11064TIP3    H254608   0.779   5.518  13.732 -0.0396 -0.3976 -0.7420
11065TIP3   OH254609   0.210   1.727  12.233 -0.0284  0.1038  0.6215
11065TIP3    H154610   0.185   1.650  12.284 -0.0357 -0.1992  0.1638
11065TIP3    H254611   0.306   1.729  12.238 -0.1068  1.3165  2.4500
11066TIP3   OH254612   2.300   0.506  14.590 -0.3023  0.0118  0.0116
11066TIP3    H154613   2.357   0.545  14.525 -0.2454 -0.9034 -0.5061
11066TIP3    H254614   2.357   0.446  14.639 -0.3274  0.7390  0.9548
11067TIP3   OH254615   1.646   1.840   0.545  0.2153  0.2731 -0.1069
11067TIP3    H154616   1.601   1.869   0.465 -1.1771  0.9041  0.8553
11067TIP3    H254617   1.722   1.897   0.552  0.1820  0.4122 -0.8330
11068TIP3   OH254618   6.110   5.386   5.889  0.2358 -0.5868  0.0549
11068TIP3    H154619   6.078   5.455   5.947 -1.5892 -1.3462  0.0009
11068TIP3    H254620   6.134   5.315   5.948  0.8890 -0.3929  0.0282
11069TIP3   OH254621   3.000   3.127  11.087 -0.4832  0.2249 -0.2359
11069TIP3    H154622   2.932   3.172  11.037  0.2227  2.8491  0.9490
11069TIP3    H254623   2.953   3.079  11.155 -1.2142  0.8771 -0.2736
11070TIP3   OH254624   3.133   5.215   1.424  0.0773  0.2410  0.3258
11070TIP3    H154625   3.197   5.220   1.353  1.0060 -0.2936  1.0999
11070TIP3    H254626   3.100   5.125   1.420  0.2697  0.1500  0.6659
11071TIP3   OH254627   4.903   0.756  14.780 -0.7140 -0.3545  0.9900
11071TIP3    H154628   4.858   0.809  14.846 -0.0600 -0.2905  1.3921
11071TIP3    H254629   4.847   0.679  14.770 -0.8229 -0.3691  1.6237
11072TIP3   OH254630   3.096   0.197  10.912 -0.6700  0.0782 -0.2396
11072TIP3    H154631   3.127   0.261  10.848  0.0272 -1.8855 -2.0017
11072TIP3    H254632   3.027   0.148  10.865  1.7054 -3.2154 -0.6415
11073TIP3   OH254633   2.576   1.209   4.533  0.1085  0.5763 -0.2044
11073TIP3    H154634   2.652   1.219   4.591 -0.7839  3.0032  0.6718
11073TIP3    H254635   2.559   1.297   4.500 -1.2175 -0.2470 -1.8720
11074TIP3   OH254636   4.969   2.044   2.444 -0.2779 -0.1983 -0.1472
11074TIP3    H154637   5.042   2.073   2.498  0.0579  0.2199 -0.8085
11074TIP3    H254638   5.005   1.974   2.390  0.0733  1.0100 -1.5484
11075TIP3   OH254639   1.015   1.653  15.253 -0.2754 -0.1062 -0.2726
11075TIP3    H154640   0.927   1.640  15.288 -0.4856 -1.9706 -1.3522
11075TIP3    H254641   1.002   1.666  15.159  0.5043  1.3057 -0.2024
11076TIP3   OH254642   3.136   2.985  15.509 -0.1862  0.1584  0.4323
11076TIP3    H154643   3.101   2.996  15.420  0.5341  1.3962  0.2824
11076TIP3    H254644   3.223   3.025  15.505 -0.1612  0.2593  1.7169
11077TIP3   OH254645   0.641   3.364   1.365 -0.3161 -0.2390  0.4336
11077TIP3    H154646   0.713   3.306   1.390  0.3162  0.3008 -0.0810
11077TIP3    H254647   0.564   3.326   1.406  0.2705 -0.8072  1.0378
11078TIP3   OH254648   0.777   3.075   2.336  0.1171 -0.2900  0.0210
11078TIP3    H154649   0.740   3.163   2.325  1.0084  0.1068  0.0459
11078TIP3    H254650   0.720   3.018   2.285 -0.2965  0.3551 -0.2516
11079TIP3   OH254651   2.233   5.126   1.168  0.2626 -0.0405 -0.3542
11079TIP3    H154652   2.191   5.207   1.141  2.2789  0.9545 -0.6753
11079TIP3    H254653   2.239   5.073   1.089 -0.3893 -0.2060 -0.2973
11080TIP3   OH254654   2.851   1.569   3.101  0.4499  0.4275 -0.0897
11080TIP3    H154655   2.841   1.625   3.024 -0.1222  0.9312  0.3376
11080TIP3    H254656   2.776   1.509   3.097  1.4922 -0.8529 -0.9739
11081TIP3   OH254657   5.233   2.241   0.362  0.0482  0.2958 -0.6226
11081TIP3    H154658   5.246   2.162   0.309 -0.2277 -0.6511  0.6807
11081TIP3    H254659   5.305   2.240   0.425 -1.4823 -0.4398  1.1991
11082TIP3   OH254660   1.496   5.330  16.586  0.3108 -0.5390  0.1378
11082TIP3    H154661   1.538   5.409  16.619 -0.8767 -0.8044  2.5106
11082TIP3    H254662   1.407   5.358  16.562  0.5131 -0.7846 -0.9760
11083TIP3   OH254663   2.463   1.593  16.446 -0.4180  0.9313  0.0339
11083TIP3    H154664   2.433   1.555  16.364 -2.6935 -0.1454  1.2524
11083TIP3    H254665   2.441   1.686  16.439  0.2511  1.0290 -0.9008
11084TIP3   OH254666   0.008   5.763   4.056  0.2397  0.3001 -0.1068
11084TIP3    H154667   0.013   5.682   4.107 -0.9317  0.2387 -0.0514
11084TIP3    H254668  -0.068   5.809   4.091  2.5845  2.9300  1.9730
11085TIP3   OH254669   1.814   6.225   5.299  0.2883 -0.5225  0.1354
11085TIP3    H154670   1.738   6.269   5.261  0.8983  0.8904  0.4657
11085TIP3    H254671   1.843   6.164   5.232 -0.6246 -0.4685 -0.3247
11086TIP3   OH254672   1.224   1.791  17.025 -0.3580  0.2861  0.3588
11086TIP3    H154673   1.233   1.759  17.115  1.6114 -0.6683 -0.1149
11086TIP3    H254674   1.144   1.751  16.993 -0.2290 -0.6752  1.1827
11087TIP3   OH254675   4.313   6.229  15.442 -0.2125  0.0381  0.0731
11087TIP3    H154676   4.342   6.160  15.383 -0.7966  0.5360 -0.8170
11087TIP3    H254677   4.322   6.309  15.391  0.6184  0.6563  1.1464
11088TIP3   OH254678   1.823   1.840   0.989 -0.4471 -0.2791 -0.3886
11088TIP3    H154679   1.836   1.764   1.045  0.2422  0.1010 -0.0230
11088TIP3    H254680   1.886   1.905   1.021 -1.3881  0.6483 -0.3249
11089TIP3   OH254681   5.128   0.663   3.878  0.2741  0.3048 -0.1555
11089TIP3    H154682   5.094   0.743   3.917 -0.3552  0.3448 -0.7770
11089TIP3    H254683   5.221   0.663   3.900  0.3342  1.3348 -0.3704
11090TIP3   OH254684   2.865   3.594   4.915  0.4913 -0.1557 -0.0495
11090TIP3    H154685   2.920   3.671   4.928 -0.0696  0.2005  0.2860
11090TIP3    H254686   2.810   3.616   4.840 -1.2186  0.7195  1.3696
11091TIP3   OH254687   5.389   2.907   1.252 -0.4374  0.1979  0.5822
11091TIP3    H154688   5.320   2.845   1.275  0.8040 -3.0187 -3.0495
11091TIP3    H254689   5.359   2.948   1.171  0.1539  2.0313  1.2393
11092TIP3   OH254690   3.761   3.004  16.002  0.1195 -0.2961 -0.3798
11092TIP3    H154691   3.762   3.097  16.023 -1.8827 -0.0828 -1.0383
11092TIP3    H254692   3.853   2.981  15.992  0.7784  1.1153  1.7856
11093TIP3   OH254693   2.061   3.286   6.029 -0.7895  0.3356  0.9129
11093TIP3    H154694   2.096   3.310   6.115  1.0457 -0.3883  0.4169
11093TIP3    H254695   2.008   3.209   6.046  0.1585 -0.2477  1.3152
11094TIP3   OH254696   5.345   1.506   0.560  0.6649 -0.3046  0.7026
11094TIP3    H154697   5.259   1.531   0.525  2.4854  3.2060 -1.9314
11094TIP3    H254698   5.360   1.567   0.632 -0.1216 -2.8659  3.1802
11095TIP3   OH254699   0.431   4.358   3.946  0.4042  0.2327 -0.8168
11095TIP3    H154700   0.374   4.347   4.022 -0.5332  0.4927 -1.4658
11095TIP3    H254701   0.424   4.452   3.925 -1.3431 -0.2602 -2.7303
11096TIP3   OH254702   5.385   0.795   6.784  0.0420 -0.2690 -0.3119
11096TIP3    H154703   5.294   0.819   6.802  0.6272  1.6774  0.3095
11096TIP3    H254704   5.421   0.870   6.736  1.1260 -1.3485 -1.2739
11097TIP3   OH254705   4.715   6.005  15.377 -0.5923  0.4829 -0.2008
11097TIP3    H154706   4.762   5.921  15.378  0.0198  0.8062  1.5168
11097TIP3    H254707   4.774   6.064  15.329 -0.6307  0.1575 -0.6604
11098TIP3   OH254708   6.735   1.193   2.444 -0.6011 -0.2895 -0.8466
11098TIP3    H154709   6.675   1.267   2.451 -0.5372 -0.3322  0.3065
11098TIP3    H254710   6.757   1.189   2.351 -1.1113  0.7340 -1.0253
11099TIP3   OH254711   6.125   0.992   4.199 -0.2719 -0.2543  0.7451
11099TIP3    H154712   6.110   1.043   4.279  1.6523 -1.8188  2.2030
11099TIP3    H254713   6.049   0.933   4.194 -1.9615  1.8842 -0.3690
11100TIP3   OH254714   0.670   2.592  10.646 -0.0604 -0.6472  0.3512
11100TIP3    H154715   0.694   2.622  10.558 -1.5447  0.6591  0.3354
11100TIP3    H254716   0.574   2.593  10.646 -0.0882 -0.8522  1.9084
11101TIP3   OH254717   2.736   5.826  15.519  0.3381  0.0947 -0.2611
11101TIP3    H154718   2.700   5.860  15.437 -0.0207 -0.0829 -0.1793
11101TIP3    H254719   2.660   5.796  15.568  0.3646  1.7152  0.8628
11102TIP3   OH254720   0.023   4.691  16.165  0.2321  0.3628  0.3506
11102TIP3    H154721  -0.071   4.676  16.170  0.4361 -0.8118  1.0636
11102TIP3    H254722   0.035   4.781  16.196 -0.7290  0.8694 -0.6892
11103TIP3   OH254723   5.114   4.366  12.657 -0.0348  0.2145 -0.7896
11103TIP3    H154724   5.086   4.280  12.689 -1.4636  1.2904  1.0361
11103TIP3    H254725   5.097   4.363  12.563 -3.0076 -0.4892 -0.3297
11104TIP3   OH254726   6.075   0.829   4.811  0.1723 -0.2608  0.4378
11104TIP3    H154727   6.155   0.867   4.774  0.3121 -1.4849 -0.5910
11104TIP3    H254728   6.091   0.735   4.810 -2.0150 -0.6961 -1.6227
11105TIP3   OH254729   0.191   4.424   1.922  0.1045 -0.2777 -0.1809
11105TIP3    H154730   0.245   4.359   1.876 -0.7764 -0.9731 -0.2512
11105TIP3    H254731   0.202   4.504   1.871  1.7530 -0.1515  0.2905
11106TIP3   OH254732   2.960   6.593   5.560  0.4072 -0.4072 -0.8617
11106TIP3    H154733   3.045   6.606   5.520  1.4233 -1.3146  0.8853
11106TIP3    H254734   2.905   6.663   5.525  2.7181  2.1679  0.3334
11107TIP3   OH254735   0.922   1.878   5.200  0.0083 -0.4339  0.5342
11107TIP3    H154736   0.905   1.919   5.284  0.5538  1.4142 -0.1962
11107TIP3    H254737   0.987   1.810   5.218  1.6867  1.3023  1.3346
11108TIP3   OH254738   4.860   0.856  14.421 -0.0231 -0.0961  0.3578
11108TIP3    H154739   4.924   0.785  14.417  0.2361  0.1187  0.6352
11108TIP3    H254740   4.835   0.861  14.513  1.4818  1.4901  0.7377
11109TIP3   OH254741   6.513   1.415  13.481  0.1649  0.0423  0.3695
11109TIP3    H154742   6.421   1.438  13.472  0.4579  0.8070 -0.9493
11109TIP3    H254743   6.560   1.491  13.445  1.3295 -0.0823  1.5467
11110TIP3   OH254744   6.040   3.018  16.592  0.2233 -0.2673 -0.2529
11110TIP3    H154745   6.052   3.039  16.684 -0.7494 -0.6753 -0.0214
11110TIP3    H254746   5.949   3.042  16.573  0.2778 -0.5960 -0.9938
11111TIP3   OH254747   1.562   1.533   3.502 -0.3702 -0.0917  0.1532
11111TIP3    H154748   1.642   1.491   3.470  0.0145 -0.0655  1.0529
11111TIP3    H254749   1.590   1.581   3.580 -1.2011  0.2054  0.2794
11112TIP3   OH254750   1.578   3.368  11.624  0.0265  0.9532  0.3049
11112TIP3    H154751   1.522   3.293  11.606  0.0595  1.3104 -1.5084
11112TIP3    H254752   1.562   3.428  11.551  2.6229  1.1317 -0.2418
11113TIP3   OH254753   3.501   2.961   0.876  0.2191 -0.0858 -0.1881
11113TIP3    H154754   3.455   2.893   0.828  0.3523 -0.6524  0.4669
11113TIP3    H254755   3.594   2.943   0.860  0.5261 -2.6025  3.1556
11114TIP3   OH254756   6.451   6.374   5.153  0.4825 -0.0982 -0.5264
11114TIP3    H154757   6.492   6.298   5.111 -0.2538  0.0510 -1.5649
11114TIP3    H254758   6.357   6.359   5.142  0.3337  0.9289 -0.6768
11115TIP3   OH254759   3.128   2.855  16.301 -0.0798 -0.2918 -0.5154
11115TIP3    H154760   3.153   2.909  16.226 -0.2172  1.1035  0.4153
11115TIP3    H254761   3.041   2.823  16.278 -1.1320  2.0064 -0.0325
11116TIP3   OH254762   5.777   1.955   1.752  0.5393 -0.0381  0.2413
11116TIP3    H154763   5.744   2.045   1.757  0.6379  0.1169 -1.4729
11116TIP3    H254764   5.744   1.921   1.669  1.5287 -1.1646  0.2774
11117TIP3   OH254765   2.731   6.255   1.247 -0.0175 -0.2561 -0.5292
11117TIP3    H154766   2.687   6.340   1.242 -0.7384 -0.6065 -0.3701
11117TIP3    H254767   2.682   6.207   1.313  1.5361 -0.1543  0.7454
11118TIP3   OH254768   5.176   6.269  15.259 -0.4126 -0.4749  0.0275
11118TIP3    H154769   5.157   6.271  15.352 -2.2445 -2.2674 -0.2437
11118TIP3    H254770   5.110   6.210  15.222 -0.7457  1.3588 -2.6311
11119TIP3   OH254771   1.286   2.347  12.888  0.1952 -0.2312  0.2041
11119TIP3    H154772   1.344   2.272  12.901 -1.7614 -1.5892  1.8264
11119TIP3    H254773   1.249   2.334  12.801  2.3413  0.7503 -0.9258
11120TIP3   OH254774   4.754   4.490   3.965  0.2814  0.1234  0.3201
11120TIP3    H154775   4.685   4.500   4.031 -0.5767  0.8747 -0.6577
11120TIP3    H254776   4.790   4.402   3.981 -2.1181 -1.0514 -0.2454
11121TIP3   OH254777   0.523   4.304   1.575  0.3702  0.1261 -0.2578
11121TIP3    H154778   0.617   4.289   1.579  0.1699 -1.1687  0.1822
11121TIP3    H254779   0.497   4.278   1.487  0.4778  0.9112 -0.5298
11122TIP3   OH254780   6.174   4.509   4.336 -0.6914  0.1410  0.4182
11122TIP3    H154781   6.109   4.439   4.337 -0.1473 -0.3721  0.5957
11122TIP3    H254782   6.133   4.579   4.387 -1.3067  0.0195  0.1038
11123TIP3   OH254783   4.969   0.337  13.666  0.2414  0.0836 -0.2542
11123TIP3    H154784   4.923   0.341  13.582 -0.6163 -1.3687  0.1184
11123TIP3    H254785   4.936   0.412  13.715 -0.2799  0.1509 -0.6998
11124TIP3   OH254786   4.952   6.737  16.638  0.5462 -0.8879 -0.0828
11124TIP3    H154787   4.860   6.756  16.621  0.5563  0.1015  0.8778
11124TIP3    H254788   4.997   6.760  16.557  0.1557  0.2412  0.0084
11125TIP3   OH254789   5.082   2.025  14.724 -0.1762  0.3605 -0.1714
11125TIP3    H154790   5.144   1.989  14.788  0.2418 -0.6108 -1.0986
11125TIP3    H254791   4.998   1.985  14.746  0.1299 -0.6052 -0.7080
11126TIP3   OH254792   5.325   0.868   1.583  0.1684 -0.2414 -0.1235
11126TIP3    H154793   5.357   0.871   1.493 -0.4610  0.3312 -0.3429
11126TIP3    H254794   5.390   0.816   1.631  0.5633 -0.4567 -0.8828
11127TIP3   OH254795   4.073   6.774   1.652 -0.4970  0.7101  0.5066
11127TIP3    H154796   3.999   6.799   1.598 -1.8998 -0.1711  1.9316
11127TIP3    H254797   4.143   6.754   1.589 -1.1421  2.4057 -0.8349
11128TIP3   OH254798   1.939   2.919  15.309 -0.2364  0.4667  0.1870
11128TIP3    H154799   1.974   2.983  15.247  0.4711 -0.7717 -0.7392
11128TIP3    H254800   1.873   2.871  15.259  1.2228 -1.3923 -0.0828
11129TIP3   OH254801   3.181   4.272  13.635 -0.5471 -0.1128  0.1900
11129TIP3    H154802   3.150   4.205  13.697 -0.3928  0.7536  1.2202
11129TIP3    H254803   3.115   4.341  13.639 -0.2922  0.1633 -0.2705
11130TIP3   OH254804   2.238   6.041  13.154 -0.0409  0.3956  0.2423
11130TIP3    H154805   2.333   6.043  13.151 -0.0443  0.2053 -0.0155
11130TIP3    H254806   2.210   6.089  13.076 -0.2138  5.2189  2.8507
11131TIP3   OH254807   2.967   5.414  10.784  0.4473  0.2730 -0.1468
11131TIP3    H154808   2.925   5.454  10.708  0.4186  0.9250  0.2037
11131TIP3    H254809   3.060   5.418  10.766  0.4391  0.4071 -0.1566
11132TIP3   OH254810   6.606   0.997   2.680  0.3445 -0.3978  0.4787
11132TIP3    H154811   6.637   1.083   2.654 -0.2097 -0.0060  1.0796
11132TIP3    H254812   6.542   0.972   2.613 -1.1058  0.6205  1.4136
11133TIP3   OH254813   0.235   0.792  16.630 -0.3289  0.0724  0.3337
11133TIP3    H154814   0.171   0.739  16.583 -1.2988  0.6460  0.9752
11133TIP3    H254815   0.187   0.871  16.654  0.4344  0.2222  1.4126
11134TIP3   OH254816   4.560   5.018   0.858  0.4696 -0.3028 -0.4276
11134TIP3    H154817   4.589   4.981   0.941 -0.4734  0.1874  0.1393
11134TIP3    H254818   4.612   5.097   0.847  2.8420 -1.9329 -1.8803
11135TIP3   OH254819   3.212   2.508  16.246  0.6044  0.4496 -0.6534
11135TIP3    H154820   3.259   2.562  16.183  1.2532 -0.0343 -0.6051
11135TIP3    H254821   3.247   2.420  16.232  0.8149  0.3426  0.4146
11136TIP3   OH254822   0.690   4.974  11.765  0.3032  0.2192 -0.0927
11136TIP3    H154823   0.643   4.902  11.807 -0.7340 -0.1757 -1.8092
11136TIP3    H254824   0.638   4.993  11.686  2.9274 -0.1051 -2.0102
11137TIP3   OH254825   6.186   1.447   2.303  0.3406 -0.5274 -0.7330
11137TIP3    H154826   6.096   1.413   2.308  0.5410 -0.9273  1.2702
11137TIP3    H254827   6.239   1.378   2.344  1.1059  1.0756  1.1012
11138TIP3   OH254828   6.264   0.485  13.164 -0.1685  0.3335 -0.2799
11138TIP3    H154829   6.345   0.529  13.188  0.0456  0.6414 -1.4848
11138TIP3    H254830   6.229   0.538  13.092  0.0743 -1.4366 -1.7630
11139TIP3   OH254831   4.801   5.289   2.593 -0.0269 -0.1302 -0.3289
11139TIP3    H154832   4.891   5.290   2.627  0.2937  0.5485 -1.1597
11139TIP3    H254833   4.773   5.198   2.602  0.0991 -0.0212  1.5597
11140TIP3   OH254834   1.599   5.724  15.788  0.4674  0.6366 -0.2274
11140TIP3    H154835   1.548   5.672  15.850 -0.5350  0.2362 -1.3719
11140TIP3    H254836   1.666   5.664  15.756  0.7460  0.7338  0.1573
11141TIP3   OH254837   3.565   1.120  14.038  0.4941  0.2277 -0.2625
11141TIP3    H154838   3.583   1.115  14.132 -0.2347  2.6685  0.0638
11141TIP3    H254839   3.482   1.073  14.028 -0.9093  2.3063  0.8547
11142TIP3   OH254840   6.249   1.688   2.020 -0.1017 -0.1303 -0.9813
11142TIP3    H154841   6.251   1.781   1.998  2.0985  0.5804  1.6202
11142TIP3    H254842   6.180   1.680   2.085  1.7415  0.4605  1.1935
11143TIP3   OH254843   4.049   1.673  15.416  0.0555  0.9905 -0.6169
11143TIP3    H154844   4.124   1.732  15.426 -0.2587  1.3001  0.0266
11143TIP3    H254845   3.987   1.721  15.361 -1.3874  2.5121  2.1136
11144TIP3   OH254846   5.123   0.363   0.154 -0.0469 -0.7939 -0.5959
11144TIP3    H154847   5.143   0.419   0.229 -1.2917 -1.5563  0.3384
11144TIP3    H254848   5.204   0.361   0.103  0.7572 -0.0918  0.6111
11145TIP3   OH254849   1.243   3.495  14.626  0.2410 -0.8342 -0.3220
11145TIP3    H154850   1.297   3.562  14.666 -0.7235  0.3679 -0.9536
11145TIP3    H254851   1.172   3.544  14.582 -0.2447 -2.2297 -1.1734
11146TIP3   OH254852   4.323   5.724  17.040 -0.8727  0.1721  0.3115
11146TIP3    H154853   4.270   5.798  17.010 -2.3730  0.0095  2.3666
11146TIP3    H254854   4.413   5.755  17.033 -1.4717  2.4338  1.5715
11147TIP3   OH254855   6.049   1.405   2.874 -0.2684  0.7656 -0.2761
11147TIP3    H154856   6.019   1.428   2.786 -1.9968  1.9026  0.5693
11147TIP3    H254857   6.075   1.313   2.867  0.5834  1.0983 -2.1941
11148TIP3   OH254858   3.682   1.503  10.721  0.1697  0.0456  0.0545
11148TIP3    H154859   3.719   1.488  10.807  3.6073 -2.7098 -1.6714
11148TIP3    H254860   3.730   1.578  10.686 -2.4207  2.3202  0.9542
11149TIP3   OH254861   1.138   4.549   0.132 -0.1050  0.2702 -0.0726
11149TIP3    H154862   1.131   4.589   0.219  0.3875  1.5419 -0.5937
11149TIP3    H254863   1.060   4.494   0.124 -0.6118  0.8448  0.8175
11150TIP3   OH254864   5.712   3.726   0.566  0.5371 -0.6793  0.2371
11150TIP3    H154865   5.626   3.763   0.586  1.3400  1.0425  0.7020
11150TIP3    H254866   5.707   3.702   0.473 -0.6624 -1.3067  0.4429
11151TIP3   OH254867   3.821   4.580  12.832  0.4152 -0.8015 -0.2679
11151TIP3    H154868   3.832   4.598  12.739 -0.0421  0.3527 -0.1086
11151TIP3    H254869   3.808   4.666  12.872 -3.8333 -1.4795  0.2888
11152TIP3   OH254870   1.550   1.525   6.070  0.0054  0.2931 -0.4609
11152TIP3    H154871   1.633   1.519   6.118 -0.8243 -1.0580  0.9257
11152TIP3    H254872   1.509   1.605   6.104 -1.0090 -1.1359  2.0063
11153TIP3   OH254873   2.084   1.671  15.428 -0.0560 -0.0067 -0.1009
11153TIP3    H154874   2.111   1.723  15.504 -0.8187  0.5658 -0.2061
11153TIP3    H254875   2.096   1.730  15.353  1.6471 -0.8976 -0.5717
11154TIP3   OH254876   3.656   5.760  11.012 -0.2981 -0.9102 -0.1095
11154TIP3    H154877   3.712   5.687  10.986  0.1101 -0.3229 -0.9316
11154TIP3    H254878   3.698   5.837  10.975  0.2821  0.0157  2.2995
11155TIP3   OH254879   2.579   1.367   3.220  0.1783 -0.6311 -0.5615
11155TIP3    H154880   2.612   1.284   3.187 -2.6142 -1.5677 -1.3292
11155TIP3    H254881   2.578   1.425   3.144  4.1820  0.9860  0.4030
11156TIP3   OH254882   6.292   0.322  16.359 -0.0237 -0.2293 -0.4062
11156TIP3    H154883   6.202   0.317  16.391 -0.7417  1.8564 -1.8616
11156TIP3    H254884   6.335   0.244  16.395 -1.9569 -0.4632  1.6337
11157TIP3   OH254885   4.394   6.476   1.541  0.0345  0.8162 -0.0116
11157TIP3    H154886   4.483   6.486   1.507  1.2412 -0.2351  2.5394
11157TIP3    H254887   4.350   6.558   1.517  1.0274  0.5949 -2.9840
11158TIP3   OH254888   3.853   3.445  12.632  0.0351  0.3061  0.5048
11158TIP3    H154889   3.770   3.452  12.584  0.6316  0.8036 -0.5038
11158TIP3    H254890   3.878   3.536  12.648  0.6467  0.1763  0.3133
11159TIP3   OH254891   3.845   6.465   3.603 -0.3479 -0.3004  0.3039
11159TIP3    H154892   3.774   6.508   3.556  0.9874  0.5821 -0.9867
11159TIP3    H254893   3.838   6.499   3.693 -0.2316  1.5095 -0.3252
11160TIP3   OH254894   1.375   4.960   1.161 -0.4083  0.4523  0.3660
11160TIP3    H154895   1.362   5.053   1.179  0.6263  0.7366 -0.2264
11160TIP3    H254896   1.466   4.944   1.186 -0.4154 -0.2701 -0.0409
11161TIP3   OH254897   1.149   3.863  15.798 -0.1230  0.1955  0.1189
11161TIP3    H154898   1.233   3.853  15.843  1.4668  1.2110 -2.3814
11161TIP3    H254899   1.167   3.834  15.708 -2.0879  1.6489 -0.8136
11162TIP3   OH254900   3.182   3.912  15.543 -0.1897 -0.5246  0.4649
11162TIP3    H154901   3.239   3.850  15.496  0.5938  1.3225 -1.1375
11162TIP3    H254902   3.228   3.995  15.538 -2.3311  0.7236  0.4906
11163TIP3   OH254903   1.018   6.578  13.846 -0.3549  0.5746 -0.3817
11163TIP3    H154904   0.998   6.530  13.765 -0.7105  0.2925 -0.1283
11163TIP3    H254905   1.102   6.542  13.874 -1.3515 -1.0678  0.6602
11164TIP3   OH254906   1.725   2.608   1.098  0.2031 -0.2634 -0.6582
11164TIP3    H154907   1.679   2.542   1.046  0.5457 -2.5607  1.7152
11164TIP3    H254908   1.816   2.576   1.101  0.2074 -0.2192  1.1938
11165TIP3   OH254909   0.164   1.036   0.876  0.5182  0.0787 -0.0040
11165TIP3    H154910   0.142   1.084   0.796  0.6801 -1.3040 -0.9108
11165TIP3    H254911   0.238   1.084   0.913 -0.5364  1.6451  0.1863
11166TIP3   OH254912   4.239   3.719   2.137  0.1013 -0.3499  0.4755
11166TIP3    H154913   4.332   3.698   2.143 -0.3425 -2.1728  1.4442
11166TIP3    H254914   4.222   3.723   2.042  1.3111  0.8539  0.2803
11167TIP3   OH254915   5.644   2.678   1.733 -0.0694 -0.5026  0.3810
11167TIP3    H154916   5.708   2.648   1.669 -0.6763  1.0683 -1.0596
11167TIP3    H254917   5.695   2.723   1.800  0.5517 -1.9485  0.9182
11168TIP3   OH254918   1.285   3.148   2.172  0.3622  0.1521  0.7021
11168TIP3    H154919   1.299   3.113   2.260  0.0681 -0.2126  0.6058
11168TIP3    H254920   1.373   3.153   2.134  0.6637  1.6428  1.5038
11169TIP3   OH254921   2.110   2.051  10.783 -0.1420  0.6158  0.2342
11169TIP3    H154922   2.088   2.121  10.844  0.5182  0.3637  0.7680
11169TIP3    H254923   2.205   2.043  10.788  0.0626  1.2597 -1.5640
11170TIP3   OH254924   1.593   1.184   1.384 -0.1858  0.7377  0.1337
11170TIP3    H154925   1.642   1.139   1.452  1.6827  2.0264 -0.2767
11170TIP3    H254926   1.564   1.266   1.424 -2.9133 -0.3888  0.6515
11171TIP3   OH254927   5.957   1.339   2.419 -0.2911 -0.8499  0.0325
11171TIP3    H154928   5.970   1.259   2.470 -0.1242 -1.1418 -0.4718
11171TIP3    H254929   5.881   1.322   2.365 -0.2915 -0.6454 -0.0336
11172TIP3   OH254930   1.513   6.434   1.437  0.1571  0.2513 -0.6354
11172TIP3    H154931   1.423   6.467   1.443  0.4361  0.7338  1.5121
11172TIP3    H254932   1.525   6.414   1.344 -2.2641 -0.1143 -0.9227
11173TIP3   OH254933   2.674   2.076   0.413  0.2090  0.4157  0.2264
11173TIP3    H154934   2.741   2.085   0.481 -1.0723  2.1812  1.3277
11173TIP3    H254935   2.698   2.141   0.347 -0.3350  0.9739  0.5704
11174TIP3   OH254936   2.343   1.717   3.272 -0.2124  0.1220 -0.3609
11174TIP3    H154937   2.428   1.702   3.312 -0.5500 -0.2087  0.2648
11174TIP3    H254938   2.348   1.805   3.235  0.3230  0.1867 -0.1371
11175TIP3   OH254939   1.000   3.085   5.781  0.7595  0.1759 -0.1945
11175TIP3    H154940   0.934   3.120   5.841  0.1495  1.8394 -1.7220
11175TIP3    H254941   0.967   2.998   5.757 -0.5751  0.7214 -0.4373
11176TIP3   OH254942   3.208   0.573  16.645 -0.3007 -0.0057 -0.5140
11176TIP3    H154943   3.214   0.483  16.678 -1.4460  0.8081  2.2044
11176TIP3    H254944   3.298   0.606  16.650  0.0356 -0.8139 -1.0219
11177TIP3   OH254945   5.941   1.260  15.435 -0.2728  0.3069  0.2789
11177TIP3    H154946   5.872   1.316  15.398 -0.9706  0.7345  2.1506
11177TIP3    H254947   5.903   1.225  15.515  0.6613 -1.7787 -0.1217
11178TIP3   OH254948   2.546   4.080  11.453 -0.6764  0.1874  0.3423
11178TIP3    H154949   2.622   4.062  11.508 -0.8518  0.4784  0.6805
11178TIP3    H254950   2.485   4.009  11.473 -0.8217  0.4069  0.6694
11179TIP3   OH254951   4.116   0.799  11.850 -0.9029 -0.0444  0.2843
11179TIP3    H154952   4.033   0.824  11.810 -0.3607  0.7486 -0.3965
11179TIP3    H254953   4.179   0.864  11.817  0.2905 -1.4780 -0.3824
11180TIP3   OH254954   2.296   4.000  12.662  0.3977  0.3234 -0.5012
11180TIP3    H154955   2.386   4.010  12.630  1.0236 -0.2726  0.9947
11180TIP3    H254956   2.266   3.918  12.622  1.2263 -0.4967  0.5012
11181TIP3   OH254957   4.430   2.711   4.669  0.3577  0.2221 -0.1734
11181TIP3    H154958   4.395   2.622   4.672  1.4450 -0.2013  0.6617
11181TIP3    H254959   4.469   2.718   4.582 -0.1152  0.0491 -0.4072
11182TIP3   OH254960   3.853   0.341   2.448  0.7513 -0.0928 -0.4327
11182TIP3    H154961   3.767   0.383   2.446  0.2065 -0.9403  1.6840
11182TIP3    H254962   3.913   0.406   2.413 -0.7002  0.6171 -1.7213
11183TIP3   OH254963   2.215   3.047   3.534 -0.4457  0.3451 -0.3424
11183TIP3    H154964   2.248   3.135   3.518 -0.5818  0.5215  0.2982
11183TIP3    H254965   2.175   3.052   3.621 -0.7562 -0.2621 -0.4441
11184TIP3   OH254966   5.212   1.735   0.082 -0.0378  0.7783 -0.2986
11184TIP3    H154967   5.221   1.658   0.026  0.6100  0.5887  0.0535
11184TIP3    H254968   5.221   1.701   0.171 -1.4777  1.0163 -0.0323
11185TIP3   OH254969   1.048   5.661   2.703  0.1877  0.3319 -0.2292
11185TIP3    H154970   0.955   5.674   2.720 -0.3529 -2.0878 -0.9060
11185TIP3    H254971   1.078   5.604   2.773  0.3263 -1.5436 -1.7238
11186TIP3   OH254972   3.774   0.350  16.119 -0.2430 -0.0584 -0.1076
11186TIP3    H154973   3.824   0.431  16.112 -0.4160 -0.0490 -1.4393
11186TIP3    H254974   3.764   0.337  16.213  0.1356  1.2474  0.1414
11187TIP3   OH254975   4.275   4.925  13.449  0.4437 -0.5505 -0.0313
11187TIP3    H154976   4.335   4.912  13.522  1.1160 -1.6341 -0.7507
11187TIP3    H254977   4.189   4.937  13.491  1.2370  2.0617  1.0570
11188TIP3   OH254978   1.150   1.438   0.209 -0.2208  0.5660 -0.3023
11188TIP3    H154979   1.143   1.354   0.254  0.7750 -0.0959 -1.3447
11188TIP3    H254980   1.098   1.427   0.129  2.2825 -0.1345 -1.9341
11189TIP3   OH254981   0.846   0.975   3.899 -0.4652 -0.1444 -0.0184
11189TIP3    H154982   0.912   0.955   3.832  0.8403 -0.5744  1.3304
11189TIP3    H254983   0.830   0.891   3.943  0.1891  0.4727  1.4723
11190TIP3   OH254984   6.238   5.623  12.933 -0.1518 -0.3750  0.3376
11190TIP3    H154985   6.233   5.717  12.916  3.7017 -0.1459 -0.4278
11190TIP3    H254986   6.149   5.592  12.922 -1.4106  3.0286 -0.2784
11191TIP3   OH254987   4.676   1.369   4.094  0.0750  0.2627  0.0192
11191TIP3    H154988   4.750   1.421   4.063 -0.2674  1.3201  0.9042
11191TIP3    H254989   4.707   1.329   4.175  0.0744 -0.2954 -0.2502
11192TIP3   OH254990   4.757   1.611  16.290  0.2970 -0.0907 -0.2031
11192TIP3    H154991   4.813   1.552  16.340 -0.9801  0.3605  1.8567
11192TIP3    H254992   4.729   1.677  16.353 -3.5356 -0.9504 -0.7721
11193TIP3   OH254993   1.578   4.990  12.998 -0.4410  0.1213 -0.0415
11193TIP3    H154994   1.582   5.059  13.063  1.0687 -0.8623  0.9842
11193TIP3    H254995   1.667   4.954  12.995 -1.1712 -1.8111 -0.4728
11194TIP3   OH254996   2.626   4.131   0.794  0.0893 -0.4774  0.0318
11194TIP3    H154997   2.546   4.081   0.775 -1.9882  2.6378 -0.1357
11194TIP3    H254998   2.617   4.155   0.886  2.0401 -1.9185  0.6601
11195TIP3   OH254999   0.988   1.229  13.955  0.5978 -0.0203  0.5523
11195TIP3    H155000   1.033   1.153  13.992 -2.0516 -0.3257  3.4753
11195TIP3    H255001   0.940   1.194  13.880  2.9901 -0.1648 -1.0396
11196TIP3   OH255002   0.777   1.752   1.413 -0.3608 -0.1977  0.3864
11196TIP3    H155003   0.700   1.711   1.453  1.3944 -1.1911  3.0465
11196TIP3    H255004   0.847   1.689   1.426  1.4508  1.7017  0.3540
11197TIP3   OH255005   4.486   0.515  15.122 -0.6163  0.3300 -0.8152
11197TIP3    H155006   4.547   0.581  15.156 -0.1161 -0.0934 -0.8776
11197TIP3    H255007   4.419   0.508  15.190  0.0779 -0.1036 -0.1546
11198TIP3   OH255008   5.653   4.248  14.513  0.0725 -0.7894  0.0459
11198TIP3    H155009   5.641   4.271  14.421 -0.6404 -0.2505  0.2674
11198TIP3    H255010   5.627   4.156  14.519  1.4457 -1.2409 -0.5489
11199TIP3   OH255011   0.694   3.090  14.612  0.3405 -0.0832  0.3887
11199TIP3    H155012   0.743   3.043  14.544  2.8944 -0.4998  2.3625
11199TIP3    H255013   0.617   3.034  14.628  0.1436 -0.4217 -1.4727
11200TIP3   OH255014   5.563   4.780   4.457 -0.3458 -0.7261 -0.6254
11200TIP3    H155015   5.476   4.769   4.496 -1.1514 -0.7810 -2.3758
11200TIP3    H255016   5.600   4.692   4.457 -0.7558 -0.8986 -0.9314
11201TIP3   OH255017   6.449   2.551   4.089  0.5170 -0.0100  0.1423
11201TIP3    H155018   6.414   2.501   4.015 -0.9717 -3.4885  2.9078
11201TIP3    H255019   6.542   2.529   4.090 -0.1625 -3.4537  1.5462
11202TIP3   OH255020   1.602   5.859   5.118  0.2967 -0.5209 -0.4520
11202TIP3    H155021   1.581   5.807   5.195 -1.6127 -0.0801 -0.6420
11202TIP3    H255022   1.545   5.824   5.049 -0.3093  1.1381 -0.8400
11203TIP3   OH255023   0.841   6.213   5.506 -0.3866 -0.0461  0.3033
11203TIP3    H155024   0.761   6.219   5.559  0.1425  0.9527  1.0252
11203TIP3    H255025   0.863   6.304   5.487 -1.1979 -0.3595 -2.6740
11204TIP3   OH255026   3.524   2.737  10.960 -0.6388 -0.0586 -0.2557
11204TIP3    H155027   3.596   2.677  10.980 -0.5512  0.1577  0.0891
11204TIP3    H255028   3.477   2.695  10.888  0.1012  0.0139 -0.7950
11205TIP3   OH255029   0.943   4.532   0.974  0.3616  0.1378  0.7318
11205TIP3    H155030   0.958   4.519   1.068 -2.1964 -0.3879  1.1384
11205TIP3    H255031   0.888   4.458   0.948  3.1552 -1.2522 -1.8705
11206TIP3   OH255032   5.290   4.302   3.938 -0.0464  0.2015 -0.4700
11206TIP3    H155033   5.351   4.321   3.867 -0.0583  0.7944 -0.3285
11206TIP3    H255034   5.271   4.209   3.929 -1.0630  0.5091 -2.0627
11207TIP3   OH255035   4.859   4.390  10.435 -0.0632 -0.0936 -0.4033
11207TIP3    H155036   4.870   4.479  10.402  0.9087  0.4441  1.2208
11207TIP3    H255037   4.940   4.373  10.482 -0.8732 -1.2512  0.6134
11208TIP3   OH255038   1.616   0.780  12.560 -0.0848 -0.3227 -0.5995
11208TIP3    H155039   1.576   0.697  12.587  0.3371 -0.7146 -1.1517
11208TIP3    H255040   1.597   0.840  12.632  2.0986 -1.6749  1.2780
11209TIP3   OH255041   0.139   1.088   1.609 -0.1151  0.1079 -0.1340
11209TIP3    H155042   0.091   1.147   1.552  0.3391  0.8098  0.1932
11209TIP3    H255043   0.230   1.092   1.578  0.3586  1.3668  1.2984
11210TIP3   OH255044   6.740   0.154   4.419  0.3580  0.6015  0.9261
11210TIP3    H155045   6.679   0.081   4.406  1.8179 -0.4406 -0.5427
11210TIP3    H255046   6.684   0.228   4.444 -1.1488 -1.0719  2.9874
11211TIP3   OH255047   3.240   0.842  15.631  0.5960  0.2648 -0.2266
11211TIP3    H155048   3.225   0.748  15.634  1.8440 -0.2623 -4.2124
11211TIP3    H255049   3.325   0.854  15.674  0.4210 -0.4404  0.3224
11212TIP3   OH255050   6.543   2.431   1.680  0.0374  0.3197 -0.0625
11212TIP3    H155051   6.635   2.410   1.694  0.3342  1.2524 -0.5717
11212TIP3    H255052   6.510   2.453   1.766 -0.4134 -2.5547  0.6170
11213TIP3   OH255053   0.956   5.936   6.304  0.2489 -0.9398 -0.1087
11213TIP3    H155054   0.939   5.843   6.316  3.2718 -1.2871  2.7915
11213TIP3    H255055   0.905   5.979   6.372 -1.1549 -0.3635 -1.4517
11214TIP3   OH255056   0.169   1.346  16.516 -0.2336  0.4883  0.3193
11214TIP3    H155057   0.155   1.439  16.532 -1.4639  0.3767  0.0290
11214TIP3    H255058   0.122   1.328  16.435 -1.1459 -0.6350  1.0610
11215TIP3   OH255059   1.556   3.513   2.147  0.0822  0.3439  0.0167
11215TIP3    H155060   1.526   3.505   2.238 -1.7970 -1.4577 -0.6838
11215TIP3    H255061   1.535   3.603   2.122 -0.0807  0.6235  1.1254
11216TIP3   OH255062   3.937   4.165   4.656 -0.0175  0.5793  0.5318
11216TIP3    H155063   3.874   4.236   4.671 -0.5225 -0.2286  2.6046
11216TIP3    H255064   3.886   4.085   4.668  1.1322 -0.1067  0.9606
11217TIP3   OH255065   1.556   2.966  13.784 -0.3427 -0.0379 -0.0991
11217TIP3    H155066   1.603   2.967  13.701 -0.6200 -0.2531 -0.2603
11217TIP3    H255067   1.604   2.904  13.839  0.4015  0.8113  0.2374
11218TIP3   OH255068   3.324   0.602   2.547 -0.7726  0.6997  0.2762
11218TIP3    H155069   3.319   0.695   2.565  0.1384  0.8457 -0.1764
11218TIP3    H255070   3.291   0.593   2.457 -1.8775  0.4366  0.6890
11219TIP3   OH255071   0.857   2.126   3.696 -0.2883  0.1060 -0.3129
11219TIP3    H155072   0.851   2.219   3.716 -0.2067  0.0964 -0.2452
11219TIP3    H255073   0.940   2.097   3.736  0.2462  0.2484 -1.2929
11220TIP3   OH255074   3.240   1.145  16.430  0.0462 -0.7909 -0.3235
11220TIP3    H155075   3.289   1.227  16.439 -0.1210 -0.5549 -1.3459
11220TIP3    H255076   3.278   1.103  16.353 -1.4974 -0.4666 -1.3270
11221TIP3   OH255077   3.097   4.805   4.909  0.5876 -0.5321  0.4797
11221TIP3    H155078   3.067   4.869   4.845  0.5092  0.6874  1.6956
11221TIP3    H255079   3.017   4.775   4.952  0.7768  0.0622  1.2765
11222TIP3   OH255080   4.006   1.414   3.956  0.2487 -0.1164 -0.1208
11222TIP3    H155081   3.936   1.375   3.904  0.5627  0.6653 -1.1577
11222TIP3    H255082   4.067   1.342   3.971  0.7200 -0.1272 -1.8337
11223TIP3   OH255083   5.465   3.088  12.439 -0.6913  0.0582 -0.2448
11223TIP3    H155084   5.503   3.173  12.464 -0.6598  0.8025 -2.5293
11223TIP3    H255085   5.382   3.085  12.486  0.5738 -0.0021  2.1160
11224TIP3   OH255086   3.602   4.597  13.493  0.2073  0.4308 -0.6217
11224TIP3    H155087   3.511   4.622  13.510  0.2687  0.6403 -0.6027
11224TIP3    H255088   3.648   4.680  13.481  0.2917  0.3135 -1.1598
11225TIP3   OH255089   2.308   2.230   0.464  0.1918 -0.3825 -0.0934
11225TIP3    H155090   2.347   2.143   0.478 -0.2164 -0.7497 -1.1234
11225TIP3    H255091   2.372   2.291   0.498  1.4045 -1.0081 -1.1697
11226TIP3   OH255092   1.028   1.668   5.429  0.3784  0.3671  0.3210
11226TIP3    H155093   0.950   1.617   5.451  0.2260  0.9158  1.0712
11226TIP3    H255094   1.089   1.650   5.501  0.4721  0.9353  0.3830
11227TIP3   OH255095   1.638   5.996   6.324  0.2949 -0.3257  0.3322
11227TIP3    H155096   1.690   6.027   6.249  0.2062 -1.2613 -0.1432
11227TIP3    H255097   1.571   6.062   6.336  2.5936  1.8672  2.0991
11228TIP3   OH255098   3.409   5.538  16.463 -0.6681 -0.5128 -0.1764
11228TIP3    H155099   3.382   5.627  16.440 -2.5500 -0.8020  0.7266
11228TIP3    H255100   3.434   5.544  16.556 -0.5204 -0.8533 -0.1935
11229TIP3   OH255101   3.984   6.634   4.084  0.2576  0.8969 -0.1063
11229TIP3    H155102   3.990   6.687   4.164 -0.0645 -0.8761  1.1567
11229TIP3    H255103   4.059   6.662   4.031  1.8499  0.5157  1.8359
11230TIP3   OH255104   1.905   3.325  16.439  0.1882  0.1518 -0.1631
11230TIP3    H155105   1.897   3.285  16.525  0.5015 -1.1809 -0.7335
11230TIP3    H255106   1.832   3.288  16.388 -2.1143  3.4257  0.3971
11231TIP3   OH255107   4.981   0.123   1.682 -0.0586  0.1990 -0.1022
11231TIP3    H155108   5.072   0.131   1.655  0.5093 -0.7232  1.4444
11231TIP3    H255109   4.967   0.195   1.743 -0.3458  0.2967 -0.2813
11232TIP3   OH255110   5.873   4.914   2.440 -0.6674 -0.2078  0.1105
11232TIP3    H155111   5.816   4.942   2.367 -0.6468 -1.9791 -0.6467
11232TIP3    H255112   5.888   4.994   2.490 -3.7907  0.3950  0.3282
11233TIP3   OH255113   3.667   5.266   6.551 -0.6559  0.3762  0.1767
11233TIP3    H155114   3.708   5.321   6.485  0.6168 -0.7948 -0.0291
11233TIP3    H255115   3.722   5.188   6.557 -2.1883 -0.7219  0.7483
11234TIP3   OH255116   6.675   6.754   2.022 -0.7287  0.0842  0.0902
11234TIP3    H155117   6.714   6.667   2.016 -0.3885  0.0857  1.8368
11234TIP3    H255118   6.708   6.800   1.945  1.9921 -0.2381  0.9470
11235TIP3   OH255119   6.609   0.110   1.028 -0.1461 -0.7975 -0.0018
11235TIP3    H155120   6.613   0.027   0.981 -0.0765 -0.8207  0.0452
11235TIP3    H255121   6.517   0.138   1.020 -0.4831 -1.5203  1.0667
11236TIP3   OH255122   2.625   0.795  10.769  0.1269 -0.2146  0.4052
11236TIP3    H155123   2.533   0.777  10.752 -0.4802  1.7725  1.2174
11236TIP3    H255124   2.630   0.799  10.865  1.2877 -1.2562  0.4090
11237TIP3   OH255125   3.435   2.102   1.133 -0.6458  0.4507 -0.2568
11237TIP3    H155126   3.439   2.182   1.186  2.0887 -0.1455  0.6283
11237TIP3    H255127   3.413   2.132   1.045 -2.1045  1.8593  0.5463
11238TIP3   OH255128   5.091   3.370   3.772  0.5868  0.2828  0.4014
11238TIP3    H155129   5.003   3.365   3.809  0.8594 -0.8718  0.9587
11238TIP3    H255130   5.116   3.278   3.758  1.1930  0.6329 -0.9837
11239TIP3   OH255131   5.600   4.658  12.429  0.6827 -0.1490 -0.0859
11239TIP3    H155132   5.616   4.577  12.477 -0.2493 -0.8928 -1.0139
11239TIP3    H255133   5.671   4.663  12.366 -0.7128 -1.6789 -1.8714
11240TIP3   OH255134   3.587   0.964   2.363  0.5214  0.0230  0.4273
11240TIP3    H155135   3.515   1.004   2.316 -1.1519 -3.5425 -0.4282
11240TIP3    H255136   3.595   0.876   2.325  3.6033 -0.6903  2.2913
11241TIP3   OH255137   0.638   4.094  17.043  0.0395  0.5900  0.4864
11241TIP3    H155138   0.615   4.123  17.132 -0.5742 -2.1541  1.3108
11241TIP3    H255139   0.555   4.064  17.006  0.6453 -0.1958 -0.2480
11242TIP3   OH255140   5.065   5.756  15.900 -0.6241  0.1393  0.1807
11242TIP3    H155141   5.145   5.803  15.880 -0.9983  0.6968 -0.0140
11242TIP3    H255142   5.011   5.818  15.948 -0.9746 -0.2055  0.2429
11243TIP3   OH255143   3.105   0.544   1.686 -0.2619 -0.2201 -0.4794
11243TIP3    H155144   3.161   0.595   1.744  0.6430  0.2566 -1.7347
11243TIP3    H255145   3.018   0.584   1.695 -0.5478 -1.1976  1.7514
11244TIP3   OH255146   5.643   6.150  10.409  0.1963 -0.2955  0.6377
11244TIP3    H155147   5.570   6.095  10.380  0.0482  1.0307 -1.8060
11244TIP3    H255148   5.720   6.113  10.364  0.3877  0.4302  0.3522
11245TIP3   OH255149   2.537   2.065   4.525 -0.4736  0.1574  0.5888
11245TIP3    H155150   2.512   1.977   4.499  0.7866  0.3304 -1.4215
11245TIP3    H255151   2.477   2.123   4.478  0.1028  0.4184  0.1628
11246TIP3   OH255152   6.576   3.164  12.514 -0.3527 -0.9368 -0.7902
11246TIP3    H155153   6.520   3.098  12.473  1.0285 -1.1369 -2.4795
11246TIP3    H255154   6.597   3.127  12.600 -1.4434 -1.6123 -0.7904
11247TIP3   OH255155   5.199   3.848   6.199 -0.4226  0.1760 -1.0831
11247TIP3    H155156   5.177   3.936   6.230 -1.4189 -0.1489 -0.8236
11247TIP3    H255157   5.126   3.794   6.228  1.4249 -1.2926  1.1282
11248TIP3   OH255158   5.871   3.050  16.179  0.1061  0.3718  0.4002
11248TIP3    H155159   5.956   3.093  16.184  0.6353 -0.5763 -0.3137
11248TIP3    H255160   5.812   3.119  16.148  0.4281  1.2569  1.6988
11249TIP3   OH255161   5.676   0.418  11.782  0.1329  0.4640 -0.0642
11249TIP3    H155162   5.622   0.365  11.841 -0.4306  1.2590  0.1437
11249TIP3    H255163   5.668   0.373  11.697  1.4438 -1.0287  0.5606
11250TIP3   OH255164   0.221   1.049   4.048 -0.0429  0.6485 -0.1340
11250TIP3    H155165   0.186   1.058   3.960 -0.5991  0.9142  0.1109
11250TIP3    H255166   0.210   1.136   4.087 -1.0184  0.1928  0.6416
11251TIP3   OH255167   2.486   6.377   5.115 -0.0681  0.0453  0.0945
11251TIP3    H155168   2.470   6.410   5.027  0.7790  0.2385  0.0016
11251TIP3    H255169   2.500   6.283   5.103  0.4584  0.1358 -0.0414
11252TIP3   OH255170   3.661   5.342  12.394  0.0391 -0.2238 -0.9330
11252TIP3    H155171   3.632   5.397  12.321  3.1717  0.2454 -1.9585
11252TIP3    H255172   3.635   5.390  12.472 -1.4601  0.3296 -1.7363
11253TIP3   OH255173   5.385   5.397  11.627 -0.5807  0.3106 -0.7145
11253TIP3    H155174   5.298   5.379  11.591 -1.1606 -1.1684  1.2662
11253TIP3    H255175   5.427   5.311  11.632 -0.1774  0.5682  1.1419
11254TIP3   OH255176   2.041   0.652   3.347  0.5564  0.1726 -0.1355
11254TIP3    H155177   2.025   0.558   3.349 -1.2139  0.4450  0.4069
11254TIP3    H255178   2.121   0.663   3.398  0.7544 -1.0418 -0.1538
11255TIP3   OH255179   2.073   3.872   5.918  0.1519 -0.0877 -0.1036
11255TIP3    H155180   2.086   3.780   5.895 -1.5322 -0.2229 -0.6144
11255TIP3    H255181   2.023   3.869   5.999  0.6443  0.3904  0.2195
11256TIP3   OH255182   4.456   5.407  11.898 -0.1977  1.0049 -0.0493
11256TIP3    H155183   4.374   5.364  11.921 -0.0398  1.2267  0.9635
11256TIP3    H255184   4.471   5.471  11.968  1.2781  0.3607  0.2750
11257TIP3   OH255185   1.540   4.350  13.310  0.2273 -0.0741 -0.3851
11257TIP3    H155186   1.508   4.430  13.351 -0.4623 -1.1393  1.2669
11257TIP3    H255187   1.624   4.333  13.353 -0.3485 -1.0334  0.3941
11258TIP3   OH255188   4.804   5.037   1.856 -0.1924 -0.3055  0.3512
11258TIP3    H155189   4.826   5.083   1.937  1.3395  0.4690 -0.4551
11258TIP3    H255190   4.765   5.104   1.800  0.1951 -0.4533 -0.1051
11259TIP3   OH255191   5.169   6.596  12.681  0.6543  0.2146  0.2891
11259TIP3    H155192   5.096   6.624  12.735  1.5966 -0.0753  1.7550
11259TIP3    H255193   5.203   6.517  12.723  0.3348 -1.0865 -1.7236
11260TIP3   OH255194   0.125   0.896  12.918 -0.0553 -0.0355  0.3593
11260TIP3    H155195   0.074   0.974  12.940 -0.6423 -0.4418  0.4312
11260TIP3    H255196   0.143   0.906  12.824 -1.1721 -0.4162  0.0961
11261TIP3   OH255197   1.458   2.273   5.760  0.0101 -0.1680  0.1341
11261TIP3    H155198   1.369   2.291   5.791  0.2619 -1.0242  1.4330
11261TIP3    H255199   1.499   2.226   5.832  1.5365  0.2338 -0.4346
11262TIP3   OH255200   2.220   0.531   3.079  0.1634  0.0066 -1.0236
11262TIP3    H155201   2.236   0.476   3.156 -3.5990  0.2817  0.1349
11262TIP3    H255202   2.274   0.609   3.094  0.8350 -0.6942  0.4280
11263TIP3   OH255203   5.887   2.395  15.836  0.3471 -0.5048  0.3204
11263TIP3    H155204   5.874   2.455  15.763  0.3871 -0.8007  0.0702
11263TIP3    H255205   5.917   2.452  15.908  0.6058 -0.2599  0.0204
11264TIP3   OH255206   4.853   2.716  12.659 -0.3996  0.1452 -0.4570
11264TIP3    H155207   4.885   2.695  12.571  2.9086  0.1658  0.5977
11264TIP3    H255208   4.859   2.812  12.664  0.0218  0.1005 -0.0302
11265TIP3   OH255209   0.631   1.379   0.911 -0.1910 -0.8378  0.1643
11265TIP3    H155210   0.569   1.446   0.939  0.5032 -0.3638  0.5867
11265TIP3    H255211   0.710   1.397   0.962  0.7383 -0.6178 -1.3018
11266TIP3   OH255212   4.803   4.636  11.812 -0.1835 -0.7716 -0.5707
11266TIP3    H155213   4.859   4.657  11.737  0.1888 -0.5804 -0.2397
11266TIP3    H255214   4.714   4.655  11.781  0.1818  3.1509  0.2649
11267TIP3   OH255215   4.645   2.723  13.140 -0.1513 -0.2580  0.5809
11267TIP3    H155216   4.710   2.656  13.162 -0.2368 -0.2114  0.9746
11267TIP3    H255217   4.676   2.759  13.056  0.1986 -0.4041  0.6450
11268TIP3   OH255218   3.838   4.809  11.129  0.3710 -0.6573  0.4706
11268TIP3    H155219   3.750   4.778  11.109 -0.1158 -1.1487  3.0181
11268TIP3    H255220   3.854   4.878  11.065 -1.4743 -1.2034 -0.6467
11269TIP3   OH255221   4.686   6.254  12.636  0.0361  0.1712  0.2866
11269TIP3    H155222   4.750   6.184  12.621 -2.1208 -1.9862  0.4861
11269TIP3    H255223   4.713   6.295  12.718  1.4041 -0.3884  0.1316
11270TIP3   OH255224   2.699   5.460  15.995  0.3174 -0.4004  0.4646
11270TIP3    H155225   2.721   5.428  15.908 -0.1654 -0.3811  0.3356
11270TIP3    H255226   2.668   5.383  16.042  0.2480 -0.3437  0.5113
11271TIP3   OH255227   1.497   3.587   4.070  0.6425  0.6198 -0.0639
11271TIP3    H155228   1.532   3.600   3.982 -0.0225  0.4985 -0.3522
11271TIP3    H255229   1.485   3.493   4.078 -0.4176  0.7257 -0.2899
11272TIP3   OH255230   1.753   4.278   6.166 -0.5821  0.2868 -0.0013
11272TIP3    H155231   1.723   4.321   6.246  0.3168  0.8763  0.0240
11272TIP3    H255232   1.839   4.243   6.188 -0.4809  0.1437 -0.6071
11273TIP3   OH255233   2.994   3.305  14.516  0.7209 -0.1394 -0.2676
11273TIP3    H155234   2.942   3.347  14.448  0.5281 -2.1275 -1.4180
11273TIP3    H255235   2.982   3.212  14.501  2.6818 -0.6415  0.9513
11274TIP3   OH255236   6.665   4.819   5.602  0.2813 -0.0438  0.1093
11274TIP3    H155237   6.711   4.903   5.596 -0.5410  0.3232 -1.7889
11274TIP3    H255238   6.690   4.784   5.687  0.7811  2.0544  0.8875
11275TIP3   OH255239   1.156   4.630   5.801  0.2979 -0.8873 -0.4855
11275TIP3    H155240   1.227   4.647   5.863 -1.1001  0.7390  0.7887
11275TIP3    H255241   1.123   4.543   5.824  0.6495 -0.8464  0.1894
11276TIP3   OH255242   3.994   5.709  12.360  0.1327 -0.1458  0.2718
11276TIP3    H155243   4.054   5.645  12.400  1.2270  0.6467 -0.0440
11276TIP3    H255244   4.031   5.725  12.273 -0.4437  0.4915  0.1386
11277TIP3   OH255245   3.417   0.561  15.514 -0.3100  0.0788 -0.6204
11277TIP3    H155246   3.493   0.612  15.542 -0.9242 -0.2730  2.0532
11277TIP3    H255247   3.437   0.471  15.542 -1.8758  0.0747  0.6647
11278TIP3   OH255248   4.673   0.194   2.812  0.5859 -0.2865  0.1686
11278TIP3    H155249   4.768   0.189   2.801  0.9369  2.9200  0.7842
11278TIP3    H255250   4.649   0.280   2.776 -1.8676 -0.4224  1.2842
11279TIP3   OH255251   2.792   6.132  13.237  0.3057  0.6238  0.4523
11279TIP3    H155252   2.840   6.139  13.155 -1.4998 -2.7660 -1.1225
11279TIP3    H255253   2.848   6.077  13.293  1.6649  3.1615  1.7391
11280TIP3   OH255254   3.332   3.991   1.287  0.0955 -0.6296  0.6229
11280TIP3    H155255   3.353   4.081   1.262 -1.7448 -0.4285 -0.4104
11280TIP3    H255256   3.291   3.953   1.209  1.1134 -2.5023  0.9237
11281TIP3   OH255257   6.753   5.184  10.354 -0.1980  0.4165  0.6106
11281TIP3    H155258   6.831   5.142  10.317 -0.7432 -1.1015  1.0916
11281TIP3    H255259   6.752   5.272  10.316  1.6532  0.4136  0.4859
11282TIP3   OH255260   4.835   6.213  14.124  0.1218  0.0660 -0.7822
11282TIP3    H155261   4.823   6.268  14.201 -2.7966 -0.8550 -0.4773
11282TIP3    H255262   4.794   6.262  14.053 -1.1462 -1.0023 -0.8160
11283TIP3   OH255263   6.002   6.324  10.852  0.4342 -0.7876 -0.4115
11283TIP3    H155264   6.090   6.342  10.885  0.3668 -0.2297 -0.5303
11283TIP3    H255265   6.009   6.336  10.757 -0.0425  0.4207 -0.3098
11284TIP3   OH255266   4.164   1.784  13.857 -0.0449  0.5582 -0.1929
11284TIP3    H155267   4.226   1.805  13.787  0.2635  1.9349  0.4510
11284TIP3    H255268   4.078   1.784  13.815  0.3577 -1.8587 -1.1977
11285TIP3   OH255269   5.456   2.824  11.212 -0.2046 -0.4104  0.0125
11285TIP3    H155270   5.404   2.890  11.258  0.8128 -0.1037  0.7703
11285TIP3    H255271   5.537   2.869  11.188  0.4552 -1.3337  0.4345
11286TIP3   OH255272   0.952   4.851   3.252 -0.3090 -0.0688  0.1196
11286TIP3    H155273   0.960   4.810   3.338  0.1430 -0.0796  0.0735
11286TIP3    H255274   0.872   4.814   3.215 -0.2463 -0.4309  0.3384
11287TIP3   OH255275   2.496   5.649   5.830 -0.4875  0.0704  0.6561
11287TIP3    H155276   2.485   5.684   5.918 -0.0796 -1.0049  1.1564
11287TIP3    H255277   2.570   5.698   5.794 -0.1715  0.0105  1.2012
11288TIP3   OH255278   6.398   1.924   4.929 -0.1015 -0.2834  0.0193
11288TIP3    H155279   6.425   1.861   4.995 -1.0930 -0.2328  0.4898
11288TIP3    H255280   6.445   1.898   4.849 -1.4339 -2.3952 -0.1393
11289TIP3   OH255281   4.340   5.077  13.915  0.0257 -0.1043  0.4994
11289TIP3    H155282   4.433   5.076  13.937  0.0741 -0.5042  0.2925
11289TIP3    H255283   4.322   4.989  13.883  0.1342  0.6103 -1.7206
11290TIP3   OH255284   6.576   5.521   0.034  1.0244  0.0085 -0.1097
11290TIP3    H155285   6.514   5.509  -0.038  1.5367 -1.4102 -0.3524
11290TIP3    H255286   6.538   5.590   0.088  0.6035  1.0793 -1.7081
11291TIP3   OH255287   6.181   3.202   4.425 -0.2049  0.2561 -0.3909
11291TIP3    H155288   6.086   3.194   4.419 -0.1870 -0.0118 -0.3327
11291TIP3    H255289   6.205   3.257   4.351 -0.5617  1.6256  0.4597
11292TIP3   OH255290   0.321   5.271   0.861  0.3720  0.0124 -0.3952
11292TIP3    H155291   0.280   5.214   0.795  1.0144 -0.7725 -0.1237
11292TIP3    H255292   0.291   5.236   0.944  1.3433 -0.3662 -0.2040
11293TIP3   OH255293   5.878   3.937   0.424 -0.1096 -0.6435 -0.0369
11293TIP3    H155294   5.923   3.936   0.508  0.1872  0.1416 -0.1786
11293TIP3    H255295   5.933   3.883   0.367  1.2477  1.1140 -0.4847
11294TIP3   OH255296   0.000   3.066  12.158 -0.7803  0.5007 -0.1942
11294TIP3    H155297   0.083   3.111  12.173 -1.0078  1.0376 -0.5059
11294TIP3    H255298   0.017   3.009  12.083 -0.6704  0.5404 -0.2002
11295TIP3   OH255299   3.749   4.681  15.844  0.4457  0.0301  0.0361
11295TIP3    H155300   3.779   4.759  15.891 -1.4234  0.4651  0.5943
11295TIP3    H255301   3.786   4.691  15.756 -0.7891  2.2764 -0.3143
11296TIP3   OH255302   0.091   1.987  14.619  0.3244 -0.0289 -0.2998
11296TIP3    H155303   0.069   2.066  14.569 -1.4259  0.2654  0.8353
11296TIP3    H255304   0.112   2.019  14.707 -0.8711 -0.8012  0.3098
11297TIP3   OH255305   6.241   2.397  14.778  0.2845  0.1715 -0.3302
11297TIP3    H155306   6.251   2.466  14.843  0.5437 -0.0150 -0.1703
11297TIP3    H255307   6.153   2.410  14.742 -0.3589 -0.4568  0.9132
11298TIP3   OH255308   2.635   5.607   0.520  0.3640 -0.3809 -0.2364
11298TIP3    H155309   2.644   5.626   0.613 -1.8943  0.3828 -0.1143
11298TIP3    H255310   2.629   5.512   0.516 -1.9476 -0.3321  0.7229
11299TIP3   OH255311   6.438   5.051   1.217  0.2666  0.0616 -0.0160
11299TIP3    H155312   6.441   4.984   1.150  0.9636 -0.7762  0.8230
11299TIP3    H255313   6.467   5.007   1.297  1.1879  1.4681  0.4651
11300TIP3   OH255314   3.477   4.354   0.047  0.4649 -0.1712  0.0511
11300TIP3    H155315   3.545   4.406   0.089  0.5166  0.3961 -0.7193
11300TIP3    H255316   3.496   4.264   0.072  1.2883  0.0244  0.1370
11301TIP3   OH255317   4.394   4.284  10.358 -0.2927 -0.4418 -0.2255
11301TIP3    H155318   4.341   4.211  10.390  0.5897 -1.4718 -1.0496
11301TIP3    H255319   4.484   4.258  10.378  0.0770  0.1178 -1.1293
11302TIP3   OH255320   6.087   5.829  12.363  0.1838 -0.1743 -0.3319
11302TIP3    H155321   6.175   5.859  12.343  0.5847 -0.9907  0.1585
11302TIP3    H255322   6.035   5.853  12.287  0.1570  2.9864  0.5455
11303TIP3   OH255323   4.150   0.472  12.372  0.3010  0.3693  0.3171
11303TIP3    H155324   4.142   0.437  12.284  0.3500  1.0439  0.0379
11303TIP3    H255325   4.062   0.465  12.409  0.8886 -2.9438  1.4167
11304TIP3   OH255326   4.347   6.526   5.666 -0.0411 -0.0864 -0.6864
11304TIP3    H155327   4.281   6.563   5.724  0.2399 -1.8939  0.8880
11304TIP3    H255328   4.349   6.585   5.590 -3.8682 -0.3110 -1.1137
11305TIP3   OH255329   4.133   5.527   6.403  0.5929  0.5087  0.1981
11305TIP3    H155330   4.066   5.548   6.469  0.8073 -1.3624  1.0797
11305TIP3    H255331   4.084   5.517   6.321  0.1777  1.7707  0.2701
11306TIP3   OH255332   2.490   4.856  13.560 -0.0516  0.6996 -0.1476
11306TIP3    H155333   2.527   4.783  13.510 -1.1567 -1.1169  1.5246
11306TIP3    H255334   2.549   4.867  13.634  0.7278  2.3213 -0.9653
11307TIP3   OH255335   3.975   3.979  14.296  0.2633  0.0994  0.4194
11307TIP3    H155336   4.047   4.026  14.337  0.9021  0.5369 -1.1014
11307TIP3    H255337   3.977   3.892  14.335  2.4806 -0.3293 -0.4615
11308TIP3   OH255338   5.033   1.096  16.004  0.5672 -0.0642  0.0659
11308TIP3    H155339   5.017   1.184  15.970 -1.1349 -0.7554 -1.0355
11308TIP3    H255340   4.956   1.076  16.057 -0.0648 -1.6416 -1.3513
11309TIP3   OH255341   1.607   5.018   3.476  0.4106  0.4370 -0.1528
11309TIP3    H155342   1.545   5.060   3.416  0.6142 -2.4166 -2.6080
11309TIP3    H255343   1.683   5.076   3.476  0.2390  0.7649 -2.4228
11310TIP3   OH255344   2.302   2.253  12.410 -0.1841 -0.7753 -0.0305
11310TIP3    H155345   2.295   2.172  12.461  0.0231  0.2472  1.6958
11310TIP3    H255346   2.364   2.307  12.460 -0.1982  0.3884 -1.2322
11311TIP3   OH255347   2.099   4.173   2.567 -0.0870  0.0676  0.2824
11311TIP3    H155348   2.027   4.123   2.528  0.3405  1.7784 -3.1141
11311TIP3    H255349   2.058   4.222   2.638 -1.6276 -1.1560  0.2990
11312TIP3   OH255350   1.713   5.585   2.431 -0.0527  0.0424  0.1264
11312TIP3    H155351   1.728   5.664   2.484  1.3904 -0.0610 -0.0919
11312TIP3    H255352   1.665   5.526   2.489  0.4242  0.4038  0.9121
11313TIP3   OH255353   1.177   6.785   0.070  0.0813  0.4740 -0.0525
11313TIP3    H155354   1.087   6.803   0.042  0.7364  1.4147 -1.6286
11313TIP3    H255355   1.199   6.858   0.127 -0.2627  0.0455  0.6467
11314TIP3   OH255356   4.754   3.055   0.474  0.5842 -0.1514 -0.2700
11314TIP3    H155357   4.784   2.971   0.509  2.2244  0.8283  0.7907
11314TIP3    H255358   4.700   3.031   0.399 -0.6209 -2.2246  1.1615
11315TIP3   OH255359   2.199   6.590  11.579  0.1495 -0.2008 -0.3872
11315TIP3    H155360   2.125   6.585  11.519 -0.1901 -0.4453  0.0451
11315TIP3    H255361   2.167   6.641  11.653  1.1461  1.7107 -1.2250
11316TIP3   OH255362   2.120   1.539  13.326 -0.4342 -0.0977  0.0569
11316TIP3    H155363   2.069   1.458  13.323  1.0217 -1.0510 -0.0156
11316TIP3    H255364   2.144   1.555  13.235  0.1424 -0.1620  0.1945
11317TIP3   OH255365   0.838   0.512   6.693 -0.1544  0.1640  0.2205
11317TIP3    H155366   0.768   0.577   6.686 -0.1732  0.3671  1.8625
11317TIP3    H255367   0.882   0.514   6.608 -1.9831  0.1897 -0.7551
11318TIP3   OH255368   5.485   3.792   0.691 -0.3769  0.0407  0.2992
11318TIP3    H155369   5.483   3.706   0.733 -1.6173 -0.4464 -0.6892
11318TIP3    H255370   5.500   3.853   0.763  0.8984 -1.0099  0.9655
11319TIP3   OH255371   5.787   4.637  13.142 -0.5180 -0.0823 -0.6231
11319TIP3    H155372   5.799   4.714  13.197  0.6108 -0.6939  0.0121
11319TIP3    H255373   5.790   4.671  13.052  2.0292  0.3970 -0.4257
11320TIP3   OH255374   2.242   6.704   4.220  0.3500 -0.5682 -0.2206
11320TIP3    H155375   2.234   6.751   4.137 -1.0601  0.5268  0.5056
11320TIP3    H255376   2.201   6.619   4.203  0.7222 -0.6349 -0.8383
11321TIP3   OH255377   6.465   4.072   1.060 -0.1956 -0.0218 -0.0896
11321TIP3    H155378   6.538   4.048   1.118 -0.4370 -0.2047  0.1430
11321TIP3    H255379   6.387   4.057   1.113 -0.4232 -0.2346 -0.4853
11322TIP3   OH255380   5.245   2.739  15.288  0.0912 -0.2056  0.0668
11322TIP3    H155381   5.339   2.749  15.306 -0.3478  2.5237  1.3895
11322TIP3    H255382   5.219   2.661  15.338  1.4465 -0.4014  0.5005
11323TIP3   OH255383   5.360   4.294   1.044 -0.5396  1.0378  0.3264
11323TIP3    H155384   5.310   4.375   1.028 -1.5332  0.4137  0.1823
11323TIP3    H255385   5.296   4.234   1.083  0.1048  0.2072  0.1216
11324TIP3   OH255386   3.716   4.526  12.247  0.0944 -0.4239  0.0949
11324TIP3    H155387   3.723   4.521  12.342 -0.4747 -0.1571  0.1563
11324TIP3    H255388   3.684   4.615  12.230  0.8392 -0.2399 -0.3879
11325TIP3   OH255389   3.858   2.687  15.887  0.2291 -0.2113  0.2583
11325TIP3    H155390   3.776   2.713  15.930 -0.0154 -0.5492  0.0002
11325TIP3    H255391   3.868   2.595  15.908  0.8034 -0.0504  0.6965
11326TIP3   OH255392   4.881   1.781   1.782 -0.7042  0.5772 -0.0994
11326TIP3    H155393   4.951   1.812   1.838  0.2018 -0.5005 -0.5778
11326TIP3    H255394   4.801   1.790   1.834 -0.0728  0.9193  0.8166
11327TIP3   OH255395   3.428   1.625   0.287 -0.2774 -0.0282  0.2795
11327TIP3    H155396   3.342   1.612   0.246 -1.9547 -1.9271  3.8875
11327TIP3    H255397   3.420   1.708   0.334 -0.6496 -0.7442  1.5389
11328TIP3   OH255398   5.043   6.788  12.889  0.0282  0.0087 -0.0771
11328TIP3    H155399   5.051   6.882  12.908 -0.2034  0.0301 -0.0843
11328TIP3    H255400   4.964   6.781  12.836 -1.8032 -0.5503  2.5233
11329TIP3   OH255401   0.746   5.191   2.870 -0.5129  0.1660  0.2185
11329TIP3    H155402   0.699   5.230   2.944 -1.0183 -0.2228  0.1018
11329TIP3    H255403   0.822   5.248   2.859 -1.5891  1.5617 -0.3910
11330TIP3   OH255404   6.682   3.527   0.703  0.6212 -0.3829  0.0147
11330TIP3    H155405   6.640   3.505   0.786  1.4785 -0.4934  0.4248
11330TIP3    H255406   6.773   3.545   0.725  1.1311 -1.4945 -1.0482
11331TIP3   OH255407   5.385   1.245   4.930 -0.5085  0.6972 -0.4670
11331TIP3    H155408   5.453   1.251   4.997 -2.0126  1.8780  1.0509
11331TIP3    H255409   5.341   1.330   4.932 -0.6516  0.7486 -2.9583
11332TIP3   OH255410   5.476   1.969   0.786 -0.4897 -0.3312 -0.0273
11332TIP3    H155411   5.543   2.035   0.769 -0.6108 -0.4777 -1.1656
11332TIP3    H255412   5.399   2.000   0.738 -0.7265 -0.9972 -0.0922
11333TIP3   OH255413   5.893   6.313   0.399 -0.0137  0.2740 -0.0666
11333TIP3    H155414   5.870   6.228   0.363 -0.6705 -0.0140  0.9834
11333TIP3    H255415   5.823   6.372   0.370 -1.0665 -0.1619  1.4461
11334TIP3   OH255416   3.034   0.113  16.345 -0.0211 -0.0822  0.5893
11334TIP3    H155417   3.094   0.183  16.369  0.3545 -0.0422 -0.4146
11334TIP3    H255418   2.981   0.150  16.274 -0.3688 -0.5367  0.6066
11335TIP3   OH255419   1.342   3.019  12.005  0.0763  0.3005  0.3400
11335TIP3    H155420   1.405   3.002  12.075  2.1388  3.1382 -0.6405
11335TIP3    H255421   1.383   2.983  11.927  0.5441  2.1686 -0.3113
11336TIP3   OH255422   6.264   5.957  11.113  0.5590 -0.8659 -0.8100
11336TIP3    H155423   6.292   6.018  11.045 -0.1132 -0.8750 -1.1057
11336TIP3    H255424   6.324   5.973  11.186  1.5984 -1.1993 -1.5700
11337TIP3   OH255425   3.547   4.910  17.068  0.0896  0.3677 -0.0406
11337TIP3    H155426   3.599   4.875  17.141  1.1985 -0.4798 -1.1943
11337TIP3    H255427   3.456   4.890  17.092  0.4053  0.3934  1.2449
11338TIP3   OH255428   5.407   4.017  16.750  0.0132 -0.3075 -0.0578
11338TIP3    H155429   5.340   3.974  16.697 -0.9793  0.9446  0.1499
11338TIP3    H255430   5.481   4.028  16.690 -0.0247 -1.4889 -0.3488
11339TIP3   OH255431   6.450   0.751   3.704  0.5612 -0.0897  0.5142
11339TIP3    H155432   6.446   0.734   3.798  2.2059 -0.6135  0.5196
11339TIP3    H255433   6.361   0.737   3.673 -0.3816  1.6057  2.2141
11340TIP3   OH255434   1.429   5.920  15.874 -0.1855 -0.0179 -0.5367
11340TIP3    H155435   1.513   5.894  15.837  0.3834 -1.9008  1.8255
11340TIP3    H255436   1.367   5.853  15.846 -0.0589 -0.6633  0.6499
11341TIP3   OH255437   4.995   2.492   1.022 -0.2532  0.1177  0.2391
11341TIP3    H155438   5.003   2.438   1.101 -0.1929 -0.4594 -0.1600
11341TIP3    H255439   4.901   2.494   1.005 -0.2523  0.1157  0.2337
11342TIP3   OH255440   6.489   3.353  12.035  0.2639 -0.1566  0.3307
11342TIP3    H155441   6.562   3.293  12.024  0.3158 -0.1684  0.7507
11342TIP3    H255442   6.499   3.389  12.123 -0.8185 -0.9459  0.7941
11343TIP3   OH255443   3.758   6.206  11.357  0.1891 -0.7814  0.1017
11343TIP3    H155444   3.681   6.171  11.402 -0.3825 -0.1354 -0.3356
11343TIP3    H255445   3.727   6.288  11.318  1.0998 -0.5230 -0.1026
11344TIP3   OH255446   6.234   5.391   1.350  0.1835  0.2200  0.3860
11344TIP3    H155447   6.161   5.332   1.370 -0.3855  1.2474  1.4742
11344TIP3    H255448   6.310   5.333   1.347 -0.7389 -0.9884 -1.5495
11345TIP3   OH255449   0.816   0.331  12.685 -0.2855  0.4463 -0.4318
11345TIP3    H155450   0.864   0.403  12.644  0.9870  0.0479  0.3074
11345TIP3    H255451   0.756   0.300  12.618 -0.2045  1.6043 -1.0557
11346TIP3   OH255452   2.021   4.326   2.773 -0.7933  0.0698  0.0625
11346TIP3    H155453   2.092   4.311   2.836 -0.8853 -0.0449  0.1412
11346TIP3    H255454   1.969   4.396   2.812  0.1275  1.2187 -0.7259
11347TIP3   OH255455   5.926   1.541  16.533  0.3774  0.3603 -0.1974
11347TIP3    H155456   5.910   1.515  16.443 -1.1314  0.1813  0.0940
11347TIP3    H255457   5.902   1.464  16.585  0.3077  0.7752  0.3976
11348TIP3   OH255458   1.327   0.132  11.010  0.2821  0.6862  0.0589
11348TIP3    H155459   1.375   0.209  10.981  0.8100  0.2096 -0.3634
11348TIP3    H255460   1.238   0.145  10.976  0.5118  0.8467 -0.4982
11349TIP3   OH255461   6.096   2.594  15.348  0.3606  0.0373 -0.4688
11349TIP3    H155462   6.026   2.532  15.372  2.5214 -2.0199  0.9937
11349TIP3    H255463   6.093   2.597  15.253 -2.8152  1.4526 -0.4402
11350TIP3   OH255464   6.045   4.227   4.531  0.2798 -0.9204 -0.2762
11350TIP3    H155465   5.975   4.270   4.481 -1.8415 -3.3283  0.3995
11350TIP3    H255466   6.096   4.180   4.466  0.2460 -0.5262 -0.5949
11351TIP3   OH255467   5.337   5.233   1.406  0.0148  0.6063 -0.4466
11351TIP3    H155468   5.415   5.200   1.362  0.5099 -2.0155  2.1266
11351TIP3    H255469   5.339   5.193   1.493 -2.9523  2.3731  0.5854
11352TIP3   OH255470   1.523   3.579  12.876  0.0284  0.0183  0.3454
11352TIP3    H155471   1.499   3.529  12.954  0.8862 -1.0953 -0.0768
11352TIP3    H255472   1.613   3.609  12.893 -0.0114  0.3086  0.0553
11353TIP3   OH255473   2.642   4.432  11.119  0.2177 -0.1278 -0.3457
11353TIP3    H155474   2.692   4.355  11.146 -0.5826 -0.4374  0.3088
11353TIP3    H255475   2.550   4.406  11.130 -0.0653  0.9140 -0.1187
11354TIP3   OH255476   3.003   1.368  12.185  0.7422 -0.2746 -0.0261
11354TIP3    H155477   3.036   1.409  12.105  0.5161 -1.5933 -0.8317
11354TIP3    H255478   2.975   1.281  12.157  0.1443 -0.5645  1.3934
11355TIP3   OH255479   0.728   5.352   5.959 -0.1971 -0.0380  0.0791
11355TIP3    H155480   0.822   5.360   5.940 -0.1137  1.4865  0.9152
11355TIP3    H255481   0.724   5.296   6.036 -0.0272 -0.5671 -0.2888
11356TIP3   OH255482   4.417   1.818  11.198 -0.7786  0.0044 -0.2553
11356TIP3    H155483   4.441   1.728  11.223  0.1053  0.3334  0.1299
11356TIP3    H255484   4.433   1.822  11.104 -1.9213 -0.5698 -0.4890
11357TIP3   OH255485   0.955   0.630  12.807 -0.4894  0.1792  0.1746
11357TIP3    H155486   0.982   0.621  12.716 -0.4761  0.3578  0.1624
11357TIP3    H255487   1.029   0.670  12.852  0.1750 -1.4529  0.6102
11358TIP3   OH255488   3.427   0.306  11.799 -0.1382  0.2025  0.2820
11358TIP3    H155489   3.334   0.326  11.792  0.0054  0.4054 -1.6501
11358TIP3    H255490   3.432   0.236  11.864 -1.4897  0.9948  1.2770
11359TIP3   OH255491   3.229   1.184   1.197 -0.4365 -0.1450 -0.4788
11359TIP3    H155492   3.143   1.143   1.190 -0.5312 -0.0402 -0.0280
11359TIP3    H255493   3.292   1.113   1.184 -0.5977 -0.4502  0.3380
11360TIP3   OH255494   3.366   3.170  15.348 -0.5703  0.0738 -0.8460
11360TIP3    H155495   3.393   3.211  15.265  1.2572  0.2245 -0.2396
11360TIP3    H255496   3.343   3.243  15.405  0.9510  0.2092 -0.3441
11361TIP3   OH255497   1.822   1.379  11.722 -0.5811  0.6728 -0.1275
11361TIP3    H155498   1.839   1.453  11.781 -0.4035  0.4300  0.1280
11361TIP3    H255499   1.736   1.399  11.683 -0.3526  1.2106 -0.3662
11362TIP3   OH255500   1.484   0.501  12.190  0.6240 -0.1377  0.3211
11362TIP3    H155501   1.566   0.536  12.226  0.5415 -0.4303  0.8008
11362TIP3    H255502   1.436   0.579  12.161  0.7232  0.0970  0.7790
11363TIP3   OH255503   0.073   6.652   1.090  0.0214  0.3238  0.0526
11363TIP3    H155504  -0.010   6.678   1.130 -0.0275 -0.7500  0.6912
11363TIP3    H255505   0.098   6.573   1.137  0.5289 -0.3599 -1.3014
11364TIP3   OH255506   4.260   1.491   1.878  0.6951 -0.0661 -0.1957
11364TIP3    H155507   4.288   1.520   1.791 -1.9457 -0.6425 -1.3091
11364TIP3    H255508   4.305   1.407   1.890  0.4774 -0.3750 -1.3720
11365TIP3   OH255509   5.591   1.172   2.032 -0.8745  0.1929  0.1011
11365TIP3    H155510   5.649   1.154   1.958 -0.5396  0.8667  0.1853
11365TIP3    H255511   5.515   1.115   2.019 -0.6502  0.0427 -0.5584
11366TIP3   OH255512   0.182   4.567  16.425  0.0911  0.7454 -0.3465
11366TIP3    H155513   0.135   4.488  16.454  1.1390 -0.5511 -1.9985
11366TIP3    H255514   0.114   4.634  16.418 -1.4736 -0.8789 -1.9922
11367TIP3   OH255515   2.945   5.763  11.148 -0.1559  0.5514  0.6323
11367TIP3    H155516   2.886   5.718  11.088  0.8412 -0.8494  0.6654
11367TIP3    H255517   2.899   5.762  11.232 -0.3104 -0.0942  0.5459
11368TIP3   OH255518   5.063   5.948  10.532  0.2894  0.4161 -0.1254
11368TIP3    H155519   5.056   5.870  10.476 -0.0121  0.9809 -0.8884
11368TIP3    H255520   5.152   5.944  10.567  0.4932  0.0670 -0.6645
11369TIP3   OH255521   2.729   4.036   6.480  0.1684 -0.4233 -0.1579
11369TIP3    H155522   2.726   3.959   6.423  0.5305 -0.4448 -0.1546
11369TIP3    H255523   2.672   4.100   6.437  1.8300  0.2158 -1.5513
11370TIP3   OH255524   1.696   2.410   4.236 -0.2604 -1.1631 -0.4959
11370TIP3    H155525   1.714   2.327   4.281  0.1153 -0.2255  1.1579
11370TIP3    H255526   1.687   2.474   4.306 -0.6226  0.2048 -1.7375
11371TIP3   OH255527   4.367   0.242   1.282  0.2653  0.2354 -0.3408
11371TIP3    H155528   4.274   0.265   1.293  0.6770  0.8043  2.7536
11371TIP3    H255529   4.408   0.323   1.253 -0.1699 -0.0475 -1.8353
11372TIP3   OH255530   6.780   3.661   4.710 -0.0877  0.1335 -0.7203
11372TIP3    H155531   6.834   3.715   4.768 -0.0873 -0.0204 -0.5783
11372TIP3    H255532   6.777   3.576   4.752  1.7248 -0.6423 -2.0242
11373TIP3   OH255533   5.742   1.409  16.050  0.1139 -0.4966 -0.3819
11373TIP3    H155534   5.665   1.461  16.074 -1.0110 -1.7024 -1.2063
11373TIP3    H255535   5.784   1.459  15.980 -0.5727 -0.3618 -0.7066
11374TIP3   OH255536   5.884   1.693   0.063  0.0241 -0.0764 -0.1939
11374TIP3    H155537   5.946   1.636   0.018 -0.1520 -0.4071 -0.0179
11374TIP3    H255538   5.939   1.756   0.110  0.3895 -2.3446  2.6772
11375TIP3   OH255539   4.227   2.274  15.261  0.2212 -0.3436  0.5947
11375TIP3    H155540   4.138   2.244  15.240 -0.4195  1.9429 -0.2665
11375TIP3    H255541   4.221   2.305  15.351  0.3200 -0.7633  0.7482
11376TIP3   OH255542   1.047   3.255  16.046  0.4894 -0.1708 -0.0902
11376TIP3    H155543   1.009   3.181  15.998  0.1512  1.9926 -3.4474
11376TIP3    H255544   0.972   3.305  16.077  0.5345  1.2110 -2.0179
11377TIP3   OH255545   1.786   3.809  11.296 -0.2144 -0.0248 -0.2794
11377TIP3    H155546   1.871   3.765  11.291  0.4352  0.5407  3.3131
11377TIP3    H255547   1.807   3.898  11.324 -1.9883  0.2109  0.4200
11378TIP3   OH255548   5.417   4.919   2.450  0.5884 -0.5432  0.1253
11378TIP3    H155549   5.334   4.913   2.497  0.6613 -0.2980  0.2884
11378TIP3    H255550   5.481   4.879   2.509  0.7101 -0.0807  0.3158
11379TIP3   OH255551   3.170   6.196  12.692  0.2337 -0.2583 -0.1511
11379TIP3    H155552   3.092   6.249  12.703 -1.0998 -2.4571  1.8959
11379TIP3    H255553   3.168   6.169  12.600 -0.0595  1.6160 -0.7319
11380TIP3   OH255554   5.055   4.665  11.708  0.0326 -0.0706 -0.2329
11380TIP3    H155555   5.123   4.721  11.746 -1.5023  0.0919  2.5235
11380TIP3    H255556   5.073   4.578  11.744 -0.1850 -0.4066 -0.9345
11381TIP3   OH255557   5.621   2.991  11.477 -0.1743 -0.3109 -0.0061
11381TIP3    H155558   5.708   2.962  11.450 -0.2921  0.1895 -0.9669
11381TIP3    H255559   5.597   3.058  11.413 -1.4703 -0.7928 -0.0601
11382TIP3   OH255560   2.791   1.410   1.344  0.2761 -0.0996  0.3220
11382TIP3    H155561   2.704   1.438   1.373  0.5280  1.4251 -0.2744
11382TIP3    H255562   2.851   1.462   1.398  0.7761  0.1921 -0.4983
11383TIP3   OH255563   2.567   2.193  16.974 -0.0286  0.2948 -0.2871
11383TIP3    H155564   2.567   2.130  16.902 -1.4552 -0.2479  0.1659
11383TIP3    H255565   2.607   2.272  16.936  3.2597 -1.2820 -0.4477
11384TIP3   OH255566   1.750   6.168   4.857 -0.0091  0.4628  0.0735
11384TIP3    H155567   1.690   6.238   4.882 -0.7005 -0.9256  2.6687
11384TIP3    H255568   1.701   6.115   4.794 -0.2938  1.0732 -0.2269
11385TIP3   OH255569   0.378   1.141   4.975 -0.5817 -0.5413 -0.5153
11385TIP3    H155570   0.367   1.196   5.053 -0.7072 -0.2867 -0.7091
11385TIP3    H255571   0.295   1.149   4.927 -0.5807 -0.8598 -0.5725
11386TIP3   OH255572   1.368   5.662  12.502 -0.5827  0.3301  0.3603
11386TIP3    H155573   1.346   5.622  12.586 -0.0844 -0.8269 -0.0402
11386TIP3    H255574   1.428   5.733  12.524 -1.0691  0.5421  1.0442
11387TIP3   OH255575   1.328   1.466   5.386 -0.3158 -0.6529 -0.5438
11387TIP3    H155576   1.243   1.434   5.357 -0.6963 -0.7818  0.6762
11387TIP3    H255577   1.348   1.415   5.464  0.5892 -0.1907 -0.4604
11388TIP3   OH255578   4.846   1.524  12.022 -0.4223 -0.5829  0.7795
11388TIP3    H155579   4.854   1.547  11.930  2.8030  0.8761  1.2770
11388TIP3    H255580   4.827   1.430  12.023 -0.6991 -0.5896 -1.3176
11389TIP3   OH255581   4.924   1.774   3.149  0.2947  0.8005  0.1175
11389TIP3    H155582   4.871   1.724   3.087  2.0151 -1.6096  0.4226
11389TIP3    H255583   4.914   1.727   3.232  2.0943  0.8323  0.3917
11390TIP3   OH255584   5.839   2.594  15.090  0.6591  0.0758 -0.8471
11390TIP3    H155585   5.837   2.500  15.071  0.2059 -0.2731  0.7687
11390TIP3    H255586   5.931   2.611  15.113  0.3537 -0.4359  0.8697
11391TIP3   OH255587   4.018   0.739  16.506 -0.0223  0.0050  0.0953
11391TIP3    H155588   4.071   0.706  16.434 -1.0328 -2.0510  0.2009
11391TIP3    H255589   3.963   0.807  16.468 -0.2160 -0.7398 -0.9916
11392TIP3   OH255590   0.894   4.200   3.455  0.1983  0.6083  0.2327
11392TIP3    H155591   0.924   4.268   3.515  0.8676  0.4529  0.0782
11392TIP3    H255592   0.973   4.152   3.431 -0.4109 -1.0009  1.2704
11393TIP3   OH255593   0.597   0.189   4.663  0.8247  0.2416 -0.1975
11393TIP3    H155594   0.666   0.140   4.619  2.1312  0.2515  1.7357
11393TIP3    H255595   0.601   0.277   4.625  2.6921  0.5712  0.6535
11394TIP3   OH255596   4.969   0.630   1.151  0.2616  0.4700 -0.9966
11394TIP3    H155597   5.003   0.704   1.101 -0.8358  0.4187 -1.8589
11394TIP3    H255598   4.874   0.644   1.152 -0.1806 -1.8811 -2.7774
11395TIP3   OH255599   2.720   3.346  16.629 -0.4313  0.1736  0.0489
11395TIP3    H155600   2.791   3.319  16.571  0.2038 -0.7863  1.2237
11395TIP3    H255601   2.712   3.274  16.692 -1.5956  0.8454  0.7062
11396TIP3   OH255602   3.603   4.938   5.048 -0.0932 -0.0613  0.1659
11396TIP3    H155603   3.585   4.875   4.978 -0.7997 -1.3647  1.4676
11396TIP3    H255604   3.519   4.953   5.090  0.6986 -1.6052  2.5599
11397TIP3   OH255605   4.668   5.312  15.208  0.2097  0.2213 -0.1839
11397TIP3    H155606   4.632   5.281  15.125  0.7323  1.7623 -1.0460
11397TIP3    H255607   4.682   5.233  15.260  1.3424 -0.9766 -2.1752
11398TIP3   OH255608   5.266   4.943  11.338  0.3172  0.1325 -0.5418
11398TIP3    H155609   5.263   4.864  11.392  0.4524  0.7923  0.4634
11398TIP3    H255610   5.206   4.926  11.266 -0.4194 -0.4991  0.2031
11399TIP3   OH255611   3.504   2.320  12.584 -0.8842  0.0736 -0.4960
11399TIP3    H155612   3.433   2.313  12.647 -1.3894  1.3524 -0.8943
11399TIP3    H255613   3.469   2.377  12.515  0.3848  0.4003 -0.8919
11400TIP3   OH255614   3.441   5.789   6.116  0.2205  0.3980 -0.4979
11400TIP3    H155615   3.534   5.804   6.097  0.5614 -1.3575 -0.3953
11400TIP3    H255616   3.424   5.837   6.196  1.3016 -0.0059 -0.0113
11401TIP3   OH255617   0.127   5.188   1.655  0.3966  0.1525  0.6088
11401TIP3    H155618   0.181   5.262   1.628 -0.2340  0.1313 -0.8435
11401TIP3    H255619   0.038   5.224   1.656 -0.2852 -1.1018 -2.6432
11402TIP3   OH255620   5.807   5.648   2.082  0.5760  0.2341 -0.2769
11402TIP3    H155621   5.837   5.640   1.991 -0.3183 -0.3088 -0.5394
11402TIP3    H255622   5.820   5.561   2.119 -1.8281 -0.4343 -0.7949
11403TIP3   OH255623   5.461   2.986  13.449  0.0041 -0.0048 -0.1874
11403TIP3    H155624   5.421   2.933  13.380 -0.3743  0.3831 -0.2753
11403TIP3    H255625   5.517   2.925  13.498  1.2320 -0.0303 -1.5657
11404TIP3   OH255626   6.705   0.586  12.178  0.0656 -0.2098  0.3616
11404TIP3    H155627   6.741   0.673  12.159 -1.8840  0.6370  0.2881
11404TIP3    H255628   6.646   0.567  12.105  0.1275 -1.3935  0.6008
11405TIP3   OH255629   3.103   3.879   3.624 -0.3461 -0.3263 -0.4775
11405TIP3    H155630   3.177   3.874   3.684  2.0186 -2.4454 -3.2705
11405TIP3    H255631   3.120   3.958   3.571  0.3185 -1.1351 -1.5093
11406TIP3   OH255632   3.244   4.900   3.229  0.4307 -0.1089 -0.1616
11406TIP3    H155633   3.279   4.972   3.280  1.1270 -0.4644 -0.1187
11406TIP3    H255634   3.222   4.833   3.294  1.4788 -0.6288 -0.3076
11407TIP3   OH255635   0.837   0.351   5.210  0.2102 -0.3057 -0.0306
11407TIP3    H155636   0.849   0.380   5.119 -1.2237  2.3780  0.5336
11407TIP3    H255637   0.922   0.368   5.252 -0.1178  1.8591 -0.1059
11408TIP3   OH255638   4.788   6.510  15.720  0.0363  0.2663  0.4223
11408TIP3    H155639   4.714   6.514  15.780  0.4845 -1.7554  1.1816
11408TIP3    H255640   4.776   6.428  15.672 -0.2046  1.6917 -2.1943
11409TIP3   OH255641   5.270   5.006   3.669  0.6495  0.6321  0.7896
11409TIP3    H155642   5.341   5.028   3.730  1.3314  1.3510 -0.2270
11409TIP3    H255643   5.310   5.014   3.582 -0.7463  1.3023  0.1794
11410TIP3   OH255644   2.544   6.233   1.512 -0.3360  0.0003  0.4627
11410TIP3    H155645   2.536   6.142   1.483  1.4230 -0.1347  0.3296
11410TIP3    H255646   2.464   6.275   1.480 -0.8330 -1.3226 -0.1015
11411TIP3   OH255647   4.941   6.018   5.504  0.2992 -0.2708  0.0538
11411TIP3    H155648   4.966   5.998   5.594  0.0985 -1.1173 -0.0746
11411TIP3    H255649   4.847   6.000   5.500  0.2876 -0.1512 -0.3007
11412TIP3   OH255650   3.115   1.517  14.121 -0.4466 -0.0136  0.6227
11412TIP3    H155651   3.188   1.462  14.091 -0.0858  0.6477  0.2682
11412TIP3    H255652   3.066   1.537  14.042  0.2884  1.4160  0.4960
11413TIP3   OH255653   3.270   3.236  11.044  0.4164 -0.4985 -0.1768
11413TIP3    H155654   3.288   3.152  11.001  0.0267 -1.2669  1.0890
11413TIP3    H255655   3.189   3.221  11.091 -1.1275  1.4506 -2.0440
11414TIP3   OH255656   4.929   3.945   1.225  0.0630  0.1845 -0.5143
11414TIP3    H155657   4.915   4.034   1.256 -1.1059 -0.2382  0.2194
11414TIP3    H255658   5.010   3.917   1.267  0.3455  0.8211 -0.6152
11415TIP3   OH255659   5.576   1.431   1.318  0.4188  0.2134  0.4318
11415TIP3    H155660   5.550   1.493   1.387 -0.2504  2.0875 -1.3775
11415TIP3    H255661   5.671   1.437   1.314  0.5631 -0.7329  1.8654
11416TIP3   OH255662   2.726   2.346   5.593  0.0242 -1.0256 -0.1670
11416TIP3    H155663   2.634   2.327   5.611  0.0702 -1.6718 -0.6023
11416TIP3    H255664   2.746   2.297   5.513  0.6963 -0.7425 -0.1781
11417TIP3   OH255665   2.998   0.747  15.804 -0.1724 -0.1616 -0.0278
11417TIP3    H155666   3.014   0.761  15.710 -0.7721 -0.5876 -0.2063
11417TIP3    H255667   2.917   0.695  15.806  0.0950 -0.5654  0.7083
11418TIP3   OH255668   5.198   0.167   4.562  0.7647 -0.3713  0.0760
11418TIP3    H155669   5.237   0.254   4.548  0.9262 -0.5002 -0.2813
11418TIP3    H255670   5.185   0.163   4.657 -0.2509  0.4688 -0.0061
11419TIP3   OH255671   5.967   6.034  12.718 -0.8053  0.1684 -0.2352
11419TIP3    H155672   5.970   6.115  12.767  0.2660 -0.2602  0.4332
11419TIP3    H255673   6.049   6.032  12.668 -0.7187 -0.5922 -0.0810
11420TIP3   OH255674   4.503   0.970  11.323 -0.2890 -0.1732 -0.5060
11420TIP3    H155675   4.439   1.041  11.333 -0.2700 -0.0629 -1.1625
11420TIP3    H255676   4.521   0.942  11.413 -0.6434  0.3431 -0.2677
11421TIP3   OH255677   3.275   5.545  11.492  0.2195  0.0818  0.0692
11421TIP3    H155678   3.321   5.556  11.576  0.7029 -0.2596 -0.1416
11421TIP3    H255679   3.231   5.628  11.477 -0.0578  0.0722  0.7745
11422TIP3   OH255680   6.705   1.875  12.284  0.4038 -0.3692 -0.0520
11422TIP3    H155681   6.614   1.874  12.255 -0.2263 -1.0589  1.7736
11422TIP3    H255682   6.726   1.783  12.299  0.9698 -0.1208  0.7409
11423TIP3   OH255683   6.429   2.035   1.621  0.2020 -0.1633 -0.3100
11423TIP3    H155684   6.338   2.029   1.592  0.2183  0.1644 -0.4320
11423TIP3    H255685   6.468   1.952   1.595 -0.5533 -1.1477  1.4977
11424TIP3   OH255686   3.866   3.891  12.937  0.3143 -0.2112 -0.1211
11424TIP3    H155687   3.845   3.922  12.849  1.9278 -0.5712 -0.6648
11424TIP3    H255688   3.955   3.856  12.929 -0.0806 -1.6051  1.3188
11425TIP3   OH255689   0.202   0.148  12.253 -0.4083 -0.6208  0.1260
11425TIP3    H155690   0.270   0.215  12.265  0.1438 -1.2096  0.3226
11425TIP3    H255691   0.249   0.071  12.224 -1.1851 -0.5895 -1.2951
11426TIP3   OH255692   3.350   2.688  13.044 -0.8748  0.4949  0.3337
11426TIP3    H155693   3.420   2.622  13.039 -0.0258  1.3961 -0.0950
11426TIP3    H255694   3.396   2.770  13.061 -1.8407  1.0962  0.1187
11427TIP3   OH255695   6.752   4.653   0.774 -0.4660 -0.0777 -0.5816
11427TIP3    H155696   6.795   4.688   0.696 -0.7745 -1.9193 -1.6450
11427TIP3    H255697   6.799   4.572   0.792 -0.3972  0.3135  1.1938
11428TIP3   OH255698   4.412   0.868   3.325 -0.1690 -0.2727  0.4028
11428TIP3    H155699   4.357   0.942   3.351 -0.6171 -0.1491 -0.8044
11428TIP3    H255700   4.417   0.875   3.230 -0.8989 -2.2387  0.1642
11429TIP3   OH255701   4.109   2.037  15.614  0.5548 -0.5117 -0.0894
11429TIP3    H155702   4.199   2.067  15.603  0.1960  0.4262 -0.5929
11429TIP3    H255703   4.084   2.004  15.527 -0.0907  0.6970 -0.3850
11430TIP3   OH255704   1.899   2.611  14.788 -0.2713 -0.2276 -1.0140
11430TIP3    H155705   1.941   2.527  14.769  1.0138  0.2417 -0.3787
11430TIP3    H255706   1.893   2.615  14.883 -0.1630  0.4736 -1.0275
11431TIP3   OH255707   1.507   3.356  16.722  0.2797 -0.0702  0.2937
11431TIP3    H155708   1.573   3.323  16.661 -0.6063 -1.6899  0.1607
11431TIP3    H255709   1.498   3.448  16.699  1.9375 -0.0013 -0.1911
11432TIP3   OH255710   0.796   2.714   0.289  0.3913  0.4370  0.3094
11432TIP3    H155711   0.738   2.664   0.347 -0.2946  0.2227 -0.5229
11432TIP3    H255712   0.869   2.741   0.344 -0.1485  0.0841  1.2161
11433TIP3   OH255713   4.416   5.851  13.092 -0.1715  0.2306 -0.6640
11433TIP3    H155714   4.343   5.805  13.134 -0.6371 -2.0479 -3.6325
11433TIP3    H255715   4.379   5.934  13.063 -1.2523 -0.3403 -0.9911
11434TIP3   OH255716   0.833   0.913   2.687 -0.2604 -0.1813  0.2799
11434TIP3    H155717   0.877   0.834   2.720 -1.3827 -1.3042 -0.7664
11434TIP3    H255718   0.753   0.919   2.739 -1.2475 -1.0393 -1.0552
11435TIP3   OH255719   0.716   3.545   4.880  0.3050 -0.2756 -0.4103
11435TIP3    H155720   0.752   3.479   4.821 -0.9483 -0.3069 -1.1726
11435TIP3    H255721   0.792   3.592   4.913  1.3742 -2.9600  1.2337
11436TIP3   OH255722   1.939   2.609   2.233 -0.1068  0.4440 -0.5161
11436TIP3    H155723   1.921   2.529   2.184  0.5638  0.8138 -1.4100
11436TIP3    H255724   2.033   2.606   2.250 -0.0916  0.9873 -0.4715
11437TIP3   OH255725   5.002   0.007  11.967 -0.1680  0.1238  0.1823
11437TIP3    H155726   4.977  -0.084  11.986 -0.8405  0.1704 -0.4488
11437TIP3    H255727   4.940   0.059  12.018 -1.0978  0.2335 -1.0006
11438TIP3   OH255728   4.284   1.583   0.514  0.4522 -0.2762 -0.2382
11438TIP3    H155729   4.248   1.605   0.600 -0.4908 -2.9625  0.1463
11438TIP3    H255730   4.239   1.641   0.453 -1.7903 -0.9284  0.6946
11439TIP3   OH255731   4.210   4.582  13.732  0.3710  0.9228 -0.4630
11439TIP3    H155732   4.149   4.581  13.658 -2.1595  0.4943  1.4868
11439TIP3    H255733   4.262   4.502  13.722  1.6415  1.9575 -2.8836
11440TIP3   OH255734   6.243   1.094  16.207 -0.4419  0.4234  0.6125
11440TIP3    H155735   6.175   1.057  16.264 -0.4947 -0.5843 -0.0795
11440TIP3    H255736   6.207   1.087  16.119  0.0026  1.1540  0.3642
11441TIP3   OH255737   6.000   5.888  14.507 -0.6390  0.0653 -0.8559
11441TIP3    H155738   5.913   5.848  14.501  0.4622 -2.6228 -0.3472
11441TIP3    H255739   6.055   5.835  14.449  1.1606  0.0389  0.7724
11442TIP3   OH255740   3.872   5.424   0.949 -0.0136  1.0774 -0.0003
11442TIP3    H155741   3.808   5.491   0.926 -1.4665  0.0680  0.9159
11442TIP3    H255742   3.886   5.436   1.043 -0.7435 -0.2455  0.2977
11443TIP3   OH255743   4.108   4.967   1.987 -0.9015  0.0599  0.0561
11443TIP3    H155744   4.082   5.010   2.068  0.2825 -1.8100  1.5172
11443TIP3    H255745   4.202   4.982   1.981 -0.0998 -3.3700  1.4513
11444TIP3   OH255746   1.090   5.889  11.764 -0.1982 -0.2173 -0.5473
11444TIP3    H155747   1.018   5.856  11.819 -1.0990  3.9072  1.1163
11444TIP3    H255748   1.069   5.858  11.676 -1.6216 -2.6739  0.5471
11445TIP3   OH255749   3.220   0.605   3.846 -0.2031  0.4727 -0.1020
11445TIP3    H155750   3.146   0.544   3.850 -2.1225  2.7061  0.7658
11445TIP3    H255751   3.271   0.586   3.924 -0.4303 -0.3920 -0.1522
11446TIP3   OH255752   4.730   0.428  13.928 -0.4035  0.1476  0.6735
11446TIP3    H155753   4.666   0.472  13.872 -0.2135 -0.0181  0.3224
11446TIP3    H255754   4.813   0.472  13.909  0.0531 -1.1974 -0.6647
11447TIP3   OH255755   4.510   0.522   5.292  0.3165  0.5699  0.0897
11447TIP3    H155756   4.598   0.510   5.326  0.4180 -1.2458 -0.7162
11447TIP3    H255757   4.462   0.445   5.322 -1.2626  1.9058  1.2024
11448TIP3   OH255758   2.891   0.725   2.158 -0.2599 -0.3044 -0.4300
11448TIP3    H155759   2.824   0.732   2.225  0.3970  0.2875  0.1915
11448TIP3    H255760   2.857   0.775   2.084 -0.7276 -0.4439 -0.3068
11449TIP3   OH255761   0.457   3.995  16.394  0.0962 -0.3313  0.1943
11449TIP3    H155762   0.466   3.956  16.307  0.2425 -0.2708  0.1807
11449TIP3    H255763   0.417   4.080  16.378  1.5848  0.3690  0.0142
11450TIP3   OH255764   0.015   0.841   1.041  0.3578  0.1152 -0.1312
11450TIP3    H155765   0.088   0.882   0.994  1.3376 -0.6530  0.6722
11450TIP3    H255766  -0.005   0.762   0.990  0.4031  0.0845 -0.1018
11451TIP3   OH255767   1.010   5.656  10.515 -0.2308 -0.1014  0.6707
11451TIP3    H155768   1.047   5.580  10.559  1.5980  0.0993 -0.4086
11451TIP3    H255769   0.950   5.619  10.450  1.4591 -0.7785 -0.6029
11452TIP3   OH255770   3.079   2.452   3.951  0.0556  0.0058 -0.3764
11452TIP3    H155771   2.997   2.486   3.986 -0.6857 -0.9902 -1.0902
11452TIP3    H255772   3.070   2.357   3.955  0.9333 -0.1211 -1.0036
11453TIP3   OH255773   4.407   2.982  15.083  0.3840  0.1140  0.0014
11453TIP3    H155774   4.466   3.052  15.055 -0.2074  1.5259  2.0139
11453TIP3    H255775   4.450   2.943  15.159 -0.1964 -0.4184  0.0684
11454TIP3   OH255776   6.144   3.270   2.794 -0.2224 -0.1642  0.1671
11454TIP3    H155777   6.094   3.239   2.718  0.1316 -0.2339 -0.0409
11454TIP3    H255778   6.173   3.358   2.770 -0.5748  0.0264  0.4442
11455TIP3   OH255779   3.036   4.788   5.984 -0.4606 -0.3588  0.4015
11455TIP3    H155780   3.087   4.709   5.968 -2.1902 -1.7798  1.5652
11455TIP3    H255781   3.022   4.826   5.897 -0.0771 -1.6439 -0.2385
11456TIP3   OH255782   0.777   1.206  16.319  0.7558 -0.0572 -0.4632
11456TIP3    H155783   0.688   1.196  16.285  0.5362  0.2807  0.0058
11456TIP3    H255784   0.833   1.176  16.247  0.2580 -0.6455 -0.6155
11457TIP3   OH255785   2.899   1.092  12.478 -0.2784  0.3961 -0.0903
11457TIP3    H155786   2.895   1.066  12.386 -3.5844 -0.9376  0.2776
11457TIP3    H255787   2.983   1.058  12.509  0.5743  0.2161 -2.3972
11458TIP3   OH255788   1.066   1.819   5.802  0.1016 -0.0265 -0.1179
11458TIP3    H155789   1.086   1.739   5.753 -1.2050 -0.5237  0.1421
11458TIP3    H255790   1.014   1.789   5.877 -0.7418  1.1103 -0.2361
11459TIP3   OH255791   6.691   1.365  11.675 -0.3466 -0.6508  0.1353
11459TIP3    H155792   6.629   1.415  11.624  0.3769  0.6724  0.5124
11459TIP3    H255793   6.771   1.364  11.622  0.3043  0.4445  1.0564
11460TIP3   OH255794   4.096   1.447   2.144  0.0271  0.8371 -0.6435
11460TIP3    H155795   4.117   1.526   2.094  0.5468 -1.1330 -3.8346
11460TIP3    H255796   4.121   1.375   2.086 -0.9418 -1.7000  1.8739
11461TIP3   OH255797   0.276   2.720   3.113  0.2330 -0.2446  0.5915
11461TIP3    H155798   0.236   2.666   3.181  0.2874 -1.9115 -0.6366
11461TIP3    H255799   0.368   2.691   3.112 -0.0329 -1.1282 -0.9657
11462TIP3   OH255800   0.679   3.519  11.294 -0.2498  0.2248  0.1527
11462TIP3    H155801   0.628   3.485  11.221 -2.0070  0.0685  1.3722
11462TIP3    H255802   0.649   3.610  11.304  1.1366  0.7551 -0.2784
11463TIP3   OH255803   0.955   0.650  15.529  0.3574  0.7681  0.0796
11463TIP3    H155804   0.887   0.692  15.582  0.7313  1.2267  0.1954
11463TIP3    H255805   0.906   0.591  15.471  0.0323 -0.9658  1.9938
11464TIP3   OH255806   5.355   1.708   1.433  0.0484 -0.0206  0.2730
11464TIP3    H155807   5.372   1.648   1.360  1.1713 -0.9663  1.2728
11464TIP3    H255808   5.438   1.754   1.447 -0.1840  0.2250  0.8953
11465TIP3   OH255809   6.162   6.041   1.462 -0.1057 -0.3431 -0.3424
11465TIP3    H155810   6.098   5.969   1.463 -1.2745  0.6765  0.5895
11465TIP3    H255811   6.109   6.120   1.455  1.1919  0.4406 -2.1534
11466TIP3   OH255812   3.727   1.402   3.452 -0.0801  0.2255 -0.3614
11466TIP3    H155813   3.655   1.458   3.482  0.9329  0.0524  2.8442
11466TIP3    H255814   3.697   1.313   3.471  0.3712  0.0629 -0.3933
11467TIP3   OH255815   3.681   6.486  13.673  0.3159 -0.6255  0.7414
11467TIP3    H155816   3.712   6.577  13.673  0.9521 -0.8413  0.9942
11467TIP3    H255817   3.755   6.435  13.642  0.0946 -1.1038  0.9938
11468TIP3   OH255818   5.883   2.163   3.752 -0.2364  0.2239 -0.4118
11468TIP3    H155819   5.953   2.168   3.817  0.5895 -0.6560 -1.2104
11468TIP3    H255820   5.894   2.078   3.710 -1.9479 -0.0445 -0.3997
11469TIP3   OH255821   0.149   3.631  14.934 -0.0556  0.3908 -0.3510
11469TIP3    H155822   0.055   3.638  14.921 -0.3799 -1.8966  0.4191
11469TIP3    H255823   0.184   3.618  14.846 -0.4700  0.8446 -0.5908
11470TIP3   OH255824   4.530   2.980  12.416 -0.1870  0.4890  0.0720
11470TIP3    H155825   4.493   2.981  12.504  1.5207 -1.6850  0.9130
11470TIP3    H255826   4.533   2.888  12.392  2.8361  0.6771 -0.6721
11471TIP3   OH255827   5.357   6.020  11.853 -0.4021 -0.2556  0.5150
11471TIP3    H155828   5.268   6.050  11.839 -0.6760 -0.9056  0.8325
11471TIP3    H255829   5.355   5.976  11.938  0.5911  1.1526  1.3209
11472TIP3   OH255830   5.316   3.206  16.256 -0.0213 -0.5608  0.8297
11472TIP3    H155831   5.288   3.143  16.321 -0.6411  0.6086  1.7433
11472TIP3    H255832   5.234   3.245  16.224  0.2947 -0.8362 -0.3724
11473TIP3   OH255833   3.218   0.766  13.699  0.1654  0.2375  0.1639
11473TIP3    H155834   3.173   0.835  13.650  0.5951  1.5851  1.5755
11473TIP3    H255835   3.310   0.793  13.699  0.2982 -0.1828  0.9466
11474TIP3   OH255836   4.245   3.997  15.628  0.2065  0.1111 -0.5310
11474TIP3    H155837   4.269   3.969  15.540  2.5716  1.0893 -0.2649
11474TIP3    H255838   4.236   4.092  15.621  0.6690  0.2240  0.3254
11475TIP3   OH255839   0.102   2.249   0.143  0.2304 -0.3685  0.2382
11475TIP3    H155840   0.027   2.306   0.158  0.6854 -0.2118  2.2076
11475TIP3    H255841   0.064   2.165   0.118 -0.5824 -0.1511  0.7214
11476TIP3   OH255842   1.578   0.320  14.716 -0.1479 -0.4975  0.4685
11476TIP3    H155843   1.621   0.330  14.631 -0.3822  2.0444  0.5600
11476TIP3    H255844   1.648   0.290  14.774  1.4818  2.7817  0.4336
11477TIP3   OH255845   3.350   6.260   3.666 -0.2271 -0.1382  1.4100
11477TIP3    H155846   3.433   6.304   3.684  0.1165  0.3551 -1.0775
11477TIP3    H255847   3.284   6.315   3.707  0.4582  0.9497  1.0742
11478TIP3   OH255848   5.170   3.240  14.685  0.9658 -0.0885 -0.0889
11478TIP3    H155849   5.242   3.302  14.674 -0.1356  1.4144  0.7385
11478TIP3    H255850   5.091   3.293  14.672 -0.0168 -1.4566  0.0853
11479TIP3   OH255851   1.782   2.804  11.113 -0.0969  0.5459 -0.6716
11479TIP3    H155852   1.795   2.763  11.027 -1.1278  1.0665 -1.0845
11479TIP3    H255853   1.797   2.734  11.176  1.8125  0.4173 -1.2081
11480TIP3   OH255854   4.523   3.723   0.973  0.2805  0.7165 -0.1956
11480TIP3    H155855   4.582   3.741   0.900  1.4776  2.0186  1.0400
11480TIP3    H255856   4.580   3.720   1.050 -0.9542 -0.5180  0.7342
11481TIP3   OH255857   1.379   1.313   5.636 -0.2887 -0.6765 -0.4832
11481TIP3    H155858   1.394   1.352   5.722 -0.5773 -2.3732  0.3805
11481TIP3    H255859   1.296   1.267   5.644 -0.8392 -0.0252 -2.0075
11482TIP3   OH255860   3.140   5.188   4.076 -0.4075 -0.3624  0.0294
11482TIP3    H155861   3.199   5.118   4.052  2.4333  0.6957  3.2485
11482TIP3    H255862   3.094   5.157   4.154 -0.1898  0.7635  0.6367
11483TIP3   OH255863   6.048   3.572  11.397  0.0394 -0.0987 -0.4623
11483TIP3    H155864   5.971   3.575  11.339  0.3572  0.8736 -0.8613
11483TIP3    H255865   6.105   3.642  11.364 -0.1690  1.0930  1.5624
11484TIP3   OH255866   2.786   0.302  12.101  0.2532 -0.1833 -0.7826
11484TIP3    H155867   2.751   0.220  12.066 -2.8421  1.6616 -2.4507
11484TIP3    H255868   2.756   0.304  12.192  0.6688 -1.0357 -0.6183
11485TIP3   OH255869   3.970   1.520  14.335  0.0565  0.7526  0.4959
11485TIP3    H155870   3.992   1.564  14.417  2.0327 -2.6642  2.0209
11485TIP3    H255871   4.030   1.558  14.270  1.7582  0.3436  1.7542
11486TIP3   OH255872   3.328   1.348  14.025  0.3225  0.5221  0.4170
11486TIP3    H155873   3.419   1.333  14.048  1.0002  1.7855 -1.2802
11486TIP3    H255874   3.314   1.293  13.948 -0.9378 -1.0586  1.6700
11487TIP3   OH255875   3.088   2.966  13.545  0.0220 -0.0750 -0.0238
11487TIP3    H155876   3.106   3.059  13.552 -2.1057  0.3865 -0.2587
11487TIP3    H255877   3.029   2.947  13.617 -2.2700 -0.4824 -1.8935
11488TIP3   OH255878   0.355   5.717  10.912  0.3493  0.2942 -0.2885
11488TIP3    H155879   0.404   5.708  10.830  1.4113  1.9932  0.1240
11488TIP3    H255880   0.395   5.653  10.971  1.7074  1.2194 -0.1570
11489TIP3   OH255881   1.001   2.880  11.814 -0.0495  0.2045  0.1169
11489TIP3    H155882   1.069   2.815  11.835 -0.6928 -0.0022  1.7500
11489TIP3    H255883   0.962   2.849  11.733  1.7162  0.2734 -0.8178
11490TIP3   OH255884   3.579   5.897  11.747  0.1945 -0.5230  0.0958
11490TIP3    H155885   3.563   5.989  11.766  1.4902 -0.8512  3.4084
11490TIP3    H255886   3.670   5.894  11.717  0.6005 -0.8124  1.2986
11491TIP3   OH255887   1.252   6.818   5.862  0.1309 -0.6045  0.1074
11491TIP3    H155888   1.283   6.888   5.805  0.7654  1.6562  2.9684
11491TIP3    H255889   1.331   6.777   5.895 -0.0545  0.1516  1.6022
11492TIP3   OH255890   4.509   0.233  11.885 -0.4657  0.0749  0.0524
11492TIP3    H155891   4.475   0.153  11.924  0.0454 -0.8288 -1.3023
11492TIP3    H255892   4.483   0.229  11.793  1.4758  0.3400 -0.5600
11493TIP3   OH255893   3.082   2.377  12.566  0.1776  0.3121 -0.1719
11493TIP3    H155894   3.151   2.315  12.541  0.2070 -0.2926  1.3351
11493TIP3    H255895   3.120   2.463  12.547  0.8603 -0.0532 -0.5262
11494TIP3   OH255896   4.607   5.747   0.230  0.2596 -0.7614  0.2210
11494TIP3    H155897   4.582   5.816   0.170 -0.1463 -2.3030 -1.4721
11494TIP3    H255898   4.695   5.771   0.259 -0.3446  1.0742  0.6928
11495TIP3   OH255899   2.408   5.636   3.462  0.0500 -0.4414  0.5378
11495TIP3    H155900   2.454   5.560   3.497  0.5354 -0.2148  0.3944
11495TIP3    H255901   2.380   5.685   3.540  0.5097 -0.3075  0.6232
11496TIP3   OH255902   3.504   3.566   0.524  0.4272  0.1341 -0.7039
11496TIP3    H155903   3.485   3.641   0.468 -0.6290 -0.7791 -1.6178
11496TIP3    H255904   3.438   3.501   0.500  1.9256 -1.4663 -0.6582
11497TIP3   OH255905   2.223   2.111   2.701  0.0198 -0.3700  0.4179
11497TIP3    H155906   2.214   2.195   2.658 -0.3700 -0.6449 -0.0483
11497TIP3    H255907   2.133   2.084   2.721  0.0018 -1.4657 -0.9925
11498TIP3   OH255908   5.649   2.516   3.267 -0.1725 -0.3485 -0.2682
11498TIP3    H155909   5.693   2.459   3.329 -1.0406 -0.0927  0.6175
11498TIP3    H255910   5.608   2.584   3.321 -0.4355  0.2417 -1.1691
11499TIP3   OH255911   1.609   4.864   5.074  0.2953  0.6283  0.4833
11499TIP3    H155912   1.608   4.951   5.033 -1.4111 -0.2008 -1.4161
11499TIP3    H255913   1.668   4.812   5.020  1.9945  0.7711  2.1264
11500TIP3   OH255914   0.457   2.698   4.076 -0.4335  0.2387 -0.0207
11500TIP3    H155915   0.537   2.749   4.062 -1.3253  1.5232 -0.5216
11500TIP3    H255916   0.407   2.748   4.139  0.4819 -2.1247  2.7931
11501TIP3   OH255917   6.216   6.775   1.978  0.0083  0.3565  0.1931
11501TIP3    H155918   6.204   6.838   2.049  2.1957  2.0259 -0.8247
11501TIP3    H255919   6.164   6.810   1.906  0.5032  0.5093 -0.0903
11502TIP3   OH255920   0.498   5.258   2.702 -0.5351 -0.8664  0.2230
11502TIP3    H155921   0.592   5.249   2.715 -0.2912 -2.3037 -1.9400
11502TIP3    H255922   0.490   5.308   2.620 -1.7685  2.1853  2.0553
11503TIP3   OH255923   4.675   0.705  15.181  0.2476  0.5121 -0.2482
11503TIP3    H155924   4.696   0.756  15.260  1.5160 -0.9185  0.3812
11503TIP3    H255925   4.714   0.755  15.110  0.9997  0.7324  0.2988
11504TIP3   OH255926   4.995   1.690  12.228  0.2806 -0.1905 -0.1173
11504TIP3    H155927   4.945   1.685  12.310 -0.7016  0.6904 -0.6338
11504TIP3    H255928   4.955   1.623  12.172  1.7855 -1.6842  0.5207
11505TIP3   OH255929   3.206   3.058  14.935  0.0899 -0.4317 -0.0711
11505TIP3    H155930   3.179   3.147  14.910  0.9383  0.1623  1.0341
11505TIP3    H255931   3.294   3.069  14.970 -0.3125 -1.4881  1.3871
11506TIP3   OH255932   5.049   6.032  14.058  0.1481  0.1908  0.3788
11506TIP3    H155933   4.991   5.956  14.052 -0.2597  0.4713  0.7016
11506TIP3    H255934   4.993   6.103  14.089  0.5495  0.5998  0.1839
11507TIP3   OH255935   6.592   2.926  13.257  0.3094  0.1853  0.1697
11507TIP3    H155936   6.572   2.953  13.167  0.5845  2.4614  0.7395
11507TIP3    H255937   6.604   3.008  13.305  2.1056 -0.9665  1.8613
11508TIP3   OH255938   3.981   3.641   1.019  0.3940 -0.3769  0.2886
11508TIP3    H155939   4.004   3.686   0.937 -2.7969 -0.7822 -0.9747
11508TIP3    H255940   3.914   3.697   1.058  2.0356 -0.0630  2.8728
11509TIP3   OH255941   2.716   2.741  14.531 -0.2648 -0.1105  0.2326
11509TIP3    H155942   2.621   2.741  14.544 -0.2573 -1.3632  0.3972
11509TIP3    H255943   2.727   2.768  14.440 -0.9576 -2.6435 -0.6771
11510TIP3   OH255944   0.465   1.623   4.998 -0.3983 -0.5845 -0.1212
11510TIP3    H155945   0.457   1.555   4.931 -0.6342 -0.9865  0.3138
11510TIP3    H255946   0.406   1.692   4.968  0.7466 -0.0266 -1.2029
11511TIP3   OH255947   1.660   5.664  11.538 -0.3154  0.7677 -0.2233
11511TIP3    H155948   1.639   5.756  11.550  0.7180  0.8295  1.4101
11511TIP3    H255949   1.577   5.623  11.514 -1.0326  1.9127  0.2276
11512TIP3   OH255950   2.481   3.135  13.595 -0.3956  0.7722  0.2222
11512TIP3    H155951   2.414   3.092  13.648  1.1019 -1.8077  0.1798
11512TIP3    H255952   2.447   3.132  13.505  0.0174 -1.1697  0.0934
11513TIP3   OH255953   0.355   0.987   2.214  0.3055  0.2137  0.2799
11513TIP3    H155954   0.413   0.910   2.216 -0.7371 -0.7441 -2.2751
11513TIP3    H255955   0.406   1.054   2.169  0.2568  0.1482  0.1284
11514TIP3   OH255956   3.768   4.252   0.681  0.1597  0.1456 -0.2655
11514TIP3    H155957   3.753   4.158   0.681 -1.8357  0.4139 -0.5400
11514TIP3    H255958   3.744   4.280   0.593  1.6457  0.8169 -0.4883
11515TIP3   OH255959   3.191   5.818   2.889  0.2845 -0.6229  0.6698
11515TIP3    H155960   3.101   5.786   2.894  0.5489 -1.6936 -0.9462
11515TIP3    H255961   3.245   5.741   2.905  0.9307 -0.3341 -0.0726
11516TIP3   OH255962   5.066   3.986   4.254  0.6251  0.0016  0.0093
11516TIP3    H155963   5.160   3.987   4.274  0.6692 -0.7185 -0.1019
11516TIP3    H255964   5.026   3.940   4.328  0.4145 -0.0533 -0.1370
11517TIP3   OH255965   4.418   1.740  12.673  0.5418 -0.7297  0.5146
11517TIP3    H155966   4.444   1.685  12.599 -0.5962  2.6654 -2.7599
11517TIP3    H255967   4.336   1.703  12.704  1.0264 -2.2123  0.0969
11518TIP3   OH255968   6.598   2.433  13.259 -0.0027 -0.0698 -0.1440
11518TIP3    H155969   6.685   2.469  13.275  0.9015 -2.6571  1.3450
11518TIP3    H255970   6.592   2.423  13.164  1.1841  0.4038 -0.2816
11519TIP3   OH255971   5.273   4.469  13.183  0.4285  0.3977 -0.6301
11519TIP3    H155972   5.337   4.453  13.114  1.3831  0.7004  0.1745
11519TIP3    H255973   5.301   4.550  13.225 -1.7251  1.7800 -1.6423
11520TIP3   OH255974   4.074   3.816   0.041 -0.1519 -0.1479 -0.3222
11520TIP3    H155975   4.116   3.837   0.124 -1.5215  1.0966  0.1048
11520TIP3    H255976   4.146   3.803  -0.020  0.8642  0.2294  0.7584
11521TIP3   OH255977   2.645   3.490   0.949  0.1086 -0.6163 -0.4362
11521TIP3    H155978   2.740   3.499   0.956 -0.0524  0.7018  0.4635
11521TIP3    H255979   2.627   3.402   0.982  1.0259 -0.9291 -0.7388
11522TIP3   OH255980   4.330   4.078  10.632  0.5964  0.3693  0.3503
11522TIP3    H155981   4.308   4.164  10.669 -0.9618 -0.3778  1.2557
11522TIP3    H255982   4.245   4.038  10.613  1.3034 -0.9682 -0.0911
11523TIP3   OH255983   3.260   0.781  12.854  0.0220 -0.1091 -0.1082
11523TIP3    H155984   3.321   0.855  12.846 -1.8318  1.6431  1.0548
11523TIP3    H255985   3.188   0.816  12.906 -0.3815 -3.1235  1.5406
11524TIP3   OH255986   4.428   6.032   1.353 -0.2875 -0.2480  0.4637
11524TIP3    H155987   4.361   5.977   1.314 -0.3009 -0.3062  0.5680
11524TIP3    H255988   4.502   5.973   1.369  0.6165  0.2092 -1.6274
11525TIP3   OH255989   5.897   6.501   1.534 -0.2647 -0.1650  0.1424
11525TIP3    H155990   5.948   6.465   1.607 -2.1673 -1.9080  0.7210
11525TIP3    H255991   5.863   6.584   1.566  1.8198  0.8397 -0.1193
11526TIP3   OH255992   2.794   1.815   4.415  0.0659  0.8993 -0.1410
11526TIP3    H155993   2.755   1.796   4.330 -0.9981 -0.4998  0.6003
11526TIP3    H255994   2.724   1.795   4.478  1.7059 -0.9993  1.2127
11527TIP3   OH255995   2.890   5.082   1.621 -0.3122 -0.9113 -0.4021
11527TIP3    H155996   2.861   5.045   1.538 -0.0941 -0.9083 -0.4787
11527TIP3    H255997   2.854   5.171   1.622  2.8776  0.5567 -2.2450
11528TIP3   OH255998   1.354   4.048  12.841 -0.2190 -0.1313  0.2309
11528TIP3    H155999   1.445   4.073  12.823 -0.1295 -0.6220  0.0064
11528TIP3    H256000   1.312   4.048  12.755 -0.5530  0.5603  0.3860
11529TIP3   OH256001   5.927   5.481   1.313  0.1408 -0.0665  0.5922
11529TIP3    H156002   5.952   5.505   1.402 -1.1317  0.1255  0.9152
11529TIP3    H256003   5.836   5.511   1.304  0.0208 -0.6873 -0.5374
11530TIP3   OH256004   5.535   1.764   3.534  0.6570  0.1735  0.2054
11530TIP3    H156005   5.586   1.844   3.545  0.2986  0.3201  0.8243
11530TIP3    H256006   5.521   1.757   3.439  1.4513  0.3619  0.0641
11531TIP3   OH256007   1.035   3.252  11.847 -0.2196  0.2239  0.3202
11531TIP3    H156008   1.061   3.273  11.757  0.5185 -1.4358  0.0998
11531TIP3    H256009   0.943   3.278  11.852 -0.3251  0.1748 -0.9859
11532TIP3   OH256010   0.666   0.211   1.891  0.1347  0.3989 -0.0064
11532TIP3    H156011   0.713   0.136   1.929 -0.4520  0.7165  1.4163
11532TIP3    H256012   0.736   0.267   1.857  0.7684  0.3781  1.1745
11533TIP3   OH256013   5.780   4.256   4.087  0.2141  0.8774  0.2910
11533TIP3    H156014   5.749   4.325   4.028 -0.5799  0.6833  0.4662
11533TIP3    H256015   5.828   4.196   4.030  0.9141  1.5571  0.1355
11534TIP3   OH256016   3.585   1.155  12.664 -0.0471 -0.1626 -0.1707
11534TIP3    H156017   3.544   1.175  12.748 -0.1132  1.8615 -0.6294
11534TIP3    H256018   3.632   1.235  12.641  0.3430 -0.8362 -1.8531
11535TIP3   OH256019   1.832   6.016  12.510  0.5308 -0.3327 -0.2488
11535TIP3    H156020   1.896   6.021  12.580 -0.1601  0.5054  0.3407
11535TIP3    H256021   1.777   6.093  12.522 -1.7974 -1.9889  0.4556
11536TIP3   OH256022   1.764   0.689   6.316 -0.0879  0.0664  0.0640
11536TIP3    H156023   1.845   0.699   6.367 -0.7660  0.1228  1.1815
11536TIP3    H256024   1.738   0.779   6.295 -0.0128  0.0649 -0.0330
11537TIP3   OH256025   6.338   4.396  15.559  0.1212 -0.3872  0.1959
11537TIP3    H156026   6.355   4.484  15.525 -0.7088 -0.2192  0.1810
11537TIP3    H256027   6.266   4.408  15.621  1.8896 -0.6046  2.4223
11538TIP3   OH256028   6.443   6.204   1.196  0.0046 -0.3648 -0.1029
11538TIP3    H156029   6.505   6.272   1.223  1.6807 -0.4011 -3.3321
11538TIP3    H256030   6.379   6.249   1.141 -2.5829 -0.4686  2.6072
11539TIP3   OH256031   2.064   0.393   1.582  0.2488 -0.3986 -0.1496
11539TIP3    H156032   2.000   0.371   1.514 -0.0399 -1.3477  0.4016
11539TIP3    H256033   2.012   0.433   1.652  0.4412 -0.0381 -0.2142
11540TIP3   OH256034   6.587   6.230  16.018 -0.2858 -0.7213  0.3118
11540TIP3    H156035   6.650   6.162  16.041 -0.6688 -1.3695 -0.4778
11540TIP3    H256036   6.542   6.251  16.100 -0.5350 -1.8143  0.4622
11541TIP3   OH256037   3.783   1.997   0.968 -0.2563 -0.2281  0.0350
11541TIP3    H156038   3.759   2.028   1.055  0.2482 -0.7505  0.3724
11541TIP3    H256039   3.734   2.053   0.907 -1.7218 -0.7703  0.6768
11542TIP3   OH256040   5.109   0.044   5.223 -0.5991  0.1027 -0.1448
11542TIP3    H156041   5.130   0.036   5.316  0.0536 -0.3016 -0.3250
11542TIP3    H256042   5.190   0.022   5.177 -0.9604  0.1341 -0.8177
11543TIP3   OH256043   5.331   6.314   2.387 -0.6849 -0.3930  0.1872
11543TIP3    H156044   5.243   6.281   2.403 -1.0979  0.9927  0.9272
11543TIP3    H256045   5.382   6.237   2.363 -2.4943 -0.9891 -2.0658
11544TIP3   OH256046   6.754   5.213   6.405 -0.8352  0.2127 -0.1388
11544TIP3    H156047   6.818   5.279   6.378 -1.7836  0.8082 -0.9801
11544TIP3    H256048   6.757   5.146   6.337 -3.4039  1.8348 -2.0631
11545TIP3   OH256049   0.846   4.111  16.863  0.2196 -0.3331  0.1421
11545TIP3    H156050   0.778   4.117  16.930  0.3888  0.1199  0.2751
11545TIP3    H256051   0.828   4.028  16.818 -0.0435 -0.5194  0.5849
11546TIP3   OH256052   5.860   5.792   3.707 -0.2097 -0.5044  0.1471
11546TIP3    H156053   5.801   5.720   3.685  0.9654 -0.9996 -1.6856
11546TIP3    H256054   5.946   5.750   3.714  0.0754  0.3032  2.0815
11547TIP3   OH256055   0.864   5.353  14.267  0.4938 -0.4793 -0.0018
11547TIP3    H156056   0.836   5.308  14.347 -0.7058 -0.6227 -0.4764
11547TIP3    H256057   0.896   5.438  14.296  0.1211 -0.5557  0.6388
11548TIP3   OH256058   3.559   5.412  13.214 -0.3335 -0.1541  0.1183
11548TIP3    H156059   3.522   5.492  13.178  1.0543  0.1798 -0.6183
11548TIP3    H256060   3.568   5.430  13.308 -0.1606  0.5084 -0.0180
11549TIP3   OH256061   3.773   1.859  14.178 -0.7062  0.2290 -0.2286
11549TIP3    H156062   3.792   1.951  14.192  0.0402 -0.1697  1.6456
11549TIP3    H256063   3.695   1.841  14.231 -0.0216 -0.5046  0.5674
11550TIP3   OH256064   1.127   4.174  11.507 -0.2759 -0.0067  0.4613
11550TIP3    H156065   1.152   4.086  11.480  0.9564  0.3322  0.4299
11550TIP3    H256066   1.102   4.165  11.599 -2.4751 -0.7852 -0.1372
11551TIP3   OH256067   3.617   5.311  15.419  0.2328 -0.0012  0.3696
11551TIP3    H156068   3.663   5.272  15.345 -0.2458 -1.5210  0.8482
11551TIP3    H256069   3.633   5.252  15.492 -0.7746  0.5201  1.0430
11552TIP3   OH256070   3.897   4.331  16.900  0.0581  0.1809 -0.1619
11552TIP3    H156071   3.835   4.283  16.956  0.4901  1.0715  1.1276
11552TIP3    H256072   3.981   4.321  16.944  0.4854  0.5806 -0.8791
11553TIP3   OH256073   1.291   4.604  12.812 -0.1211 -0.3093 -0.3954
11553TIP3    H156074   1.248   4.651  12.740 -1.3163 -0.4299  0.2120
11553TIP3    H256075   1.250   4.640  12.891 -0.3493 -1.6821  0.1262
11554TIP3   OH256076   2.705   4.618  12.973 -0.5001 -0.4661  0.7878
11554TIP3    H156077   2.762   4.685  12.935  0.4550 -0.4620  2.1628
11554TIP3    H256078   2.701   4.549  12.906 -1.3995  0.8679 -0.5870
11555TIP3   OH256079   3.072   5.126  16.807 -0.0156  0.1152  0.2585
11555TIP3    H156080   3.143   5.169  16.760 -0.3308  0.8446  0.4405
11555TIP3    H256081   2.994   5.178  16.786 -1.0048 -1.9916 -1.8697
11556TIP3   OH256082   1.544   1.775   2.574  0.4887  0.1538 -0.3476
11556TIP3    H156083   1.474   1.720   2.539 -0.2906  0.7885  0.1936
11556TIP3    H256084   1.544   1.853   2.519 -0.8562  1.2357  1.1122
11557TIP3   OH256085   6.645   5.929  13.070  0.2609 -0.8003 -0.0518
11557TIP3    H156086   6.614   5.911  12.981 -1.1953  0.1265  0.2390
11557TIP3    H256087   6.580   5.887  13.127  0.2790 -0.0057  0.5750
11558TIP3   OH256088   0.545   6.335   5.013  0.5790 -0.1357 -0.5910
11558TIP3    H156089   0.596   6.370   5.087  0.3758  0.3301 -0.6705
11558TIP3    H256090   0.478   6.401   4.997  0.0931 -0.6365 -0.6469
11559TIP3   OH256091   5.088   5.218  12.180 -0.1568  0.1859 -0.3198
11559TIP3    H156092   5.169   5.208  12.230  0.5913  3.4261 -0.6394
11559TIP3    H256093   5.083   5.139  12.127  1.7525 -0.9916  1.1146
11560TIP3   OH256094   6.414   0.537   5.089 -0.1125  0.5156 -0.3422
11560TIP3    H156095   6.427   0.593   5.165 -1.7699  1.4516 -0.7082
11560TIP3    H256096   6.449   0.588   5.016  0.1491  0.2424 -0.4071
11561TIP3   OH256097   3.128   1.894   0.610  0.2149  0.0081 -0.1554
11561TIP3    H156098   3.128   1.811   0.563  2.6230 -0.7338  0.9644
11561TIP3    H256099   3.188   1.880   0.684 -0.8286  2.1432  1.2024
11562TIP3   OH256100   5.854   3.098  11.769 -0.5663  0.0544  0.0280
11562TIP3    H156101   5.878   3.040  11.697 -1.2761 -2.5615  1.7443
11562TIP3    H256102   5.924   3.163  11.773 -0.4778  0.2789 -2.9106
11563TIP3   OH256103   5.290   6.417   4.809  0.2364 -0.0736  0.0231
11563TIP3    H156104   5.265   6.436   4.900  0.1002  0.2648 -0.0816
11563TIP3    H256105   5.310   6.503   4.772 -0.1495 -0.1599 -0.3937
11564TIP3   OH256106   6.603   3.037   1.777  0.8234  0.0298 -0.5946
11564TIP3    H156107   6.686   2.990   1.779  0.2951 -0.9955  2.4001
11564TIP3    H256108   6.543   2.978   1.732  0.4718 -1.7840  2.0394
11565TIP3   OH256109   4.959   5.811   6.153  0.4728 -1.0378  0.1268
11565TIP3    H156110   4.873   5.769   6.164 -0.6307  0.3767 -2.3737
11565TIP3    H256111   4.967   5.868   6.229 -1.1656 -0.6696  0.0675
11566TIP3   OH256112   6.660   2.618   0.641 -0.7118 -0.4493  0.3290
11566TIP3    H156113   6.715   2.570   0.579 -0.6554  0.1292 -0.0672
11566TIP3    H256114   6.662   2.708   0.611 -2.6201 -0.5456 -0.2373
11567TIP3   OH256115   0.348   4.947   5.178 -0.4618  0.4429  0.3876
11567TIP3    H156116   0.393   4.886   5.120 -0.9244  0.9616 -0.5584
11567TIP3    H256117   0.324   4.895   5.254  3.0173  0.4798  1.6527
11568TIP3   OH256118   5.294   0.423   5.248  0.1947 -0.2790  0.6312
11568TIP3    H156119   5.249   0.506   5.263 -0.1469 -0.2641 -0.3691
11568TIP3    H256120   5.291   0.378   5.332  0.0523  0.5640  1.0842
11569TIP3   OH256121   6.521   2.094  15.732  0.8517 -0.2411 -0.0856
11569TIP3    H156122   6.457   2.046  15.680  1.7501 -0.9217 -0.6096
11569TIP3    H256123   6.501   2.186  15.717 -0.6190 -0.4275  0.5735
11570TIP3   OH256124   0.408   2.909   0.827 -0.5528  0.4288  0.4393
11570TIP3    H156125   0.446   2.900   0.740  0.1004  1.5053  0.6032
11570TIP3    H256126   0.320   2.872   0.818 -1.5586  2.9854 -1.4177
11571TIP3   OH256127   5.212   4.066  13.029  0.4764  0.1398 -0.2075
11571TIP3    H156128   5.266   4.065  13.107  1.2669 -1.8402 -0.7267
11571TIP3    H256129   5.140   4.005  13.048  0.8917 -0.6662 -1.1426
11572TIP3   OH256130   0.478   3.378   6.403 -0.3333 -0.3198 -0.5011
11572TIP3    H156131   0.391   3.416   6.393 -0.0921  0.7065  0.9604
11572TIP3    H256132   0.538   3.445   6.373  0.0182 -0.2965  0.2272
11573TIP3   OH256133   6.495   4.093  11.845 -0.0755  0.1726 -0.2427
11573TIP3    H156134   6.488   4.132  11.758 -0.1076  0.3920 -0.1420
11573TIP3    H256135   6.446   4.011  11.838 -0.5877  0.4787 -0.2619
11574TIP3   OH256136   4.348   2.887   5.417  0.2005  0.5317 -0.1286
11574TIP3    H156137   4.273   2.897   5.477  0.5361  2.6677 -0.0035
11574TIP3    H256138   4.424   2.909   5.471  0.6904  0.6528 -0.8676
11575TIP3   OH256139   6.339   4.675   4.220  0.4883 -0.3065 -0.1653
11575TIP3    H156140   6.279   4.626   4.277  0.7291 -0.9731 -0.4696
11575TIP3    H256141   6.281   4.721   4.159  0.2254  0.5425  0.7118
11576TIP3   OH256142   1.106   4.611  11.513  0.1053  0.1275  0.4832
11576TIP3    H156143   1.028   4.648  11.554 -1.1622 -2.5873  0.7308
11576TIP3    H256144   1.078   4.591  11.423  0.5566 -0.6896  0.5181
11577TIP3   OH256145   2.046   1.068  13.222  0.1826 -0.0722 -0.1732
11577TIP3    H156146   2.001   1.010  13.283 -0.6770  0.2943 -0.4471
11577TIP3    H256147   2.125   1.019  13.196 -0.7425 -1.3294 -0.7485
11578TIP3   OH256148   6.043   4.596  16.618 -0.0486  0.0397  0.2874
11578TIP3    H156149   6.057   4.554  16.533  1.2947  0.1999  0.4065
11578TIP3    H256150   6.019   4.686  16.597  0.9590  0.2713  0.0593
11579TIP3   OH256151   2.530   4.624  11.335  0.2930  0.5067  0.2755
11579TIP3    H156152   2.626   4.626  11.330  0.3863  0.9377  1.6179
11579TIP3    H256153   2.512   4.590  11.423 -0.7382  1.7927  0.6018
11580TIP3   OH256154   3.597   2.124   3.082 -0.6044 -0.1941 -0.0020
11580TIP3    H156155   3.652   2.170   3.019 -0.4089  0.3484  0.5446
11580TIP3    H256156   3.538   2.192   3.116  1.6215  0.4482  2.9869
11581TIP3   OH256157   2.137   3.681  12.868  0.0378 -0.1194 -0.2891
11581TIP3    H156158   2.217   3.715  12.908  0.1973 -1.8394  1.0047
11581TIP3    H256159   2.131   3.591  12.901 -1.5311 -0.5846 -1.7217
11582TIP3   OH256160   3.766   6.168   2.971  0.4374  0.0979  0.2866
11582TIP3    H156161   3.804   6.176   2.884 -1.0392 -0.2769 -0.4353
11582TIP3    H256162   3.817   6.099   3.013  0.8038 -0.1251 -0.5018
11583TIP3   OH256163   1.946   6.489   0.539 -0.4203 -0.0086  0.4445
11583TIP3    H156164   2.036   6.521   0.533 -0.4473  0.6177  2.4347
11583TIP3    H256165   1.902   6.527   0.463  0.6693  0.8404  0.2120
11584TIP3   OH256166   6.442   4.129  14.202 -0.3563  0.3252  0.5123
11584TIP3    H156167   6.348   4.143  14.215 -0.2299  0.3556  1.4865
11584TIP3    H256168   6.471   4.089  14.284  0.1068 -1.5954 -0.5448
11585TIP3   OH256169   2.455   5.305  11.895  0.0533  0.4016  0.1063
11585TIP3    H156170   2.495   5.231  11.940  1.4328  0.4579 -0.9490
11585TIP3    H256171   2.398   5.264  11.829 -1.4257  0.3196  1.3913
11586TIP3   OH256172   5.670   3.857   2.689 -0.7784 -0.2394  0.0989
11586TIP3    H156173   5.662   3.794   2.761  0.6376 -1.7121 -0.9738
11586TIP3    H256174   5.760   3.889   2.696 -0.3650 -1.0011 -1.4741
11587TIP3   OH256175   4.757   4.992  12.621  0.1236  0.2346  0.0649
11587TIP3    H156176   4.827   5.016  12.560 -1.5085 -0.7289 -2.3076
11587TIP3    H256177   4.752   4.897  12.616  0.7390 -0.0259  2.7298
11588TIP3   OH256178   0.042   6.588  10.723 -0.1643 -0.4569 -0.0039
11588TIP3    H156179   0.059   6.497  10.747 -0.1580 -0.9229 -1.6828
11588TIP3    H256180   0.086   6.600  10.639 -0.7725  0.8845 -0.1648
11589TIP3   OH256181   5.141   5.454  11.965 -0.2538  0.1560 -0.4857
11589TIP3    H156182   5.073   5.520  11.979 -1.2246 -0.4857 -1.9184
11589TIP3    H256183   5.147   5.408  12.049 -2.2510 -0.3349 -0.5492
11590TIP3   OH256184   4.614   6.545  11.288 -0.2225  0.0761 -0.0115
11590TIP3    H156185   4.551   6.606  11.250 -0.1060  0.0613 -0.2295
11590TIP3    H256186   4.646   6.589  11.367 -0.5703  0.0466  0.1448
11591TIP3   OH256187   3.370   1.872   3.871 -0.3302 -0.1333  0.8052
11591TIP3    H156188   3.333   1.803   3.926  1.1299  0.3568  2.4973
11591TIP3    H256189   3.447   1.902   3.919  0.1492  1.3784 -0.8114
11592TIP3   OH256190   4.593   2.471  11.151  0.0417 -0.1077 -0.4807
11592TIP3    H156191   4.647   2.537  11.196  0.5789 -0.2770 -0.8695
11592TIP3    H256192   4.526   2.448  11.215  0.9346 -0.5227  0.3417
11593TIP3   OH256193   6.185   3.510  15.945 -0.7294  0.6741 -0.6268
11593TIP3    H156194   6.204   3.582  16.005 -0.6668 -0.7205  1.1197
11593TIP3    H256195   6.090   3.500  15.950 -0.5605 -0.5740  0.6728
11594TIP3   OH256196   3.321   6.732  12.537  0.5196 -0.4182 -0.3772
11594TIP3    H156197   3.281   6.694  12.615  1.9427 -0.3740  0.4079
11594TIP3    H256198   3.390   6.671  12.513  1.5686  0.6745 -0.2455
11595TIP3   OH256199   1.300   6.713  16.908 -0.3627 -0.0245 -0.2082
11595TIP3    H156200   1.286   6.728  17.002  0.2258 -0.3878 -0.0600
11595TIP3    H256201   1.337   6.796  16.877  0.1687 -0.1649  0.0375
11596TIP3   OH256202   2.130   3.438  12.308 -0.3150 -0.0630  0.5822
11596TIP3    H156203   2.207   3.494  12.319 -0.3264 -0.3032  2.1154
11596TIP3    H256204   2.163   3.349  12.322 -0.7514 -0.2237  0.6034
11597TIP3   OH256205   0.928   4.934  15.212  0.1247 -1.1221  0.1681
11597TIP3    H156206   0.976   4.938  15.130 -3.0624  3.2328 -1.8684
11597TIP3    H256207   0.970   4.999  15.268 -1.4786  0.6211 -0.5607
11598TIP3   OH256208   6.505   3.211  15.298  0.0439 -0.1214 -0.0576
11598TIP3    H156209   6.416   3.231  15.328 -1.1835 -3.0747 -1.3678
11598TIP3    H256210   6.553   3.292  15.312 -2.7510  1.5111  0.9987
11599TIP3   OH256211   3.485   4.458   3.970  0.8522 -0.3522 -0.5034
11599TIP3    H156212   3.469   4.381   4.026  1.2555 -1.6947 -2.1339
11599TIP3    H256213   3.503   4.421   3.883 -0.6406  1.6629 -1.7596
11600TIP3   OH256214   5.414   4.731   2.206 -0.0197  0.7748  0.2957
11600TIP3    H156215   5.380   4.657   2.155 -1.4478  1.8443 -0.3803
11600TIP3    H256216   5.420   4.698   2.295  0.4513 -0.4913 -0.1878
11601TIP3   OH256217   1.535   0.742   4.373 -0.2092 -0.0341 -0.1694
11601TIP3    H156218   1.548   0.738   4.468 -1.5411  1.7522  0.1573
11601TIP3    H256219   1.470   0.812   4.361  1.6104  1.4003 -2.5588
11602TIP3   OH256220   5.647   4.490  14.153 -0.0425  0.2404  0.5572
11602TIP3    H156221   5.632   4.551  14.081  0.5282  1.9214  1.7747
11602TIP3    H256222   5.566   4.439  14.160  0.0189 -0.2090 -1.4443
11603TIP3   OH256223   4.279   4.418  14.414 -0.4107  0.1054  0.4657
11603TIP3    H156224   4.374   4.418  14.407 -0.4422  1.1603 -0.1589
11603TIP3    H256225   4.249   4.477  14.345 -1.4384  0.9453  1.5684
11604TIP3   OH256226   0.105   1.644  12.724  0.4098  0.2061  0.3175
11604TIP3    H156227   0.059   1.566  12.693  1.0223  0.2463 -0.7469
11604TIP3    H256228   0.097   1.706  12.652 -0.9413  1.5309  1.5413
11605TIP3   OH256229   2.838   4.248  13.814  0.5896  0.8495 -0.3349
11605TIP3    H156230   2.896   4.171  13.813  0.4682  0.7188  1.0766
11605TIP3    H256231   2.844   4.281  13.903 -2.0181  0.4462  0.0707
11606TIP3   OH256232   4.783   5.786  15.780 -0.5576 -0.5396  0.4339
11606TIP3    H156233   4.770   5.872  15.738  0.3537 -0.3826  0.4555
11606TIP3    H256234   4.747   5.797  15.868 -1.2589 -0.4568  0.1467
11607TIP3   OH256235   0.153   4.296   1.052 -0.3203  0.0785  0.0543
11607TIP3    H156236   0.181   4.210   1.082  1.4304  0.4390 -0.4650
11607TIP3    H256237   0.096   4.328   1.122 -2.1793 -2.0347 -0.3680
11608TIP3   OH256238   1.438   4.617  12.561  0.1864  0.0429  0.6109
11608TIP3    H156239   1.414   4.640  12.651  1.4471  1.3933  0.6345
11608TIP3    H256240   1.500   4.544  12.571  0.6930  0.4986  0.8883
11609TIP3   OH256241   4.882   6.777  15.221 -0.3500 -0.3154 -0.2806
11609TIP3    H156242   4.900   6.702  15.165  1.2468 -0.3990  0.2903
11609TIP3    H256243   4.890   6.853  15.163 -2.1618 -0.5515 -0.9008
11610TIP3   OH256244   2.025   1.022   0.483  0.1451 -0.1137 -0.5293
11610TIP3    H156245   2.012   1.097   0.426 -2.0928  0.4445  0.5637
11610TIP3    H256246   1.937   1.002   0.516  0.9627 -2.0106  0.6979
11611TIP3   OH256247   2.538   1.042   1.049  0.5833  0.1200  0.2476
11611TIP3    H156248   2.590   1.120   1.067  1.1171 -0.4773  1.3427
11611TIP3    H256249   2.451   1.062   1.084  0.8805  0.0029  1.0593
11612TIP3   OH256250   2.642   1.746   1.643  0.2453  0.0214  0.1408
11612TIP3    H156251   2.632   1.652   1.660 -0.4288  0.2964  1.3207
11612TIP3    H256252   2.732   1.765   1.671 -0.4686  0.2319  2.4164
11613TIP3   OH256253   5.184   1.569  12.799 -0.0331 -0.3205  0.1812
11613TIP3    H156254   5.229   1.627  12.861 -1.8828  0.7748  0.5629
11613TIP3    H256255   5.111   1.532  12.848 -1.3092  0.2647 -1.1945
11614TIP3   OH256256   4.936   3.312   0.780 -0.0524 -0.2027 -0.5092
11614TIP3    H156257   4.955   3.406   0.779  1.5669 -0.4529  1.2373
11614TIP3    H256258   4.843   3.307   0.797  0.2221  1.1207  1.7281
11615TIP3   OH256259   6.151   1.533   3.374 -0.5589  0.2124  0.0930
11615TIP3    H156260   6.152   1.513   3.281  1.6057  1.2943 -0.1782
11615TIP3    H256261   6.101   1.614   3.381 -0.0142  0.5728 -0.2274
11616TIP3   OH256262   3.852   3.941  15.698  0.4241  0.9894  0.3643
11616TIP3    H156263   3.795   4.018  15.691 -2.1769 -0.8374 -0.1126
11616TIP3    H256264   3.807   3.885  15.761  0.9815 -1.1242 -1.0302
11617TIP3   OH256265   1.204   6.150   2.641  0.3815  0.2302  0.7656
11617TIP3    H156266   1.171   6.076   2.590 -2.2947  0.6394  1.7564
11617TIP3    H256267   1.291   6.168   2.603  0.0626 -1.7792 -1.1529
11618TIP3   OH256268   0.711   2.987  10.729  0.7682  0.5368  0.0745
11618TIP3    H156269   0.751   2.907  10.697 -0.5364 -0.2152  0.2556
11618TIP3    H256270   0.740   3.055  10.668  2.5174  0.1003  0.3688
11619TIP3   OH256271   4.032   3.868   0.895  0.5848  0.0466  0.3136
11619TIP3    H156272   4.127   3.855   0.888  0.3504 -1.9636  0.4598
11619TIP3    H256273   4.023   3.944   0.953  2.0990 -0.6508  1.5365
11620TIP3   OH256274   4.982   1.286  13.086  0.5763 -0.0076  0.0555
11620TIP3    H156275   5.055   1.292  13.148 -0.9735 -0.5136  2.0452
11620TIP3    H256276   4.987   1.197  13.051  0.8818 -0.0627  0.2403
11621TIP3   OH256277   5.066   0.650  14.391  0.0354  0.3824  0.7139
11621TIP3    H156278   5.157   0.624  14.379 -0.5821 -3.3805  2.6152
11621TIP3    H256279   5.022   0.624  14.310  0.6763  3.0910 -0.6070
11622TIP3   OH256280   1.640   5.926  14.069 -0.0061  0.0085 -0.0025
11622TIP3    H156281   1.678   5.977  13.997 -0.4229  0.7004  0.2584
11622TIP3    H256282   1.648   5.835  14.040  1.7894  0.1241  0.0124
11623TIP3   OH256283   2.585   0.996  14.436 -0.1032 -0.1429  0.4363
11623TIP3    H156284   2.614   1.048  14.361  0.9265 -0.0297  0.8946
11623TIP3    H256285   2.615   1.046  14.512 -1.7282  0.0930  0.9656
11624TIP3   OH256286   1.066   5.821  14.181 -0.0808  0.3257 -0.1872
11624TIP3    H156287   1.034   5.858  14.098 -0.4179 -1.6551 -0.9891
11624TIP3    H256288   1.155   5.857  14.190 -0.8753  2.4140 -0.1756
11625TIP3   OH256289   3.651   3.926   5.641  0.2396 -0.0255 -0.4340
11625TIP3    H156290   3.600   3.846   5.628  1.7769 -1.4745  1.7310
11625TIP3    H256291   3.677   3.953   5.553 -0.3474 -1.8830 -1.2152
11626TIP3   OH256292   2.023   0.969   4.051  0.0598 -0.3191  0.0554
11626TIP3    H156293   1.973   0.906   3.999 -1.0571 -0.5721  1.3735
11626TIP3    H256294   1.974   1.050   4.044  2.0031  0.7689 -2.4222
11627TIP3   OH256295   6.453   1.899   1.318 -0.0216  0.2134  0.2206
11627TIP3    H156296   6.531   1.946   1.349 -1.0227  3.1388 -1.3379
11627TIP3    H256297   6.437   1.833   1.385  3.2547  0.0685  1.0395
11628TIP3   OH256298   2.328   3.056   2.750  0.2744  0.2000 -0.1287
11628TIP3    H156299   2.258   3.078   2.689  1.2875 -1.7976 -2.1505
11628TIP3    H256300   2.402   3.109   2.722  0.6220 -0.4060 -0.3744
11629TIP3   OH256301   3.910   6.335  13.587  0.2767 -0.0688  0.0715
11629TIP3    H156302   4.001   6.322  13.614  0.1966 -1.3528 -0.2195
11629TIP3    H256303   3.864   6.257  13.618 -0.7369  0.5555  0.2084
11630TIP3   OH256304   0.781   1.402   1.121  0.0559 -0.2071 -0.3080
11630TIP3    H156305   0.871   1.371   1.125  0.2917  0.2194 -1.6365
11630TIP3    H256306   0.783   1.487   1.166 -0.2537 -1.3241  1.9084
11631TIP3   OH256307   0.822   2.769   5.145  0.2021 -0.3621 -0.0125
11631TIP3    H156308   0.766   2.798   5.073 -0.1428 -0.2439  0.3025
11631TIP3    H256309   0.794   2.679   5.163  0.2459 -0.3707  0.0122
11632TIP3   OH256310   1.598   5.830  12.458  0.1588 -0.0418 -0.7692
11632TIP3    H156311   1.612   5.741  12.427  1.0804  0.6276 -2.4274
11632TIP3    H256312   1.680   5.855  12.500 -0.9796 -0.8276  2.1129
11633TIP3   OH256313   2.714   6.339  11.639  0.5318 -0.0675 -0.0208
11633TIP3    H156314   2.627   6.373  11.617 -0.4738 -1.9793  0.7651
11633TIP3    H256315   2.729   6.269  11.575  1.2623 -0.0897  0.1728
11634TIP3   OH256316   5.621   4.458   3.941 -0.3070  0.7034  0.1822
11634TIP3    H156317   5.677   4.528   3.907  0.4273  0.1672  0.2512
11634TIP3    H256318   5.570   4.429   3.866  0.1510  0.6007 -0.0892
11635TIP3   OH256319   0.442   1.897  11.236  0.1323  0.8149  0.0800
11635TIP3    H156320   0.499   1.963  11.275  1.6431 -0.1553 -0.4101
11635TIP3    H256321   0.475   1.885  11.147 -0.1786 -0.5081  0.1154
11636TIP3   OH256322   5.434   0.654  13.854  0.2218  0.5293 -0.1810
11636TIP3    H156323   5.383   0.728  13.887 -0.5535 -0.4935  0.9645
11636TIP3    H256324   5.454   0.679  13.763 -2.8245  0.7414 -0.9121
11637TIP3   OH256325   1.605   4.462  14.410  0.0329  0.4592  0.3264
11637TIP3    H156326   1.676   4.477  14.472  1.0921 -0.2383 -0.6815
11637TIP3    H256327   1.634   4.504  14.329 -0.0472 -1.0508 -0.5121
11638TIP3   OH256328   5.203   2.121  12.661  0.3740  0.1700  0.2705
11638TIP3    H156329   5.138   2.188  12.640  0.7716  0.4646 -0.0417
11638TIP3    H256330   5.275   2.170  12.701  0.8564 -0.0068 -0.3708
11639TIP3   OH256331   2.134   6.725   6.294  0.2483  0.9215  0.5421
11639TIP3    H156332   2.172   6.797   6.343  0.9440  0.3590  0.8559
11639TIP3    H256333   2.189   6.717   6.215  0.0990  0.8239  0.4470
11640TIP3   OH256334   5.261   3.008   0.590 -0.7777 -0.1831 -0.7339
11640TIP3    H156335   5.271   3.103   0.580 -0.6468 -0.2859 -1.6223
11640TIP3    H256336   5.180   2.988   0.543 -1.2064 -0.4154  0.0829
11641TIP3   OH256337   5.041   4.972   4.684 -0.2000 -0.1562  0.2853
11641TIP3    H156338   5.128   4.994   4.719  0.5567 -0.2786 -1.4002
11641TIP3    H256339   5.017   4.891   4.729  0.0524  0.4524  1.5679
11642TIP3   OH256340   2.466   4.445  16.885  0.1229  0.1084 -0.2666
11642TIP3    H156341   2.560   4.452  16.901 -0.0286  1.4362  0.1830
11642TIP3    H256342   2.442   4.357  16.914  1.0398  0.1448  0.6305
11643TIP3   OH256343   5.703   1.245   2.300 -0.0979  0.0741  0.0151
11643TIP3    H156344   5.683   1.197   2.220  0.3235  0.5405 -0.3817
11643TIP3    H256345   5.622   1.242   2.351  0.2734 -2.0710  0.5579
11644TIP3   OH256346   6.129   0.783  15.462  0.0027  0.2001  0.0129
11644TIP3    H156347   6.180   0.717  15.415 -0.4114  0.1348 -0.3484
11644TIP3    H256348   6.191   0.820  15.525  0.6466  0.4562 -0.7440
11645TIP3   OH256349   5.546   0.783  16.716 -0.3867  0.5639 -0.0373
11645TIP3    H156350   5.477   0.800  16.651 -1.7626 -0.9022  0.9386
11645TIP3    H256351   5.527   0.842  16.788  0.0055  0.8772 -0.1886
11646TIP3   OH256352   2.686   5.850   3.302  0.0276 -0.2343 -0.4344
11646TIP3    H156353   2.712   5.842   3.393  2.1262 -3.9018 -1.1577
11646TIP3    H256354   2.590   5.858   3.305 -0.1171 -1.9410  2.0395
11647TIP3   OH256355   6.680   6.237  16.402  0.4338  0.5722 -0.3207
11647TIP3    H156356   6.630   6.319  16.402  1.7053  1.4518  2.3338
11647TIP3    H256357   6.620   6.173  16.440 -1.0764 -0.2441 -3.6693
11648TIP3   OH256358   5.920   3.624   6.378 -0.7894 -0.4851 -0.3195
11648TIP3    H156359   5.990   3.563   6.401 -0.3267  0.2036  0.1208
11648TIP3    H256360   5.859   3.619   6.452  0.4205  1.3107  0.8903
11649TIP3   OH256361   6.175   3.570  14.205  0.5411 -0.0748  0.3372
11649TIP3    H156362   6.171   3.572  14.301 -0.2123  0.1710  0.3065
11649TIP3    H256363   6.101   3.515  14.179  0.4566  0.2505 -0.1154
11650TIP3   OH256364   4.602   4.818  11.176  0.1183 -0.3375 -0.3229
11650TIP3    H156365   4.583   4.882  11.108 -0.2860 -1.3426 -1.1823
11650TIP3    H256366   4.671   4.763  11.139  0.0201 -0.7923  0.1517
11651TIP3   OH256367   0.287   4.144  16.785  0.1534  0.4545 -0.0135
11651TIP3    H156368   0.329   4.067  16.824  0.5375  0.6971  0.0577
11651TIP3    H256369   0.357   4.190  16.740 -0.4815 -0.4071 -1.9946
11652TIP3   OH256370   2.384   1.028  11.773  0.3859 -0.3744 -0.4357
11652TIP3    H156371   2.350   1.082  11.702 -0.8408 -0.3448  0.1507
11652TIP3    H256372   2.438   1.088  11.825 -0.4530  0.1447 -0.1458
11653TIP3   OH256373   5.505   3.857  10.622 -0.2602  0.1892  0.2725
11653TIP3    H156374   5.413   3.873  10.600 -0.0596  0.4240 -0.4223
11653TIP3    H256375   5.502   3.787  10.687 -1.0008  1.0962  1.2597
11654TIP3   OH256376   4.797   2.338   2.990 -0.0185  0.0608 -0.3980
11654TIP3    H156377   4.752   2.421   3.005  1.2029  0.5612  0.7337
11654TIP3    H256378   4.786   2.321   2.896 -0.9815  1.0759 -0.4878
11655TIP3   OH256379   4.935   1.058   0.427  0.0098 -0.0035  0.4074
11655TIP3    H156380   4.871   1.069   0.357  0.4692  0.3475  0.0350
11655TIP3    H256381   5.018   1.084   0.387  0.3814 -0.4617  0.8843
11656TIP3   OH256382   2.915   1.688   4.944  0.3240  0.1311  0.3237
11656TIP3    H156383   2.905   1.714   5.036 -0.5954  0.3749  0.1591
11656TIP3    H256384   2.882   1.598   4.941 -0.1821  0.3186  0.1285
11657TIP3   OH256385   0.178   3.061   5.354 -0.7678  0.1104 -0.1737
11657TIP3    H156386   0.256   3.082   5.302 -1.2325 -0.5635 -1.1587
11657TIP3    H256387   0.129   3.143   5.358 -0.8151  0.1250 -0.9561
11658TIP3   OH256388   5.634   3.355  16.833  0.5779  0.0503  0.6119
11658TIP3    H156389   5.668   3.273  16.871  1.0174 -0.2935 -0.4705
11658TIP3    H256390   5.675   3.359  16.747 -0.7717  0.5525 -0.0309
11659TIP3   OH256391   2.364   3.844   5.976 -0.4358  0.0871  0.6560
11659TIP3    H156392   2.268   3.851   5.980 -0.4590  0.2497 -0.0300
11659TIP3    H256393   2.381   3.750   5.967 -0.5795  0.1159 -0.0481
11660TIP3   OH256394   5.113   1.678   0.782 -0.0094  0.4784  0.6682
11660TIP3    H156395   5.083   1.758   0.825 -0.1645 -0.5432  2.5665
11660TIP3    H256396   5.202   1.664   0.817 -0.3839 -0.7156  1.1954
11661TIP3   OH256397   4.319   5.833   4.019 -0.2532 -0.0782 -0.4967
11661TIP3    H156398   4.376   5.757   4.030  0.6221  0.4559 -1.2237
11661TIP3    H256399   4.308   5.867   4.108 -1.0197 -1.3002 -0.1081
11662TIP3   OH256400   1.326   2.409  14.094 -0.0470 -0.1195  0.2358
11662TIP3    H156401   1.392   2.477  14.080 -0.9749  0.4136 -2.1494
11662TIP3    H256402   1.290   2.428  14.180 -0.7348  2.9273 -0.5989
11663TIP3   OH256403   6.072   3.134  14.770 -0.0527  0.3978 -0.3260
11663TIP3    H156404   5.990   3.170  14.803 -0.8165  1.7147 -3.2934
11663TIP3    H256405   6.058   3.039  14.766 -0.4790  0.3617  1.4588
11664TIP3   OH256406   5.088   4.610   1.184 -0.1501 -0.5360 -0.1452
11664TIP3    H156407   4.994   4.617   1.173 -0.0116 -0.1724 -1.1801
11664TIP3    H256408   5.111   4.679   1.246 -0.5059 -0.3039 -0.2716
11665TIP3   OH256409   2.835   1.736   2.885  0.3115  0.0543 -0.4847
11665TIP3    H156410   2.792   1.819   2.907  1.4254  0.2574  1.0246
11665TIP3    H256411   2.865   1.748   2.795  1.2259  1.6355  0.0054
11666TIP3   OH256412   4.871   2.443  16.892  0.2452 -0.2547 -0.0644
11666TIP3    H156413   4.942   2.381  16.905  0.5777  0.3930  1.2721
11666TIP3    H256414   4.815   2.401  16.825  1.3549 -1.1882 -0.4360
11667TIP3   OH256415   5.146   5.807   0.323  0.5808 -0.4336 -0.4613
11667TIP3    H156416   5.196   5.727   0.307  0.8860 -0.5932  1.1338
11667TIP3    H256417   5.212   5.876   0.329  0.2004  0.7584 -5.4276
11668TIP3   OH256418   6.164   2.993  11.179  0.1452 -0.1061 -0.3132
11668TIP3    H156419   6.218   2.914  11.174  1.2425  0.3849  2.1621
11668TIP3    H256420   6.224   3.064  11.156 -0.0750  0.2331  0.1514
11669TIP3   OH256421   3.727   2.432   1.762  0.4755  0.2203  0.0055
11669TIP3    H156422   3.655   2.424   1.824  0.8792 -2.2860  0.2301
11669TIP3    H256423   3.798   2.473   1.812 -0.3995  1.7402  0.0649
11670TIP3   OH256424   4.607   5.749  11.066 -0.4037  0.4458 -0.4877
11670TIP3    H156425   4.697   5.779  11.049  0.0691 -0.6749 -0.0166
11670TIP3    H256426   4.554   5.795  11.001  0.6961  0.0728 -1.6869
11671TIP3   OH256427   4.254   6.092   0.394 -0.2287 -0.1189  0.0529
11671TIP3    H156428   4.261   6.019   0.456  0.3674  0.2066  0.3762
11671TIP3    H256429   4.333   6.086   0.341 -0.9598 -0.6803 -1.0118
11672TIP3   OH256430   0.281   2.790  10.484  0.4671  0.0390  0.2288
11672TIP3    H156431   0.300   2.879  10.513  0.8682 -0.3586  1.2161
11672TIP3    H256432   0.268   2.798  10.389  2.2175  0.8967  0.0167
11673TIP3   OH256433   2.525   5.872   0.379 -0.5578  0.3773 -0.4053
11673TIP3    H156434   2.510   5.924   0.458 -3.1138 -1.4971  0.4965
11673TIP3    H256435   2.551   5.786   0.411  1.4301  0.4183 -1.7735
11674TIP3   OH256436   2.651   2.323   0.823 -0.0211  0.0319  0.0319
11674TIP3    H156437   2.727   2.381   0.827  0.1589 -0.2315  0.6429
11674TIP3    H256438   2.684   2.244   0.780  0.1590 -0.2332  0.6480
11675TIP3   OH256439   0.363   2.151  11.906  0.1890  0.7398  0.3119
11675TIP3    H156440   0.385   2.127  11.996 -0.1320 -1.7671 -0.2056
11675TIP3    H256441   0.270   2.132  11.898 -0.3427  3.1160  0.0404
11676TIP3   OH256442   6.612   0.486  11.310 -0.0607  0.2890  0.0291
11676TIP3    H156443   6.707   0.481  11.315  0.0657 -0.5415 -2.0826
11676TIP3    H256444   6.582   0.397  11.327 -0.5729  0.7663  1.8067
11677TIP3   OH256445   2.052   3.120  12.392  0.6606 -0.4175 -0.2300
11677TIP3    H156446   2.127   3.109  12.450  0.1890  2.2983  1.0803
11677TIP3    H256447   1.976   3.127  12.450  0.2095  2.7350 -0.9711
11678TIP3   OH256448   1.716   4.864  14.559  0.3601  0.1751 -0.4290
11678TIP3    H156449   1.787   4.807  14.530  0.0934  0.7196 -2.3028
11678TIP3    H256450   1.640   4.806  14.565  0.2170  0.1739 -1.7850
11679TIP3   OH256451   3.660   2.040   2.288  0.1589  0.4152 -0.2654
11679TIP3    H156452   3.626   2.036   2.378 -0.4721 -0.2465 -0.5211
11679TIP3    H256453   3.586   2.013   2.234  1.2532 -1.7345 -0.8034
11680TIP3   OH256454   5.134   3.235  16.534 -0.3088 -0.3757 -0.1388
11680TIP3    H156455   5.210   3.235  16.593 -2.7567  3.0686  3.5582
11680TIP3    H256456   5.067   3.186  16.582 -0.9425 -2.1477 -2.6831
11681TIP3   OH256457   3.837   5.818  14.163  0.4895 -0.1772 -0.0047
11681TIP3    H156458   3.886   5.740  14.187  2.4474  1.0751  0.2497
11681TIP3    H256459   3.898   5.869  14.109 -1.2810  0.4667 -1.5155
11682TIP3   OH256460   6.397   4.912  15.778  0.3320 -0.0192 -0.0811
11682TIP3    H156461   6.458   4.937  15.847  2.5227 -1.7444 -1.2761
11682TIP3    H256462   6.373   4.822  15.798  0.2117 -0.2072 -1.0017
11683TIP3   OH256463   1.881   3.478   1.560  0.2353 -0.1319  0.1648
11683TIP3    H156464   1.921   3.550   1.609  1.9002 -0.4135 -0.6899
11683TIP3    H256465   1.867   3.410   1.626  0.2101  0.3559  0.6760
11684TIP3   OH256466   3.624   0.682   2.950  0.6061 -0.4640 -0.1878
11684TIP3    H156467   3.663   0.647   2.869  0.2468  1.6174 -1.3346
11684TIP3    H256468   3.687   0.747   2.981  0.3252 -0.6232  0.7431
11685TIP3   OH256469   0.211   0.281   2.784  0.6158 -0.0053  0.2358
11685TIP3    H156470   0.195   0.332   2.704  0.1373  0.6174  0.7215
11685TIP3    H256471   0.240   0.346   2.848  2.3075 -0.6726  0.2181
11686TIP3   OH256472   3.934   1.001   3.848 -0.1683  0.3404 -0.2190
11686TIP3    H156473   3.985   1.082   3.841 -0.1438  0.3491  0.0514
11686TIP3    H256474   3.991   0.941   3.896 -0.3172  0.2720 -0.1254
11687TIP3   OH256475   0.844   5.750  15.173 -0.2007 -0.3515 -0.3028
11687TIP3    H156476   0.889   5.784  15.251  0.4493  2.1334 -1.6410
11687TIP3    H256477   0.863   5.815  15.105 -1.6917 -1.8453 -2.2500
11688TIP3   OH256478   0.848   3.834   1.378  0.0466  0.2703 -0.1940
11688TIP3    H156479   0.763   3.877   1.388  0.4535  1.0129  0.2152
11688TIP3    H256480   0.831   3.742   1.395 -0.8181  0.2959 -0.9037
11689TIP3   OH256481   5.257   5.830  13.207 -0.1301  0.2511  0.0702
11689TIP3    H156482   5.305   5.759  13.165 -0.7597  0.3728 -0.8836
11689TIP3    H256483   5.241   5.893  13.137  0.7210  1.5104  0.9631
11690TIP3   OH256484   2.610   6.513  14.127 -0.2690  0.0911  0.8405
11690TIP3    H156485   2.646   6.582  14.183  1.1081 -0.4503  0.6755
11690TIP3    H256486   2.677   6.444  14.129 -1.7779 -1.4244  1.3343
11691TIP3   OH256487   0.054   1.149   4.452  0.6513 -0.2315  0.5499
11691TIP3    H156488  -0.008   1.105   4.509  0.7298 -0.4981  0.4293
11691TIP3    H256489   0.074   1.232   4.497  0.9683 -0.5865  1.0711
11692TIP3   OH256490   6.743   2.096   5.125  0.2451 -0.1112 -0.2160
11692TIP3    H156491   6.716   2.133   5.209 -0.9563 -0.1491 -0.5675
11692TIP3    H256492   6.672   2.120   5.065  1.5186  0.7134 -1.4329
11693TIP3   OH256493   3.770   2.936   6.394 -0.1991 -0.2149  0.1414
11693TIP3    H156494   3.801   2.881   6.465 -0.4362 -1.9403 -1.0334
11693TIP3    H256495   3.840   3.000   6.380 -0.2326  0.2854  2.0089
11694TIP3   OH256496   2.647   1.015   5.767  0.1283 -0.1411  0.8119
11694TIP3    H156497   2.682   1.023   5.856  1.3395  0.2947  0.3104
11694TIP3    H256498   2.698   0.944   5.727  1.1981  1.1842 -0.2577
11695TIP3   OH256499   1.976   4.184  12.383 -0.0697  0.5885 -0.5556
11695TIP3    H156500   1.943   4.267  12.417  0.9923  1.3321 -1.2859
11695TIP3    H256501   2.064   4.176  12.421  0.0722  0.1037 -0.9723
11696TIP3   OH256502   5.468   0.270  15.757  0.1528 -0.1569 -0.3589
11696TIP3    H156503   5.391   0.262  15.701 -0.0884 -0.0681 -0.0398
11696TIP3    H256504   5.536   0.305  15.699  0.0966 -0.7049 -0.7669
11697TIP3   OH256505   4.345   4.627  16.641  0.1325 -0.2986  0.6377
11697TIP3    H156506   4.372   4.676  16.564 -0.1802 -1.4613 -0.2422
11697TIP3    H256507   4.294   4.690  16.693  0.6033  0.5849  0.0566
11698TIP3   OH256508   2.412   3.592   1.069  0.0465 -0.5509 -0.0635
11698TIP3    H156509   2.431   3.654   1.140 -2.1733 -0.0994  0.2214
11698TIP3    H256510   2.497   3.575   1.029  1.4878 -1.1347  2.9174
11699TIP3   OH256511   5.418   1.401  11.422 -0.6955  0.5407  0.3303
11699TIP3    H156512   5.512   1.411  11.409 -0.8570  0.0903 -1.3900
11699TIP3    H256513   5.380   1.483  11.392 -0.9194  0.3051 -0.0508
11700TIP3   OH256514   4.595   3.066   1.287 -0.1506  0.2975  0.3311
11700TIP3    H156515   4.558   3.151   1.312 -0.9688 -0.4555  1.7972
11700TIP3    H256516   4.687   3.085   1.268  0.6576  1.0015  4.1127
11701TIP3   OH256517   4.635   1.011  13.131  0.1272 -0.0173  0.9841
11701TIP3    H156518   4.705   1.075  13.148  0.0825 -0.3274  2.4222
11701TIP3    H256519   4.654   0.979  13.043  0.3781  1.6699  0.3779
11702TIP3   OH256520   4.117   0.438   5.214 -0.0613 -0.3783  0.5549
11702TIP3    H156521   4.070   0.388   5.281 -1.7628  0.1724 -0.1587
11702TIP3    H256522   4.187   0.380   5.185  0.5886 -0.7246  2.6150
11703TIP3   OH256523   0.560   3.161   2.180  0.2441  0.1596  0.1138
11703TIP3    H156524   0.499   3.126   2.244 -1.1405  1.1814 -0.5901
11703TIP3    H256525   0.569   3.092   2.114  0.1140 -0.1198  0.3904
11704TIP3   OH256526   1.605   0.724   0.990  0.2762 -0.1872 -0.3368
11704TIP3    H156527   1.530   0.716   0.931  0.0029 -0.1022 -0.0061
11704TIP3    H256528   1.566   0.744   1.075  0.6117 -1.0980  0.0482
11705TIP3   OH256529   3.668   6.141  12.959 -0.4508 -0.5665  0.3764
11705TIP3    H156530   3.666   6.053  12.922 -0.8199 -0.5552  0.3732
11705TIP3    H256531   3.746   6.181  12.919  0.1322 -1.1242  0.9274
11706TIP3   OH256532   5.565   1.871  16.035  0.0789 -0.2047  0.0268
11706TIP3    H156533   5.646   1.839  15.996  0.5632  1.8394 -0.7500
11706TIP3    H256534   5.589   1.896  16.124  0.1408 -0.2237  0.0147
11707TIP3   OH256535   1.488   3.037   6.276 -0.1441  0.1602  0.5533
11707TIP3    H156536   1.402   3.062   6.243  0.7029  0.8118 -1.2912
11707TIP3    H256537   1.501   3.092   6.354 -0.1657  2.3216 -0.8883
11708TIP3   OH256538   3.876   5.831  10.871  0.0177  0.2254  0.4703
11708TIP3    H156539   3.920   5.747  10.885 -0.0281  0.1258  0.0282
11708TIP3    H256540   3.938   5.884  10.822 -0.4572 -0.0208 -0.4174
11709TIP3   OH256541   3.991   2.044  16.148  0.2758 -0.6825  0.3443
11709TIP3    H156542   3.932   2.030  16.074 -0.8609 -0.8439  1.2563
11709TIP3    H256543   4.045   1.965  16.151  1.4705  0.0124 -1.2836
11710TIP3   OH256544   3.139   3.504   3.667 -0.2201 -0.1893 -0.2085
11710TIP3    H156545   3.175   3.422   3.633 -2.4645 -1.1231 -0.4825
11710TIP3    H256546   3.118   3.555   3.589  0.7545  0.5106 -0.0412
11711TIP3   OH256547   2.957   3.862  15.393 -0.6634 -0.1825 -0.0527
11711TIP3    H156548   3.017   3.859  15.467 -1.6412 -0.5347  0.7418
11711TIP3    H256549   2.987   3.937  15.340  1.3897 -1.2574 -0.4931
11712TIP3   OH256550   5.703   2.266  15.398 -0.5650  0.3228 -0.0231
11712TIP3    H156551   5.788   2.222  15.398 -0.8811 -0.3487 -1.4181
11712TIP3    H256552   5.657   2.230  15.473  0.1986  0.3207  0.4495
11713TIP3   OH256553   1.488   1.778  16.582 -0.5109 -0.2844  0.0131
11713TIP3    H156554   1.521   1.862  16.551 -0.5666  0.1380  1.0514
11713TIP3    H256555   1.474   1.791  16.676 -0.4398 -1.4784  0.2038
11714TIP3   OH256556   5.748   5.930  13.128  0.3140 -0.2427 -0.1492
11714TIP3    H156557   5.819   5.982  13.166  0.1767  1.0046 -1.5023
11714TIP3    H256558   5.786   5.893  13.048 -0.5610  0.5963 -0.9932
11715TIP3   OH256559   5.886   6.637  11.750 -0.0206  0.4050  0.0636
11715TIP3    H156560   5.978   6.625  11.773 -0.4442  0.6808  2.0793
11715TIP3    H256561   5.853   6.548  11.738  0.6660  0.3269 -1.5286
11716TIP3   OH256562   2.734   1.875  16.191  0.4318  0.6957  0.2180
11716TIP3    H156563   2.757   1.851  16.281  2.7523 -0.8043 -0.6462
11716TIP3    H256564   2.809   1.925  16.160  0.2523  0.1240 -1.2311
11717TIP3   OH256565   4.316   4.187   6.194 -0.5943 -0.0412  0.0442
11717TIP3    H156566   4.376   4.114   6.183  1.5953  1.1543  2.8798
11717TIP3    H256567   4.242   4.151   6.243 -0.4843 -0.7469 -0.3050
11718TIP3   OH256568   6.107   0.743   0.960  0.0677 -0.0221 -0.1570
11718TIP3    H156569   6.141   0.657   0.982 -1.1887 -0.1434  1.5175
11718TIP3    H256570   6.086   0.738   0.867 -0.6816 -1.7749  0.0734
11719TIP3   OH256571   2.832   6.623   1.204  0.1685  0.1867  0.9112
11719TIP3    H156572   2.811   6.714   1.222  1.3628  0.3170  1.8123
11719TIP3    H256573   2.872   6.623   1.117 -0.5054  0.3995  0.5958
11720TIP3   OH256574   6.255   0.036   3.905  0.3531 -0.0984 -0.1606
11720TIP3    H156575   6.174  -0.010   3.927 -0.3067 -0.5905 -3.2286
11720TIP3    H256576   6.311  -0.031   3.866  1.2941  0.7333 -0.2760
11721TIP3   OH256577   0.524   0.709  14.987 -1.0522  0.4828  0.5818
11721TIP3    H156578   0.497   0.778  14.926  1.2270  0.5168 -0.4646
11721TIP3    H256579   0.546   0.634  14.932  0.7178  0.3977  1.3377
11722TIP3   OH256580   6.358   1.499  16.406 -0.3397  0.0049 -0.2609
11722TIP3    H156581   6.279   1.446  16.395  0.5935 -1.4260 -0.3788
11722TIP3    H256582   6.429   1.435  16.416  0.7725  1.2430  0.1327
11723TIP3   OH256583   1.797   1.533  13.148  0.0658 -0.2021  0.3131
11723TIP3    H156584   1.714   1.494  13.120 -0.0982  0.3712 -0.0137
11723TIP3    H256585   1.780   1.561  13.238  0.0577 -0.5110  0.4101
11724TIP3   OH256586   3.706   1.237   4.400  1.1011  0.2571 -0.2592
11724TIP3    H156587   3.629   1.291   4.412  0.5820 -0.0119 -2.1069
11724TIP3    H256588   3.689   1.159   4.453  0.1893  0.2937 -0.4847
11725TIP3   OH256589   2.412   6.680  16.415 -0.9229 -0.1031 -0.5702
11725TIP3    H156590   2.398   6.593  16.450 -0.0451 -0.3564 -0.8246
11725TIP3    H256591   2.391   6.739  16.487  1.5067 -0.6169  0.6739
11726TIP3   OH256592   0.407   4.230  13.994 -0.4586 -0.5168 -0.0243
11726TIP3    H156593   0.479   4.195  13.943 -0.5494 -0.0587 -0.4697
11726TIP3    H256594   0.449   4.277  14.066 -0.3335 -2.4895  1.2626
11727TIP3   OH256595   0.189   2.098  15.139 -0.4560  0.5192 -0.1449
11727TIP3    H156596   0.160   2.016  15.179  0.3055  0.6505  0.7375
11727TIP3    H256597   0.248   2.136  15.205  0.1478  1.1822 -1.0493
11728TIP3   OH256598   4.965   1.436   4.460 -0.0515 -0.0824 -0.2124
11728TIP3    H156599   4.914   1.369   4.505  1.5868 -1.9442 -0.9812
11728TIP3    H256600   5.015   1.479   4.530  0.0690 -0.7425  0.1093
11729TIP3   OH256601   2.084   3.281   5.509 -0.4179 -0.0455 -0.4586
11729TIP3    H156602   2.109   3.214   5.572  1.0696 -0.1160 -1.0866
11729TIP3    H256603   1.996   3.307   5.536  0.1752 -0.0340  1.6437
11730TIP3   OH256604   1.271   3.932   2.656 -0.0628  0.0295 -0.0947
11730TIP3    H156605   1.245   3.930   2.748 -0.2819  2.0965 -0.0627
11730TIP3    H256606   1.189   3.948   2.608 -0.0365 -1.5141 -0.7414
11731TIP3   OH256607   3.531   2.773  14.417  0.4742 -0.2669  0.2870
11731TIP3    H156608   3.579   2.778  14.500  0.2313 -1.7099  0.5418
11731TIP3    H256609   3.568   2.696  14.374  1.0801  0.8466 -1.2802
11732TIP3   OH256610   1.522   2.894  14.139 -0.1598 -0.0012  0.2889
11732TIP3    H156611   1.472   2.974  14.126 -0.5405  0.0943  2.0551
11732TIP3    H256612   1.481   2.830  14.082 -0.2092  0.9071 -0.7235
11733TIP3   OH256613   4.075   5.559  14.153  0.0450 -1.0688  0.1766
11733TIP3    H156614   4.124   5.621  14.101 -0.9323 -1.5309 -1.3599
11733TIP3    H256615   4.133   5.484  14.163  0.5381 -0.6530  0.4608
11734TIP3   OH256616   1.867   4.294  11.833 -0.2667  0.5198 -0.2225
11734TIP3    H156617   1.916   4.224  11.876  0.9393  1.7621  0.5173
11734TIP3    H256618   1.931   4.335  11.775 -1.5586 -0.3684 -2.3758
11735TIP3   OH256619   2.818   3.100  14.372 -0.2780 -0.5202 -0.2253
11735TIP3    H156620   2.748   3.036  14.361  0.9040 -1.9470  0.1976
11735TIP3    H256621   2.898   3.047  14.372  0.7464  0.9910 -0.0231
11736TIP3   OH256622   3.715   2.908   2.439 -0.6971 -0.5074 -0.0514
11736TIP3    H156623   3.807   2.930   2.455 -0.6972 -0.5814  0.0479
11736TIP3    H256624   3.677   2.990   2.409 -0.0832 -0.9894 -2.3275
11737TIP3   OH256625   1.814   6.283  11.466  0.1820 -0.0876  0.2951
11737TIP3    H156626   1.805   6.354  11.529 -1.5181  1.7740 -1.8581
11737TIP3    H256627   1.741   6.295  11.405  1.2980 -2.1801 -1.6361
11738TIP3   OH256628   2.422   0.015   3.537  0.4325 -0.2708 -0.0127
11738TIP3    H156629   2.483  -0.021   3.472  1.1767 -1.5540  1.3212
11738TIP3    H256630   2.359  -0.056   3.551  0.7930 -0.3620  1.2663
11739TIP3   OH256631   0.291   0.844  10.992  0.0516  0.1887  0.3257
11739TIP3    H156632   0.380   0.835  10.958 -0.2651  0.0877 -0.4984
11739TIP3    H256633   0.277   0.938  10.997 -1.2563  0.3495 -3.6012
11740TIP3   OH256634   3.931   4.061  12.420  0.0594 -0.2440  0.3828
11740TIP3    H156635   3.939   3.970  12.393  0.1293 -0.2103  0.2901
11740TIP3    H256636   3.993   4.069  12.493  0.0710 -0.2643  0.3751
11741TIP3   OH256637   5.651   2.488  13.634 -0.1985 -0.7013 -0.0279
11741TIP3    H156638   5.616   2.406  13.600 -1.6590 -1.2295  2.4715
11741TIP3    H256639   5.581   2.552  13.622  0.4180 -0.1251 -0.7129
11742TIP3   OH256640   0.883   2.208  15.093  0.3110 -0.2928 -0.0202
11742TIP3    H156641   0.824   2.283  15.091  0.5937 -0.0102  1.2940
11742TIP3    H256642   0.845   2.149  15.158  1.1836 -0.3308  0.4758
11743TIP3   OH256643   6.067   4.182  12.744 -0.2933  0.4127  0.1605
11743TIP3    H156644   6.154   4.142  12.748 -1.2427 -1.7423  0.7522
11743TIP3    H256645   6.022   4.136  12.673 -2.1791 -1.2688  2.3103
11744TIP3   OH256646   0.606   0.796   1.596  0.3630 -0.7004  0.0981
11744TIP3    H156647   0.641   0.734   1.532 -0.1515 -1.4873  0.5674
11744TIP3    H256648   0.591   0.744   1.674  1.3322  0.3199  1.0051
11745TIP3   OH256649   3.001   4.130   5.598 -0.3136  0.0020 -0.2586
11745TIP3    H156650   3.092   4.123   5.627 -0.7851  1.1718  1.7012
11745TIP3    H256651   2.977   4.041   5.574  2.0643  0.0309 -3.4022
11746TIP3   OH256652   5.763   1.131  16.109 -0.0888 -0.0457  0.6614
11746TIP3    H156653   5.819   1.115  16.184  0.8208 -1.3146 -0.2485
11746TIP3    H256654   5.769   1.225  16.094  1.4508 -0.0791  0.8770
11747TIP3   OH256655   4.096   1.922  13.582 -0.9858 -0.3206  0.1176
11747TIP3    H156656   4.181   1.877  13.585 -0.4528  0.6412 -0.0399
11747TIP3    H256657   4.032   1.854  13.603 -0.1619 -1.0284  0.4004
11748TIP3   OH256658   2.954   6.682  12.382 -0.1106  0.2844  0.3788
11748TIP3    H156659   2.906   6.690  12.300 -0.2197  3.2421  0.6046
11748TIP3    H256660   2.908   6.613  12.431 -0.5892 -0.8872 -1.6348
11749TIP3   OH256661   6.019   4.310  14.100 -0.0793 -0.3456  0.4447
11749TIP3    H156662   6.018   4.215  14.108 -1.3757 -0.4065 -0.2788
11749TIP3    H256663   5.971   4.342  14.176 -0.7972 -0.3369 -0.0067
11750TIP3   OH256664   0.956   2.786  14.551  0.4331  0.3089 -0.0979
11750TIP3    H156665   0.887   2.808  14.614  0.0803 -1.0114  0.0111
11750TIP3    H256666   1.025   2.747  14.604  0.7130  0.4294 -0.3703
11751TIP3   OH256667   2.707   5.380   2.851 -0.3323 -0.4229 -0.3577
11751TIP3    H156668   2.715   5.381   2.947  0.7888 -0.3406 -0.4360
11751TIP3    H256669   2.613   5.385   2.835 -0.5077  0.2495  0.7332
11752TIP3   OH256670   2.983   4.448   3.014  0.0472  0.1473 -0.1075
11752TIP3    H156671   2.952   4.466   3.103  0.6413 -2.3187  0.6694
11752TIP3    H256672   2.911   4.402   2.972 -0.7169  2.3633 -1.4040
11753TIP3   OH256673   4.508   0.570  14.397  0.3093  0.4684  0.2799
11753TIP3    H156674   4.588   0.542  14.443  1.1421  0.5094 -1.0883
11753TIP3    H256675   4.523   0.545  14.306 -0.7327  1.5816 -0.2205
11754TIP3   OH256676   2.448   3.932   0.734  0.3603 -0.2274  0.7676
11754TIP3    H156677   2.511   3.867   0.765  0.8357  0.1805  0.6724
11754TIP3    H256678   2.381   3.880   0.688  1.1990 -0.5806 -0.0783
11755TIP3   OH256679   0.859   1.666  14.167  0.1611  0.2476 -0.2049
11755TIP3    H156680   0.833   1.748  14.125 -0.9537  0.8685  1.6211
11755TIP3    H256681   0.953   1.676  14.181 -0.0301  1.3926  0.3595
11756TIP3   OH256682   3.424   3.455   2.876 -0.1671 -0.0369  0.0910
11756TIP3    H156683   3.471   3.412   2.947  0.8561  0.6126 -0.1760
11756TIP3    H256684   3.479   3.530   2.852 -1.5063  0.9419 -0.0147
11757TIP3   OH256685   0.843   6.528  14.224  0.7709  0.4235  0.0999
11757TIP3    H156686   0.850   6.623  14.221  1.1824  0.3835 -0.3220
11757TIP3    H256687   0.808   6.509  14.311 -0.0530  1.0016 -0.0943
11758TIP3   OH256688   6.222   4.533   5.080 -0.2544 -0.0902 -0.3064
11758TIP3    H156689   6.248   4.484   5.003 -1.1129  0.6346 -1.0868
11758TIP3    H256690   6.148   4.485   5.116  0.7330 -0.9528  0.6481
11759TIP3   OH256691   0.849   2.993  11.325  0.4939 -0.3900 -0.5150
11759TIP3    H156692   0.809   2.966  11.408  1.6417  0.4365  0.3327
11759TIP3    H256693   0.790   2.958  11.258 -1.1483  0.0159  0.6583
11760TIP3   OH256694   4.640   4.493   4.251  0.5248 -0.3025 -0.0204
11760TIP3    H156695   4.663   4.579   4.286 -0.5507  0.7927 -1.8550
11760TIP3    H256696   4.564   4.466   4.303  0.6016  0.0437  0.2730
11761TIP3   OH256697   6.219   6.106  16.569 -0.5469 -0.6879 -0.3233
11761TIP3    H156698   6.164   6.178  16.597 -0.2539 -1.0165  1.1791
11761TIP3    H256699   6.171   6.065  16.497 -0.0148  1.8746 -2.2588
11762TIP3   OH256700   4.537   2.176  12.562 -0.6384 -0.1868 -0.6100
11762TIP3    H156701   4.453   2.218  12.581 -1.0234 -1.2626  0.1597
11762TIP3    H256702   4.539   2.099  12.620  1.2799  0.3243  0.0746
11763TIP3   OH256703   4.553   4.705   3.112 -0.0137 -0.0229 -0.2105
11763TIP3    H156704   4.530   4.622   3.070  0.5897  0.0322 -0.6557
11763TIP3    H256705   4.562   4.683   3.204  1.8336 -0.8220 -0.5456
11764TIP3   OH256706   5.260   1.537  15.806  0.3630  1.1290  0.0410
11764TIP3    H156707   5.272   1.631  15.821  0.9869  0.9668  0.6299
11764TIP3    H256708   5.237   1.530  15.713  1.5620  1.7726 -0.3336
11765TIP3   OH256709   1.984   1.629  11.023 -0.0714  0.4954 -0.0061
11765TIP3    H156710   1.957   1.709  11.068  1.5457  1.5493 -0.8265
11765TIP3    H256711   2.077   1.642  11.004  0.1836 -1.4949 -0.3684
11766TIP3   OH256712   2.832   0.948  15.000  0.3524  0.3986 -0.1712
11766TIP3    H156713   2.765   0.983  15.058  0.7828 -0.2722  0.7570
11766TIP3    H256714   2.881   1.025  14.971  0.4759  0.7100  0.8071
11767TIP3   OH256715   1.387   2.307  16.521  0.5540  0.2646 -0.3843
11767TIP3    H156716   1.302   2.263  16.524  1.3100 -1.3403 -1.0613
11767TIP3    H256717   1.387   2.353  16.437  1.3958 -2.1019 -1.7752
11768TIP3   OH256718   4.079   0.111  15.901  0.1276  0.3186 -0.1521
11768TIP3    H156719   4.095   0.031  15.852  0.7061  1.5319 -2.0397
11768TIP3    H256720   3.990   0.137  15.876  0.1970  0.6214 -0.0852
11769TIP3   OH256721   6.193   3.327  15.152 -0.3808 -0.2368  0.2560
11769TIP3    H156722   6.255   3.253  15.153  0.7252  0.5697 -2.0528
11769TIP3    H256723   6.108   3.287  15.173 -0.1283 -2.5679 -2.4413
11770TIP3   OH256724   1.004   1.408  11.708 -1.1685 -0.3503  0.4903
11770TIP3    H156725   0.983   1.501  11.716 -0.3583 -0.0204 -0.7918
11770TIP3    H256726   0.931   1.371  11.658 -0.5836  0.0256 -0.6957
11771TIP3   OH256727   6.764   1.547  11.406 -0.6905  0.4319  0.2107
11771TIP3    H156728   6.712   1.519  11.331 -0.6253  0.7751  0.0326
11771TIP3    H256729   6.715   1.621  11.442 -0.5016  0.5402  0.2457
11772TIP3   OH256730   3.852   1.876   2.579  0.7149 -0.2906 -0.5887
11772TIP3    H156731   3.901   1.936   2.522  0.2452 -0.5930 -1.3293
11772TIP3    H256732   3.852   1.793   2.531  1.0164 -0.7802  0.2422
11773TIP3   OH256733   3.190   3.042  13.803 -0.5169  0.6891  0.2475
11773TIP3    H156734   3.207   3.000  13.888  2.4794  1.4256  0.1170
11773TIP3    H256735   3.231   2.984  13.739 -1.0480  1.1317 -0.5071
11774TIP3   OH256736   2.708   0.497   0.161  0.1273  0.0390 -0.6756
11774TIP3    H156737   2.703   0.591   0.178 -0.0183 -0.3159  1.5272
11774TIP3    H256738   2.619   0.465   0.173  0.5106 -0.6394  0.5756
11775TIP3   OH256739   1.141   3.532   3.946  0.0436  0.5738  0.0756
11775TIP3    H156740   1.206   3.494   4.006  1.5171  1.7005 -0.7316
11775TIP3    H256741   1.098   3.457   3.907  0.9080 -0.2195  0.6051
11776TIP3   OH256742   2.846   2.003   1.920 -0.6765  0.1384 -0.7519
11776TIP3    H156743   2.769   1.959   1.957 -1.4409  1.1292 -1.1458
11776TIP3    H256744   2.897   2.029   1.997 -0.1480 -1.4835 -0.5045
11777TIP3   OH256745   3.495   6.355  13.056  0.3335  0.6581 -0.2517
11777TIP3    H156746   3.568   6.294  13.065  0.2421  0.3046 -1.6013
11777TIP3    H256747   3.490   6.401  13.140  0.9773 -0.5571  0.4676
11778TIP3   OH256748   6.131   5.817   1.859  0.9027  0.1009  0.2007
11778TIP3    H156749   6.104   5.733   1.896 -2.1403 -0.6222 -3.1225
11778TIP3    H256750   6.201   5.794   1.797  0.5567  0.0937 -0.1926
11779TIP3   OH256751   1.766   3.951  14.785  0.5169 -0.0403 -0.4546
11779TIP3    H156752   1.690   3.900  14.811  1.4743 -0.4277  1.8362
11779TIP3    H256753   1.805   3.980  14.867  1.3242  2.4756 -1.6168
11780TIP3   OH256754   2.709   5.950  13.646 -0.2515  0.0639 -0.4181
11780TIP3    H156755   2.672   5.893  13.714  1.4890  0.7791  1.2046
11780TIP3    H256756   2.787   5.904  13.616  0.5606  1.0640  0.1246
11781TIP3   OH256757   3.429   4.203   6.142  0.1328 -1.2300  0.2725
11781TIP3    H156758   3.431   4.231   6.051  0.1862 -1.7079  0.1236
11781TIP3    H256759   3.414   4.108   6.138  0.9621 -1.3921  0.7309
11782TIP3   OH256760   3.830   4.446  14.315  0.5896 -0.2093  0.2889
11782TIP3    H156761   3.811   4.395  14.393  0.3414  0.0791  0.4215
11782TIP3    H256762   3.788   4.531  14.331 -0.5061 -0.5496 -0.6749
11783TIP3   OH256763   6.556   5.197   2.860  0.3175  0.3217 -0.0028
11783TIP3    H156764   6.592   5.246   2.786  3.0472 -0.5763  0.6419
11783TIP3    H256765   6.563   5.105   2.834 -0.3778  0.0622  0.6765
11784TIP3   OH256766   3.778   0.679   2.716  0.1087  0.0672 -0.5461
11784TIP3    H156767   3.866   0.699   2.683  0.9085 -0.2429  1.2801
11784TIP3    H256768   3.732   0.643   2.640  1.8339 -0.6028 -1.3402
11785TIP3   OH256769   1.819   1.875  11.707 -0.0280 -0.2229 -0.8809
11785TIP3    H156770   1.774   1.837  11.632 -1.1862  0.2223 -0.4284
11785TIP3    H256771   1.776   1.837  11.783  1.0832 -0.6079 -0.4164
11786TIP3   OH256772   3.366   2.062   1.478 -0.1747 -0.6662 -0.3717
11786TIP3    H156773   3.366   2.132   1.543 -1.1728 -0.9939 -0.0048
11786TIP3    H256774   3.289   2.079   1.424 -1.2645 -2.2439  0.5874
11787TIP3   OH256775   2.515   4.269  16.612 -0.3950  0.2771 -0.2960
11787TIP3    H156776   2.585   4.219  16.570 -1.4436 -0.9838 -0.6211
11787TIP3    H256777   2.558   4.314  16.684  0.7669 -0.4035 -0.5345
11788TIP3   OH256778   0.004   4.152  11.746  0.2379  0.2384 -0.3012
11788TIP3    H156779  -0.084   4.154  11.784 -0.0759 -1.6782 -0.8310
11788TIP3    H256780   0.036   4.063  11.762  2.0566  0.8590 -0.2121
11789TIP3   OH256781   0.586   3.320  14.699 -0.5420 -0.5960 -0.1471
11789TIP3    H156782   0.563   3.380  14.628  1.3420 -0.5576 -0.7765
11789TIP3    H256783   0.628   3.246  14.655 -0.7414 -1.2886  0.8114
11790TIP3   OH256784   2.713   3.324  11.304 -0.1728 -0.0929  0.4124
11790TIP3    H156785   2.741   3.241  11.265  2.0310 -0.0369  1.7400
11790TIP3    H256786   2.676   3.374  11.231  0.7505 -1.2732 -0.9007
11791TIP3   OH256787   4.370   6.533   4.765  0.1122  0.0428  0.5885
11791TIP3    H156788   4.284   6.572   4.750 -0.8551 -2.0004  0.4021
11791TIP3    H256789   4.375   6.462   4.700  2.2100  0.5121  0.1912
11792TIP3   OH256790   6.323   5.551  15.730  0.2742 -0.0372  0.2889
11792TIP3    H156791   6.290   5.570  15.818 -0.5443 -0.4303  0.0730
11792TIP3    H256792   6.247   5.520  15.682  0.8324 -0.3498 -0.4093
11793TIP3   OH256793   1.137   5.385   4.572 -0.7007  0.4885 -0.0135
11793TIP3    H156794   1.100   5.460   4.619 -1.0606 -0.5336  1.4125
11793TIP3    H256795   1.087   5.310   4.603 -0.5011 -0.3360 -1.5881
11794TIP3   OH256796   2.274   3.738  10.615  0.3900 -0.5274  0.3250
11794TIP3    H156797   2.340   3.807  10.613  0.8533 -0.9518 -2.0359
11794TIP3    H256798   2.324   3.656  10.617 -0.1175 -0.8346  0.8568
11795TIP3   OH256799   1.650   4.686   4.209  0.3544  0.4749 -0.2849
11795TIP3    H156800   1.695   4.644   4.282 -0.5546 -2.0759 -1.0620
11795TIP3    H256801   1.714   4.745   4.171  1.6251  0.0595  1.1289
11796TIP3   OH256802   6.599   6.700   0.845 -0.1423  0.1028  0.0268
11796TIP3    H156803   6.636   6.623   0.888 -0.4192 -0.3866 -0.5983
11796TIP3    H256804   6.646   6.705   0.762 -0.5838  0.2302 -0.2142
11797TIP3   OH256805   3.697   2.397  12.945  0.6360  0.7265 -0.4390
11797TIP3    H156806   3.730   2.312  12.977  1.3314  2.1128  2.9779
11797TIP3    H256807   3.610   2.404  12.985  0.9697  1.9893  0.0922
11798TIP3   OH256808   1.875   0.126  11.992  0.1106  0.0302 -0.3036
11798TIP3    H156809   1.800   0.071  11.969  0.0543  0.0643 -0.2034
11798TIP3    H256810   1.929   0.069  12.047 -0.4465  0.3898  0.6533
11799TIP3   OH256811   3.726   4.068   2.420  0.1987 -0.0089  0.3626
11799TIP3    H156812   3.675   4.147   2.405 -1.8350 -0.9913  1.6636
11799TIP3    H256813   3.787   4.065   2.346 -1.0590  1.6617 -0.8347
11800TIP3   OH256814   3.616   5.881   4.224 -0.0222 -0.3976  0.3400
11800TIP3    H156815   3.609   5.942   4.151  0.2995 -2.0506 -1.1351
11800TIP3    H256816   3.560   5.808   4.200  1.7524 -1.9497  0.6891
11801TIP3   OH256817   5.089   5.221   4.398  0.1533  0.0459 -0.0150
11801TIP3    H156818   5.048   5.135   4.408 -1.7404  0.8380 -0.5700
11801TIP3    H256819   5.043   5.276   4.461  1.9512  0.5033  0.9689
11802TIP3   OH256820   2.714   3.537  13.958 -0.0505 -0.0345  0.0094
11802TIP3    H156821   2.738   3.585  14.037 -1.9303  2.1196 -0.5968
11802TIP3    H256822   2.686   3.451  13.989  0.0539  0.4785  1.5992
11803TIP3   OH256823   5.288   4.343   6.247 -0.0856  0.2569  0.0140
11803TIP3    H156824   5.260   4.398   6.321  0.1873 -0.7552  0.8819
11803TIP3    H256825   5.383   4.344   6.251 -0.0727 -1.1955  0.7587
11804TIP3   OH256826   6.653   6.403  15.515  0.0536  0.2621 -0.0896
11804TIP3    H156827   6.679   6.495  15.519 -0.2929  0.3419  0.4898
11804TIP3    H256828   6.598   6.391  15.593 -0.2573 -0.3226 -0.3958
11805TIP3   OH256829   3.140   1.374   0.270 -0.1226 -0.6791  0.1907
11805TIP3    H156830   3.141   1.324   0.189 -1.2133 -2.0079  0.9714
11805TIP3    H256831   3.158   1.310   0.339  1.7827  0.5884  0.9681
11806TIP3   OH256832   0.254   3.270   3.264  0.1587  0.2412  0.2422
11806TIP3    H156833   0.250   3.235   3.175 -1.2365  0.7337  0.0835
11806TIP3    H256834   0.329   3.329   3.263 -0.3988  0.9737 -0.9041
11807TIP3   OH256835   4.521   3.628  12.929  0.0094  0.5326 -0.2333
11807TIP3    H156836   4.539   3.534  12.939 -2.0070  0.1852  0.6300
11807TIP3    H256837   4.475   3.652  13.009 -1.0115  1.8709 -1.1850
11808TIP3   OH256838   1.055   3.270   3.877  0.0936 -0.2388 -0.3379
11808TIP3    H156839   1.138   3.229   3.853 -1.4034 -2.2116 -2.7953
11808TIP3    H256840   1.031   3.228   3.960  0.9024 -0.6987 -0.3230
11809TIP3   OH256841   5.169   4.774   1.365 -0.2946 -0.5095  0.1423
11809TIP3    H156842   5.129   4.825   1.435  0.1539 -0.2055  0.1738
11809TIP3    H256843   5.252   4.817   1.347  0.0686 -1.1904  0.1340
11810TIP3   OH256844   0.242   5.931  15.774  0.3323  0.3397 -0.3569
11810TIP3    H156845   0.316   5.984  15.744 -0.3131  0.7042 -1.3860
11810TIP3    H256846   0.169   5.992  15.778 -0.1033 -0.1844 -0.1933
11811TIP3   OH256847   2.826   3.588  12.423 -0.0221  0.1634 -0.0703
11811TIP3    H156848   2.828   3.684  12.430  3.0698  0.0577  3.4971
11811TIP3    H256849   2.875   3.569  12.343 -0.1770  1.5411 -0.5273
11812TIP3   OH256850   4.656   0.072  11.116 -0.3618 -0.5536  0.1861
11812TIP3    H156851   4.747   0.063  11.087 -0.3522 -0.1784  0.0885
11812TIP3    H256852   4.628   0.156  11.079  0.0400  0.5636  2.2761
11813TIP3   OH256853   4.318   0.734   2.985 -0.5329 -0.3712 -0.2595
11813TIP3    H156854   4.248   0.798   2.998 -0.2147  0.2286 -1.3501
11813TIP3    H256855   4.294   0.660   3.041 -1.8184 -0.0042 -0.2999
11814TIP3   OH256856   5.840   1.155  13.952 -0.0039 -0.1076  0.0447
11814TIP3    H156857   5.901   1.121  13.887 -1.5758 -2.1937 -0.4462
11814TIP3    H256858   5.858   1.105  14.031 -1.3986 -1.1503 -0.2659
11815TIP3   OH256859   0.253   2.418   1.157  0.0773 -0.2151 -0.7747
11815TIP3    H156860   0.171   2.419   1.205  0.2004  0.1395 -0.5656
11815TIP3    H256861   0.258   2.504   1.115  0.1104 -0.4130 -1.1842
11816TIP3   OH256862   5.965   2.921  11.577 -0.7325  0.6149 -0.0209
11816TIP3    H156863   5.928   2.853  11.521 -0.3597  0.0245  0.4345
11816TIP3    H256864   6.002   2.985  11.515 -0.5107  0.0800 -0.4551
11817TIP3   OH256865   5.899   5.267  16.591 -0.2289 -0.3256  0.8721
11817TIP3    H156866   5.850   5.242  16.669 -0.0167  1.6830  1.7100
11817TIP3    H256867   5.856   5.347  16.559  1.4884  0.5894  0.7145
11818TIP3   OH256868   2.131   5.140  12.286  0.2226  0.1377  0.4371
11818TIP3    H156869   2.113   5.126  12.379 -2.8172  2.8787  0.4295
11818TIP3    H256870   2.117   5.054  12.246 -1.9674 -0.3686  2.0904
11819TIP3   OH256871   5.377   0.514   0.715  0.2356  0.7321  0.4047
11819TIP3    H156872   5.360   0.453   0.787 -1.7216  0.2624 -0.3852
11819TIP3    H256873   5.463   0.488   0.682 -0.7615 -2.0338 -0.2638
11820TIP3   OH256874   3.006   2.254  12.913  0.6171  0.3281  0.1999
11820TIP3    H156875   2.921   2.216  12.937  1.4478 -0.3672  2.2744
11820TIP3    H256876   3.054   2.182  12.872  0.3314  0.6450 -0.7165
11821TIP3   OH256877   2.247   0.684  13.016 -0.0480  0.2809  0.0094
11821TIP3    H156878   2.269   0.773  12.991 -0.6034  0.4500  0.1093
11821TIP3    H256879   2.253   0.633  12.935  1.1723  0.2206  0.1191
11822TIP3   OH256880   6.474   1.932  13.259  0.0264  0.8325 -0.1682
11822TIP3    H156881   6.472   2.026  13.281 -0.4085  1.3085 -2.0762
11822TIP3    H256882   6.402   1.920  13.198  0.9111 -0.4778 -0.9982
11823TIP3   OH256883   0.407   1.811   3.267 -0.3634  0.1048  0.4222
11823TIP3    H156884   0.494   1.849   3.257  0.1499 -0.5094  2.1538
11823TIP3    H256885   0.383   1.830   3.357 -2.0049  0.1844 -0.0096
11824TIP3   OH256886   1.652   6.278   4.315  0.0730 -0.1577 -0.2118
11824TIP3    H156887   1.659   6.267   4.220 -1.0748 -1.7539 -0.1572
11824TIP3    H256888   1.733   6.321   4.341  0.0882  0.9792 -2.0001
11825TIP3   OH256889   6.685   4.265   5.364  0.1714  0.2055  0.2705
11825TIP3    H156890   6.645   4.282   5.279  1.8247  0.2004 -0.5279
11825TIP3    H256891   6.610   4.250   5.422 -1.0196  1.1614 -0.9511
11826TIP3   OH256892   1.858   0.276  14.517  0.2370  0.4193  0.4760
11826TIP3    H156893   1.844   0.205  14.579  0.7702  0.3291  0.4919
11826TIP3    H256894   1.951   0.272  14.495 -0.1821 -0.4454 -1.3936
11827TIP3   OH256895   5.930   0.613   2.869  0.4294 -0.2001  0.1542
11827TIP3    H156896   5.921   0.633   2.775 -0.1290  0.5757  0.3614
11827TIP3    H256897   6.008   0.663   2.896 -0.1523  0.6128  0.3689
11828TIP3   OH256898   2.941   1.929   4.795 -0.1840  0.0556  0.3165
11828TIP3    H156899   2.918   1.851   4.844 -0.6832  0.9943  1.6314
11828TIP3    H256900   2.861   1.953   4.748 -0.7882  1.0834  1.7878
11829TIP3   OH256901   6.270   3.970  12.421  0.4172  0.6016 -0.2895
11829TIP3    H156902   6.207   4.017  12.367  1.0862  0.5385 -1.1479
11829TIP3    H256903   6.217   3.917  12.480 -0.3361  0.0604 -1.4208
11830TIP3   OH256904   3.660   4.463   4.329 -0.6141 -0.2002 -0.6404
11830TIP3    H156905   3.741   4.453   4.379  0.1583  0.9292 -1.6169
11830TIP3    H256906   3.621   4.376   4.329  0.7202 -0.8286 -0.3588
11831TIP3   OH256907   6.662   0.191  13.828  0.4940 -0.0012  0.5494
11831TIP3    H156908   6.684   0.106  13.791 -1.8738  0.2886 -1.7335
11831TIP3    H256909   6.580   0.177  13.875  0.3549  0.9152  0.5988
11832TIP3   OH256910   3.094   2.460  15.805 -0.1060 -0.1484 -0.2586
11832TIP3    H156911   3.168   2.440  15.861 -1.9737  0.4840  2.6957
11832TIP3    H256912   3.088   2.556  15.807 -1.0078 -0.1905 -0.3720
11833TIP3   OH256913   0.416   3.990   1.507 -0.1785  0.1183 -0.0837
11833TIP3    H156914   0.410   4.070   1.455 -2.5057 -2.0204 -3.4505
11833TIP3    H256915   0.328   3.978   1.542  0.1327 -0.9974  0.3481
11834TIP3   OH256916   6.722   0.938   0.426  0.4827 -0.2529  0.6419
11834TIP3    H156917   6.702   0.845   0.424 -0.2201 -0.1010  0.5129
11834TIP3    H256918   6.641   0.981   0.401  1.0651  0.3588 -0.2785
11835TIP3   OH256919   1.475   3.821  12.214 -0.2610 -0.3732  0.2018
11835TIP3    H156920   1.461   3.914  12.196  0.8130 -0.0505  0.9510
11835TIP3    H256921   1.516   3.819  12.300  2.6371 -1.3262 -1.0884
11836TIP3   OH256922   2.713   5.024   1.414  0.0166 -0.0199  0.1474
11836TIP3    H156923   2.717   4.932   1.388  0.6727  0.2515 -0.7700
11836TIP3    H256924   2.699   5.071   1.332  0.3488  0.7408  0.5229
11837TIP3   OH256925   3.160   6.723  16.289  0.4051  0.4310 -0.0223
11837TIP3    H156926   3.122   6.797  16.337  0.3346 -0.2060  0.9434
11837TIP3    H256927   3.203   6.671  16.357  1.3856  0.1532 -0.8455
11838TIP3   OH256928   5.792   0.049  14.784  0.1413 -0.7157  0.3058
11838TIP3    H156929   5.742  -0.019  14.738  0.6840 -2.1546  1.7501
11838TIP3    H256930   5.875   0.055  14.735 -0.1141 -0.7091 -0.1321
11839TIP3   OH256931   5.285   5.904  15.262  0.1800  0.2018  0.0998
11839TIP3    H156932   5.355   5.855  15.305  0.1257  0.1191  0.0939
11839TIP3    H256933   5.274   5.861  15.177 -1.9584 -1.7627  1.2510
11840TIP3   OH256934   4.320   3.999  12.965  0.3613 -0.0933 -0.2118
11840TIP3    H156935   4.265   3.962  12.897 -1.6869  1.0078  0.7605
11840TIP3    H256936   4.270   3.987  13.046  3.1749 -2.4351  1.4257
11841TIP3   OH256937   5.114   0.253  13.236  0.0726  0.0089  0.0223
11841TIP3    H156938   5.153   0.337  13.260  0.0739 -0.1965  0.7671
11841TIP3    H256939   5.019   0.269  13.242  0.0336 -0.7112  2.7611
11842TIP3   OH256940   1.855   5.775   5.055 -0.1266 -0.3439 -0.0554
11842TIP3    H156941   1.770   5.801   5.090 -0.8443  0.0327 -1.9570
11842TIP3    H256942   1.871   5.834   4.982  1.2154 -1.1924 -0.4958
11843TIP3   OH256943   2.749   5.801  17.023 -0.2217  0.3059 -0.9641
11843TIP3    H156944   2.812   5.807  17.094 -0.7105 -0.0116 -0.4873
11843TIP3    H256945   2.795   5.833  16.946  1.2161 -1.8238 -1.0748
11844TIP3   OH256946   4.421   4.924   1.282  0.1745 -0.0806  0.0213
11844TIP3    H156947   4.433   4.887   1.369 -0.8506  0.9940  0.6476
11844TIP3    H256948   4.434   4.851   1.222 -0.3348 -1.1023  1.1392
11845TIP3   OH256949   0.341   3.106   2.569 -0.4320  0.7065  0.3411
11845TIP3    H156950   0.334   3.074   2.479  2.3906  2.1177 -0.4654
11845TIP3    H256951   0.256   3.083   2.608 -1.9805  0.5060 -2.7857
11846TIP3   OH256952   5.754   0.038  13.648 -0.2300 -0.5355  0.0625
11846TIP3    H156953   5.811   0.106  13.684 -0.7489  0.1735 -0.4256
11846TIP3    H256954   5.706   0.081  13.578 -0.8896 -1.2969  0.0278
11847TIP3   OH256955   5.321   5.482   4.699  0.7597  0.2795 -0.0542
11847TIP3    H156956   5.351   5.507   4.786  0.4131  1.2390 -0.2076
11847TIP3    H256957   5.226   5.490   4.702  0.7350  0.1769 -0.4795
11848TIP3   OH256958   5.184   1.933   1.781 -0.1141  0.0166  0.4552
11848TIP3    H156959   5.188   1.890   1.867  1.2835  1.8896  1.4074
11848TIP3    H256960   5.270   1.918   1.743 -1.0404 -1.6681 -1.1516
11849TIP3   OH256961   5.541   4.301  13.379  0.2578  0.4220  0.4316
11849TIP3    H156962   5.514   4.335  13.294  1.5145 -1.1154 -0.6538
11849TIP3    H256963   5.633   4.327  13.386  0.3534 -0.0670  0.9920
11850TIP3   OH256964   0.711   5.298  15.737  0.2506  0.3826 -0.4298
11850TIP3    H156965   0.664   5.346  15.805 -1.3636 -1.4878 -0.1119
11850TIP3    H256966   0.660   5.313  15.657  0.5361  0.3515 -0.6163
11851TIP3   OH256967   5.023   5.922   3.955  0.3090 -0.3148 -0.3562
11851TIP3    H156968   5.057   5.895   3.870  1.2897 -0.9067  0.2128
11851TIP3    H256969   4.981   6.006   3.938 -0.7812 -1.0854 -1.7055
11852TIP3   OH256970   4.171   5.800   4.311 -0.0974  0.0228 -0.1192
11852TIP3    H156971   4.239   5.844   4.362  0.9535 -0.9396 -0.6559
11852TIP3    H256972   4.184   5.707   4.329  2.5691 -0.7852 -4.6074
11853TIP3   OH256973   2.680   6.348   1.915  0.0163  0.9570 -0.5879
11853TIP3    H156974   2.708   6.313   1.831 -1.5014 -1.2400 -0.2723
11853TIP3    H256975   2.604   6.295   1.939 -0.3438  2.3207  1.6023
11854TIP3   OH256976   6.247   4.685   0.113  0.2463  0.0430  0.8969
11854TIP3    H156977   6.303   4.608   0.122 -0.2375 -0.2558  1.4934
11854TIP3    H256978   6.303   4.753   0.077  0.7803 -0.4824  0.7354
11855TIP3   OH256979   3.745   2.274   5.668 -0.1607 -0.0192 -0.0464
11855TIP3    H156980   3.655   2.268   5.700 -0.7027  0.3579 -1.4269
11855TIP3    H256981   3.765   2.367   5.670 -1.2355  0.4082 -3.3342
11856TIP3   OH256982   5.854   5.787  13.836  0.2566  0.1416 -0.4426
11856TIP3    H156983   5.840   5.694  13.820 -0.1148 -0.0772  1.0560
11856TIP3    H256984   5.795   5.832  13.775  0.0539 -0.5992 -0.7983
11857TIP3   OH256985   5.835   0.575  13.408 -0.0566  0.4041 -0.7665
11857TIP3    H156986   5.741   0.566  13.423 -0.0007 -0.0157 -0.6651
11857TIP3    H256987   5.877   0.534  13.484  0.2081  0.5273 -0.8424
11858TIP3   OH256988   0.808   5.894  13.659 -0.6305 -0.3762 -0.2046
11858TIP3    H156989   0.746   5.825  13.635 -0.0683 -1.2582  0.8042
11858TIP3    H256990   0.763   5.944  13.727 -1.1347  0.4341 -1.1049
11859TIP3   OH256991   0.243   6.125  13.336  0.0715  0.1893  0.6234
11859TIP3    H156992   0.162   6.127  13.386 -0.3597 -0.0844 -0.0565
11859TIP3    H256993   0.277   6.215  13.341  0.4802 -0.0286  2.1091
11860TIP3   OH256994   2.706   5.338  14.171  0.2190 -0.6821  0.2951
11860TIP3    H156995   2.646   5.290  14.112 -0.0291  0.4662 -0.4167
11860TIP3    H256996   2.781   5.279  14.181 -0.2428 -1.3904 -0.2424
11861TIP3   OH256997   0.960   3.069   2.957 -0.3382  0.2154  0.3380
11861TIP3    H156998   0.902   3.059   2.881 -1.4632 -3.1496  1.4728
11861TIP3    H256999   1.022   3.137   2.931 -0.9956 -0.3975 -3.3790
11862TIP3   OH257000   3.618   5.809   3.210  0.3174 -0.3343  0.0103
11862TIP3    H157001   3.546   5.857   3.250  1.7949  1.7824  0.2729
11862TIP3    H257002   3.696   5.840   3.256  1.4394 -2.4392 -0.3656
11863TIP3   OH257003   5.150   2.854  13.558  0.1417 -0.1365 -0.0271
11863TIP3    H157004   5.076   2.804  13.523  0.1909 -0.6105  0.5231
11863TIP3    H257005   5.179   2.909  13.485 -0.3779 -0.3802 -0.4236
11864TIP3   OH257006   0.642   6.764  14.079  0.5779  0.1209 -0.3990
11864TIP3    H157007   0.630   6.788  13.987  0.3352  3.2806  0.3538
11864TIP3    H257008   0.734   6.781  14.097  0.0090  2.5696  0.6232
11865TIP3   OH257009   3.828   4.024  16.495  0.6807 -0.4958  0.2822
11865TIP3    H157010   3.893   3.996  16.560  1.5384 -2.5551 -1.3571
11865TIP3    H257011   3.749   3.974  16.518  1.1996 -1.7877 -0.6169
11866TIP3   OH257012   4.829   3.297  13.562  0.5430  0.3227 -0.2576
11866TIP3    H157013   4.783   3.213  13.572  1.4062 -0.0294  1.0978
11866TIP3    H257014   4.792   3.353  13.630 -1.7171  1.9205 -2.6141
11867TIP3   OH257015   1.607   4.849   0.742 -0.3554 -0.1778 -0.2329
11867TIP3    H157016   1.536   4.821   0.801 -1.0135 -2.2055 -1.8763
11867TIP3    H257017   1.566   4.915   0.686 -1.7349 -2.8544 -2.6016
11868TIP3   OH257018   4.326   2.189  13.339  0.1626  0.2336 -0.3055
11868TIP3    H157019   4.365   2.102  13.347 -0.4997  0.0165  0.7149
11868TIP3    H257020   4.235   2.178  13.367 -0.2022  1.0684 -1.0801
11869TIP3   OH257021   5.218   6.336  13.934 -0.0352  0.6636 -0.3746
11869TIP3    H157022   5.257   6.249  13.946  0.3663  0.9050  0.0833
11869TIP3    H257023   5.256   6.389  14.003 -1.6901  0.7367  0.5278
11870TIP3   OH257024   0.754   4.719   4.228 -0.0110  0.4261 -0.9639
11870TIP3    H157025   0.707   4.706   4.146  0.2115  1.1740 -1.2230
11870TIP3    H257026   0.828   4.775   4.205  0.0775  0.6159 -0.2613
11871TIP3   OH257027   3.400   6.601  16.119  0.0685  0.2963  0.4099
11871TIP3    H157028   3.464   6.648  16.172 -0.9467  1.4535  0.6564
11871TIP3    H257029   3.363   6.536  16.178  0.1980  0.3899  0.5966
11872TIP3   OH257030   2.322   3.478  15.116 -0.1914  0.4984  0.1903
11872TIP3    H157031   2.372   3.415  15.168  0.8922 -0.4791 -1.9090
11872TIP3    H257032   2.361   3.562  15.137  1.9155 -0.1595 -0.8081
11873TIP3   OH257033   5.914   3.724  11.978  0.4413 -0.0375 -0.4503
11873TIP3    H157034   5.879   3.705  12.064  0.1210 -0.0680 -0.5851
11873TIP3    H257035   5.868   3.804  11.951  0.3081 -0.2047 -0.7236
11874TIP3   OH257036   2.995   5.408   5.774  0.0913  0.0145 -0.5730
11874TIP3    H157037   3.030   5.494   5.798 -0.6778  0.0099  0.6262
11874TIP3    H257038   2.917   5.428   5.722 -0.1062  0.0328 -0.2657
11875TIP3   OH257039   2.546   5.147  11.504 -0.1735 -0.3190  0.9917
11875TIP3    H157040   2.470   5.192  11.541 -0.6954 -1.2774  1.1012
11875TIP3    H257041   2.516   5.058  11.488  1.1309 -0.9138  1.7218
11876TIP3   OH257042   3.508   6.697   3.064 -0.0815  0.7433  0.3535
11876TIP3    H157043   3.516   6.760   2.992  0.5694 -0.0001 -0.2499
11876TIP3    H257044   3.423   6.655   3.049  0.1691  0.3996 -0.1613
11877TIP3   OH257045   4.828   6.380   0.483 -0.1206 -0.0010  0.0913
11877TIP3    H157046   4.825   6.364   0.389  0.9335 -0.0420  0.0526
11877TIP3    H257047   4.738   6.400   0.507 -0.2287  1.1358 -1.1395
11878TIP3   OH257048   2.207   1.745  10.890 -0.2942  0.4911  0.3772
11878TIP3    H157049   2.286   1.702  10.921 -1.0410  0.0562  1.7753
11878TIP3    H257050   2.231   1.838  10.885  0.4310  0.3073  0.3197
11879TIP3   OH257051   3.573   1.838   2.043  0.0448 -0.3019 -0.1984
11879TIP3    H157052   3.639   1.878   1.986 -0.8936  1.0242 -0.4163
11879TIP3    H257053   3.612   1.755   2.070  1.4745  0.0871 -0.9245
11880TIP3   OH257054   3.830   6.405   4.093 -0.0274 -0.1704  0.1005
11880TIP3    H157055   3.747   6.450   4.072 -1.0680 -1.1139  1.9692
11880TIP3    H257056   3.896   6.474   4.086 -0.5366  0.1928 -3.5275
11881TIP3   OH257057   3.695   6.039   4.441 -0.0683  0.3702 -0.4214
11881TIP3    H157058   3.785   6.005   4.435 -0.3727 -1.3670  2.7813
11881TIP3    H257059   3.648   5.995   4.371  0.8150 -1.6355  0.1719
11882TIP3   OH257060   4.231   2.347   4.426 -0.0200  0.4223 -0.1396
11882TIP3    H157061   4.192   2.278   4.479  0.2018  0.0363 -0.4759
11882TIP3    H257062   4.196   2.332   4.338 -0.3620  1.0409 -0.1164
11883TIP3   OH257063   1.501   6.065   4.419 -0.2407  0.8062  0.0095
11883TIP3    H157064   1.518   5.977   4.385 -0.1252 -0.2159  2.4395
11883TIP3    H257065   1.558   6.122   4.368  2.3088 -1.0357  0.5829
11884TIP3   OH257066   4.559   4.276  10.688  0.1177  0.0249 -0.2149
11884TIP3    H157067   4.590   4.233  10.767  1.1307  1.7009  0.3401
11884TIP3    H257068   4.467   4.298  10.706  0.0072 -0.6331  0.0306
11885TIP3   OH257069   2.662   4.998  14.106  0.1361  0.4280  0.1937
11885TIP3    H157070   2.616   4.932  14.054  0.5045  0.3940 -0.0930
11885TIP3    H257071   2.598   5.068  14.117 -0.4632 -0.2401  1.0328
11886TIP3   OH257072   3.849   6.399   4.361 -0.2571  0.2629  0.6553
11886TIP3    H157073   3.854   6.493   4.380 -0.8851  0.0975  1.7343
11886TIP3    H257074   3.863   6.393   4.267  2.1633  1.2344  0.8785
11887TIP3   OH257075   0.328   5.538  14.817 -0.0769  0.7172 -0.0154
11887TIP3    H157076   0.374   5.454  14.814 -0.9259  0.2279  0.2725
11887TIP3    H257077   0.310   5.551  14.910  1.2042  1.8712  0.0892
11888TIP3   OH257078   5.569   4.066   3.818  0.3626  0.4029  0.1467
11888TIP3    H157079   5.619   3.987   3.840 -2.4022 -1.7433 -0.6875
11888TIP3    H257080   5.622   4.109   3.751  0.7354 -2.3167 -1.4882
11889TIP3   OH257081   3.583   4.870  12.663 -0.3064 -0.1198 -0.4598
11889TIP3    H157082   3.544   4.931  12.601 -2.5475  0.0181  0.9583
11889TIP3    H257083   3.610   4.925  12.737  0.4040 -0.5228 -0.4074
11890TIP3   OH257084   0.070   3.770  10.811 -0.2979  0.3215  0.2214
11890TIP3    H157085   0.056   3.850  10.862  1.7514 -0.9476  3.0318
11890TIP3    H257086   0.162   3.773  10.785 -0.9494  0.2644 -2.4419
11891TIP3   OH257087   6.169   2.638   3.286 -0.0868 -0.1217 -0.1023
11891TIP3    H157088   6.163   2.632   3.191  0.8347  0.2994 -0.1957
11891TIP3    H257089   6.191   2.550   3.315  0.2409 -0.1206 -0.3398
11892TIP3   OH257090   6.698   2.311  15.536  0.7173  0.1453  0.3375
11892TIP3    H157091   6.632   2.376  15.513 -0.0773 -0.1648  1.6557
11892TIP3    H257092   6.698   2.250  15.462 -0.2565  0.3116  0.1899
11893TIP3   OH257093   3.588   6.129   0.215 -0.4551  0.2439  0.2268
11893TIP3    H157094   3.587   6.215   0.256 -0.6633  0.3890 -0.0811
11893TIP3    H257095   3.672   6.091   0.242  0.4901  1.2719 -1.1261
11894TIP3   OH257096   1.849   3.646  11.545 -0.0892 -0.5015  0.1198
11894TIP3    H157097   1.889   3.721  11.589  1.3759 -1.5482  0.6363
11894TIP3    H257098   1.915   3.618  11.481 -1.7377  0.3445 -2.0995
11895TIP3   OH257099   6.490   4.901  11.172 -0.2698 -0.4581  0.1591
11895TIP3    H157100   6.499   4.957  11.250  0.9960 -2.0759  1.2481
11895TIP3    H257101   6.422   4.944  11.120 -0.0912  1.5103  1.4150
11896TIP3   OH257102   0.459   4.220  16.005  0.0843  0.5828 -0.2487
11896TIP3    H157103   0.464   4.247  15.913  0.7298  0.6298 -0.2089
11896TIP3    H257104   0.550   4.219  16.034 -0.1194  0.5975  0.4028
11897TIP3   OH257105   5.983   5.456  14.257 -0.1163  0.1527 -0.4507
11897TIP3    H157106   5.948   5.447  14.168 -2.6743  1.1304  0.3492
11897TIP3    H257107   5.967   5.371  14.298  2.5513 -0.8650 -1.2878
11898TIP3   OH257108   0.983   3.623   5.002 -0.0604  0.4017 -0.5837
11898TIP3    H157109   0.924   3.616   5.077 -0.3580  0.7081 -0.7807
11898TIP3    H257110   1.070   3.631   5.039  0.0218 -1.4280 -0.2975
11899TIP3   OH257111   5.913   0.482   5.647 -0.1535 -0.0181  0.4658
11899TIP3    H157112   5.950   0.561   5.608  1.0301 -1.5420 -1.7001
11899TIP3    H257113   5.903   0.504   5.740 -0.8613  2.9803 -0.2040
11900TIP3   OH257114   1.354   3.519  15.817  0.2036 -0.1460 -0.3320
11900TIP3    H157115   1.290   3.455  15.786 -0.6389 -0.3873  1.7601
11900TIP3    H257116   1.419   3.466  15.863  1.5563  0.1821 -1.7761
11901TIP3   OH257117   2.706   5.429  16.304  0.4548 -0.1245  0.2262
11901TIP3    H157118   2.656   5.365  16.356  1.8988 -0.7585  0.8921
11901TIP3    H257119   2.669   5.513  16.330  0.9607 -0.4377  2.1678
11902TIP3   OH257120   6.115   2.964   3.141  0.1063 -0.2446 -0.2825
11902TIP3    H157121   6.041   2.952   3.200  0.5030  2.3883  0.8814
11902TIP3    H257122   6.192   2.949   3.196  0.5308  3.6011  0.4796
11903TIP3   OH257123   0.446   1.655  11.381 -0.2573 -1.3167 -0.1950
11903TIP3    H157124   0.530   1.621  11.352  1.0721  0.3472  1.4857
11903TIP3    H257125   0.443   1.744  11.346  0.0046 -0.3723  2.0182
11904TIP3   OH257126   3.515   0.497   5.468 -0.0688 -0.2781 -0.2007
11904TIP3    H157127   3.503   0.582   5.511 -2.3695 -0.3199 -0.6491
11904TIP3    H257128   3.600   0.504   5.424  0.2032  1.4386  0.5198
11905TIP3   OH257129   5.285   1.133   5.414  0.0150 -0.4284  0.5022
11905TIP3    H157130   5.337   1.212   5.423 -0.3509 -0.2208  0.8161
11905TIP3    H257131   5.251   1.116   5.502 -1.0430 -0.1504  0.1690
11906TIP3   OH257132   3.842   0.416   3.887  0.3473 -0.1518 -0.0467
11906TIP3    H157133   3.846   0.364   3.807 -0.0057 -0.9642  0.4499
11906TIP3    H257134   3.912   0.480   3.878  1.2761 -1.1751 -0.3631
11907TIP3   OH257135   4.523   2.725  16.604  0.3156  0.1838 -0.1863
11907TIP3    H157136   4.561   2.790  16.546 -2.9123  1.9032 -0.5953
11907TIP3    H257137   4.486   2.659  16.546  1.6160 -0.9044  0.1660
11908TIP3   OH257138   0.815   6.069   1.771 -0.4434 -0.3136  0.0715
11908TIP3    H157139   0.771   6.095   1.851 -1.7862  0.8112 -0.9708
11908TIP3    H257140   0.745   6.061   1.706  0.7173 -0.0181 -1.2787
11909TIP3   OH257141   5.290   3.083  16.935 -0.1653  0.1837  0.3091
11909TIP3    H157142   5.346   3.007  16.914 -2.1129 -1.0963 -0.4916
11909TIP3    H257143   5.300   3.142  16.861  2.1127  1.2485  1.3680
11910TIP3   OH257144   4.677   1.038  11.585 -0.5143  0.1112 -1.0414
11910TIP3    H157145   4.617   0.964  11.595 -0.5607  0.2548 -0.2010
11910TIP3    H257146   4.620   1.111  11.560 -0.4433 -0.1710 -2.0657
11911TIP3   OH257147   6.583   2.307  11.492  0.3850  0.1504  0.1279
11911TIP3    H157148   6.523   2.289  11.419 -0.8438  2.2701  0.5271
11911TIP3    H257149   6.583   2.226  11.543 -1.4100 -0.2469 -0.4110
11912TIP3   OH257150   6.452   0.812  14.709 -0.2462 -0.2959 -0.5933
11912TIP3    H157151   6.444   0.833  14.802 -1.6759 -1.6199 -0.3754
11912TIP3    H257152   6.507   0.882  14.673  0.9107 -0.1173  1.3538
11913TIP3   OH257153   4.477   4.719  15.029  0.5374 -0.2434 -0.2405
11913TIP3    H157154   4.461   4.697  14.938 -0.8797 -1.0052  0.1565
11913TIP3    H257155   4.442   4.645  15.079  1.9632 -0.1930  0.9103
11914TIP3   OH257156   4.974   2.300  12.563  0.4931  0.2614  0.0339
11914TIP3    H157157   5.033   2.374  12.574 -0.6707  1.1483  0.5939
11914TIP3    H257158   4.891   2.340  12.536 -0.6757 -0.6213  2.1210
11915TIP3   OH257159   3.885   0.484  16.777  0.1212  0.3423  0.0051
11915TIP3    H157160   3.809   0.529  16.741  1.0144  1.6103 -0.3338
11915TIP3    H257161   3.938   0.553  16.817  2.3618 -0.0781 -1.9791
11916TIP3   OH257162   2.260   1.351  11.813  0.0933 -0.2538 -0.3806
11916TIP3    H157163   2.267   1.283  11.746 -2.2035 -1.2320  0.2688
11916TIP3    H257164   2.188   1.322  11.869 -0.4022  2.2889  0.4408
11917TIP3   OH257165   1.147   3.673   4.337  0.9552  0.0824  0.3885
11917TIP3    H157166   1.118   3.603   4.396 -1.7493  1.1749  0.4481
11917TIP3    H257167   1.159   3.749   4.394 -0.8628  0.9235 -0.2960
11918TIP3   OH257168   3.276   5.943  12.739 -0.1054  0.0411  0.2046
11918TIP3    H157169   3.249   6.032  12.714 -1.4021 -0.4071 -0.0831
11918TIP3    H257170   3.309   5.905  12.658  0.3278  0.2091  0.2985
11919TIP3   OH257171   5.920   3.825   5.160  0.8592 -0.6874  0.0840
11919TIP3    H157172   5.868   3.781   5.092  0.6294 -0.1228 -0.1095
11919TIP3    H257173   5.965   3.895   5.113 -0.4705  0.6738  0.7790
11920TIP3   OH257174   6.701   2.562  15.143 -0.4473  0.6884 -0.6347
11920TIP3    H157175   6.757   2.501  15.190 -1.2006 -0.9793 -1.7916
11920TIP3    H257176   6.705   2.643  15.194  1.7879  0.1676  0.1273
11921TIP3   OH257177   3.881   2.866  13.403  0.2077  0.6102 -0.2176
11921TIP3    H157178   3.904   2.816  13.324  0.5979 -1.0085  0.8621
11921TIP3    H257179   3.952   2.929  13.413  1.8821 -1.2800  0.5300
11922TIP3   OH257180   4.234   2.187  12.770  1.1223 -0.1595  0.2158
11922TIP3    H157181   4.203   2.276  12.755  0.5888 -0.3059  0.4413
11922TIP3    H257182   4.193   2.160  12.852 -0.4761 -1.3862 -0.9245
11923TIP3   OH257183   6.741   6.701   3.328  0.1213  0.0860  0.2464
11923TIP3    H157184   6.751   6.616   3.284  0.9038  0.6320 -0.6703
11923TIP3    H257185   6.659   6.736   3.294  0.9729  0.7402 -1.2619
11924TIP3   OH257186   0.270   5.267  13.879 -0.3866 -0.1134  0.2797
11924TIP3    H157187   0.236   5.322  13.950  0.2071  0.5981  0.0220
11924TIP3    H257188   0.327   5.324  13.829 -2.4559  0.0492 -2.1006
11925TIP3   OH257189   0.597   1.068   3.775  0.2339  0.1596  0.0140
11925TIP3    H157190   0.673   1.027   3.816  0.4515 -0.0895 -0.6237
11925TIP3    H257191   0.599   1.159   3.805 -0.2965 -0.2944  1.5099
11926TIP3   OH257192   0.046   1.231  13.260  0.4178  0.4927 -0.3399
11926TIP3    H157193   0.035   1.136  13.263  3.3698  0.0815  1.1923
11926TIP3    H257194  -0.009   1.259  13.187 -1.6674 -2.1678  0.0465
11927TIP3   OH257195   1.806   3.563  12.928  0.4460 -0.4374  0.3677
11927TIP3    H157196   1.821   3.654  12.903 -2.3222  0.1450  0.5112
11927TIP3    H257197   1.890   3.533  12.962  1.5399  1.9146 -0.1000
11928TIP3   OH257198   2.933   0.104  12.592 -0.4067 -0.4355 -0.3504
11928TIP3    H157199   2.956   0.184  12.544  1.1613  0.1041  1.1606
11928TIP3    H257200   2.998   0.040  12.564  0.6297 -0.0674  1.0781
11929TIP3   OH257201   3.489   0.443  16.090 -0.3131 -0.0889  0.1025
11929TIP3    H157202   3.510   0.349  16.093 -0.3382 -0.0711  1.5286
11929TIP3    H257203   3.508   0.469  16.000 -1.3225 -1.6996 -0.6357
11930TIP3   OH257204   1.318   2.163  13.946 -0.7529 -0.0460  0.3663
11930TIP3    H157205   1.309   2.255  13.971 -1.3313  0.2253 -0.7926
11930TIP3    H257206   1.228   2.132  13.937 -0.6021 -0.0398 -1.6039
11931TIP3   OH257207   5.061   5.611   1.123 -0.2350 -0.0019 -0.2487
11931TIP3    H157208   5.150   5.594   1.092 -1.1537 -2.4143 -1.8794
11931TIP3    H257209   5.050   5.554   1.199 -0.3551  0.4019  0.0398
11932TIP3   OH257210   2.059   0.124  17.064 -0.1599 -0.1513  0.3626
11932TIP3    H157211   2.098   0.038  17.047 -0.5351 -0.3528  0.4928
11932TIP3    H257212   1.992   0.106  17.130 -0.1073  0.2767  0.5323
11933TIP3   OH257213   6.496   5.699   4.797  0.0865  0.4508  0.2502
11933TIP3    H157214   6.445   5.675   4.719 -1.5813  2.0982  0.7566
11933TIP3    H257215   6.565   5.756   4.763 -0.5013  0.9875 -0.0660
11934TIP3   OH257216   2.501   5.404   1.476 -0.6082 -0.9412  0.1819
11934TIP3    H157217   2.418   5.359   1.458 -1.8682  1.2276  0.2732
11934TIP3    H257218   2.482   5.460   1.551  1.1121 -0.7520  0.5147
11935TIP3   OH257219   3.345   2.423  15.622  0.2352 -0.0610 -0.1606
11935TIP3    H157220   3.325   2.403  15.714 -1.3650  0.5167 -0.3500
11935TIP3    H257221   3.441   2.434  15.620  0.3341 -0.4315  1.3557
11936TIP3   OH257222   2.685   2.037   2.515 -0.3257  0.7977  0.0936
11936TIP3    H157223   2.648   2.040   2.427 -3.0825 -0.2943  1.1098
11936TIP3    H257224   2.616   2.073   2.571  1.3731  1.5232  1.8566
11937TIP3   OH257225   4.012   5.716  12.711  0.1015 -0.3926 -0.1236
11937TIP3    H157226   3.998   5.660  12.787  0.4728 -0.3249 -0.0033
11937TIP3    H257227   4.080   5.672  12.660  1.1762  0.4784  0.5186
11938TIP3   OH257228   2.026   4.209   3.182  0.0773  0.1607  0.0119
11938TIP3    H157229   2.086   4.241   3.115 -0.3432 -0.1546 -0.5215
11938TIP3    H257230   1.950   4.178   3.134 -0.6230  0.7658  0.6933
11939TIP3   OH257231   2.309   1.241  14.674 -0.5997  0.1756  0.3148
11939TIP3    H157232   2.391   1.214  14.715  0.4819  0.5431 -1.4821
11939TIP3    H257233   2.328   1.328  14.638 -1.4627 -0.1131 -0.9326
11940TIP3   OH257234   0.424   0.857  11.644 -0.5019 -0.0189 -0.0763
11940TIP3    H157235   0.332   0.868  11.667 -0.3666  1.8616 -0.2523
11940TIP3    H257236   0.430   0.885  11.553  0.1997 -0.3835 -0.1523
11941TIP3   OH257237   1.613   6.572   4.500 -0.8922  0.2230  1.1149
11941TIP3    H157238   1.599   6.564   4.594 -1.8235 -3.8136  0.7882
11941TIP3    H257239   1.705   6.547   4.487  0.0061  3.1614  1.0376
11942TIP3   OH257240   4.800   0.311   3.758 -0.5804 -0.2345  0.2753
11942TIP3    H157241   4.831   0.401   3.745 -0.1236 -0.5416 -0.8717
11942TIP3    H257242   4.705   0.317   3.750 -1.0126  0.7330  3.8921
11943TIP3   OH257243   0.536   1.604  14.369 -0.0461 -0.3129  0.2449
11943TIP3    H157244   0.628   1.578  14.379 -0.2068 -0.9829  0.0180
11943TIP3    H257245   0.507   1.560  14.289 -0.3007  0.6574 -0.2177
11944TIP3   OH257246   0.884   3.265  11.156 -0.1758 -0.0364 -0.2134
11944TIP3    H157247   0.866   3.200  11.224  0.7996 -2.8038 -2.3842
11944TIP3    H257248   0.805   3.317  11.151 -2.0477 -2.6442  0.0368
11945TIP3   OH257249   4.883   5.797   0.309 -0.0872 -0.2678  0.0905
11945TIP3    H157250   4.978   5.802   0.299 -0.0886 -1.8970 -1.1138
11945TIP3    H257251   4.867   5.812   0.402  1.3569 -0.2234  0.3408
11946TIP3   OH257252   4.982   1.747  11.155 -0.2931  0.0126  0.0973
11946TIP3    H157253   5.029   1.680  11.106 -2.3744 -0.9526 -0.7046
11946TIP3    H257254   4.971   1.710  11.243  1.2796  0.6927  0.6174
11947TIP3   OH257255   4.500   3.325   2.718  0.3252  0.6448 -0.1224
11947TIP3    H157256   4.588   3.292   2.738  0.3026  0.5166 -0.2360
11947TIP3    H257257   4.456   3.252   2.676  0.2155  0.7603 -0.2093
11948TIP3   OH257258   3.566   4.426   5.208 -0.3570  0.6383 -0.5035
11948TIP3    H157259   3.553   4.387   5.294  0.6479  0.0261 -0.6222
11948TIP3    H257260   3.648   4.474   5.215  0.2969 -0.3041 -1.4150
11949TIP3   OH257261   1.561   1.952  11.054  0.2557  0.4761 -0.5892
11949TIP3    H157262   1.487   1.947  10.993 -0.2748 -1.9547  0.1594
11949TIP3    H257263   1.638   1.955  10.998 -0.2103 -1.9453 -1.4938
11950TIP3   OH257264   5.623   4.392   1.054  0.1982 -0.3723 -0.2599
11950TIP3    H157265   5.667   4.394   0.969 -0.8991  1.3751 -0.8376
11950TIP3    H257266   5.532   4.375   1.034  0.0480 -0.7026  0.6439
11951TIP3   OH257267   1.943   1.864  15.079 -0.2657  0.1771 -0.6415
11951TIP3    H157268   1.913   1.774  15.088 -2.2957  0.9895  1.8480
11951TIP3    H257269   2.007   1.876  15.149  0.0054  0.6716 -0.9668
11952TIP3   OH257270   1.215   5.898  11.528 -0.1971 -0.1508  0.2765
11952TIP3    H157271   1.270   5.877  11.453 -0.5780  0.8566 -0.3103
11952TIP3    H257272   1.276   5.927  11.596  0.0963 -0.3980  0.1193
11953TIP3   OH257273   1.033   2.158  15.648  0.0311 -0.5100  0.3107
11953TIP3    H157274   1.054   2.218  15.720 -0.0466 -0.3190  0.1728
11953TIP3    H257275   0.977   2.209  15.590 -1.1586 -1.1351  0.8670
11954TIP3   OH257276   2.056   5.378  13.746 -0.2622 -0.0689  0.8742
11954TIP3    H157277   1.984   5.399  13.686 -0.5696 -1.0826  0.8781
11954TIP3    H257278   2.132   5.365  13.689 -0.7900 -2.1033  0.5765
11955TIP3   OH257279   4.268   1.455  11.744  0.1374  0.1911  0.4165
11955TIP3    H157280   4.207   1.527  11.759  0.6886  0.8237 -0.3068
11955TIP3    H257281   4.293   1.427  11.832 -2.2869 -1.0792  0.7786
11956TIP3   OH257282   1.386   4.489  14.672  0.0072  0.6241 -0.4860
11956TIP3    H157283   1.381   4.410  14.725  0.4753  1.9470  1.6574
11956TIP3    H257284   1.322   4.549  14.710  0.1986  1.5571 -1.5544
11957TIP3   OH257285   5.830   6.532   2.339 -0.0708 -0.1079 -0.1962
11957TIP3    H157286   5.748   6.561   2.379  0.7539 -0.6197  2.0314
11957TIP3    H257287   5.808   6.516   2.247 -2.4428 -0.1659  0.3144
11958TIP3   OH257288   1.184   2.234  12.001 -0.9818 -0.0839  0.0422
11958TIP3    H157289   1.138   2.309  12.039 -1.1706  0.1787 -0.6815
11958TIP3    H257290   1.263   2.224  12.054 -0.2258  1.5391 -0.7240
11959TIP3   OH257291   2.370   3.489   5.126 -0.1502 -0.0918 -0.2603
11959TIP3    H157292   2.439   3.544   5.088  1.1459 -2.5145 -1.7072
11959TIP3    H257293   2.415   3.407   5.147 -2.1075 -0.8591  1.2012
11960TIP3   OH257294   0.314   1.864   4.416  0.1962  0.4782  0.4052
11960TIP3    H157295   0.330   1.957   4.405 -0.9995  0.6266 -0.2203
11960TIP3    H257296   0.387   1.833   4.469  0.1011  1.9518  1.4510
11961TIP3   OH257297   4.086   4.953  11.527  0.2627  0.4220  0.0794
11961TIP3    H157298   4.114   4.865  11.551 -0.1636  0.3578  0.3500
11961TIP3    H257299   4.155   5.010  11.561  0.3560  0.2207  0.2298
11962TIP3   OH257300   1.847   6.112  16.661 -0.1035  0.2727 -0.3280
11962TIP3    H157301   1.898   6.123  16.581  1.0051  3.3158  0.6449
11962TIP3    H257302   1.787   6.187  16.661 -1.3467 -0.6764  0.8322
11963TIP3   OH257303   6.060   0.345  13.583  0.2134 -0.1283  0.6497
11963TIP3    H157304   6.080   0.277  13.518 -0.7760  0.2301 -0.0444
11963TIP3    H257305   6.129   0.410  13.571  0.5266 -0.4719  0.5543
11964TIP3   OH257306   2.658   1.305   5.929 -0.9776  0.2007 -0.2241
11964TIP3    H157307   2.620   1.385   5.891  1.1211  0.4694 -1.9517
11964TIP3    H257308   2.583   1.246   5.938 -2.8336  2.6436  2.2066
11965TIP3   OH257309   0.425   4.637  11.220  0.0928 -0.4394  0.2747
11965TIP3    H157310   0.339   4.652  11.181  0.6500 -0.5987 -1.0872
11965TIP3    H257311   0.421   4.678  11.306 -0.6805  1.3658 -0.5790
11966TIP3   OH257312   5.400   1.967   1.066  0.3857  0.1815 -0.0059
11966TIP3    H157313   5.316   2.008   1.091  0.6658  0.0876  1.1640
11966TIP3    H257314   5.394   1.956   0.971  0.2723  2.9345 -0.4078
11967TIP3   OH257315   2.858   1.824   6.145  0.1791  0.3514  0.8182
11967TIP3    H157316   2.949   1.832   6.171  0.3676 -2.0375  1.1277
11967TIP3    H257317   2.831   1.738   6.177 -1.5940  0.1526 -0.9687
11968TIP3   OH257318   5.583   0.473  15.546  0.3636 -0.7273  0.0474
11968TIP3    H157319   5.578   0.510  15.635  0.0873  0.2774 -0.3746
11968TIP3    H257320   5.677   0.461  15.531  0.3680 -1.9715  0.8887
11969TIP3   OH257321   4.130   4.622   2.740 -0.5957 -0.3168 -0.1126
11969TIP3    H157322   4.047   4.627   2.789 -1.2512 -0.4142 -1.1770
11969TIP3    H257323   4.138   4.529   2.718  1.4020 -0.9068  2.6037
11970TIP3   OH257324   2.924   3.054   0.167 -0.6541  0.5585 -0.1389
11970TIP3    H157325   2.999   3.114   0.172 -1.1707  1.3057 -0.9931
11970TIP3    H257326   2.848   3.112   0.159 -1.2236 -0.2077 -0.3890
11971TIP3   OH257327   0.566   6.114   0.097  0.2789 -0.2293 -0.1145
11971TIP3    H157328   0.509   6.183   0.063  0.1470 -0.1716  0.2158
11971TIP3    H257329   0.655   6.144   0.079  0.2956  0.8056  1.4445
11972TIP3   OH257330   0.927   6.576   0.732  0.2814 -0.4240 -0.6379
11972TIP3    H157331   0.982   6.592   0.808  0.5876 -0.7480 -0.7933
11972TIP3    H257332   0.847   6.538   0.768  1.0160 -2.0153 -0.6007
11973TIP3   OH257333   2.115   0.172  13.336  0.5785 -0.6032 -0.8419
11973TIP3    H157334   2.119   0.119  13.256  1.4852  1.1682 -2.0583
11973TIP3    H257335   2.077   0.255  13.307 -0.8382 -0.5540  0.9960
11974TIP3   OH257336   1.081   3.765  10.884  0.0988  0.1224 -0.2820
11974TIP3    H157337   1.149   3.767  10.817 -1.6346  0.7297 -2.1551
11974TIP3    H257338   1.039   3.680  10.873  0.0465  0.0719  0.2902
11975TIP3   OH257339   0.800   3.367  11.841  0.0906  0.0612 -0.1063
11975TIP3    H157340   0.793   3.446  11.894  0.6902 -0.2221  0.4061
11975TIP3    H257341   0.715   3.324  11.850 -0.7739  1.3594 -1.5714
11976TIP3   OH257342   3.413   1.185   2.609  0.4764 -0.0593 -0.1419
11976TIP3    H157343   3.460   1.262   2.641  0.9599  0.5459 -2.2008
11976TIP3    H257344   3.350   1.166   2.678  0.9392  1.6427  0.8090
11977TIP3   OH257345   6.515   1.226   5.653  0.2804 -0.2411 -0.0418
11977TIP3    H157346   6.516   1.316   5.684  0.1000  0.1384 -1.0775
11977TIP3    H257347   6.477   1.176   5.724 -4.2507  1.2031 -1.1324
11978TIP3   OH257348   5.586   0.346   3.786 -0.1091 -0.5373 -0.1202
11978TIP3    H157349   5.531   0.417   3.754  2.0820 -0.4830 -4.4643
11978TIP3    H257350   5.649   0.388   3.843 -1.3739  0.2107  0.7779
11979TIP3   OH257351   6.345   0.941   5.567  0.2823  0.0234  0.7528
11979TIP3    H157352   6.383   0.855   5.551 -2.5747 -1.6829  2.3524
11979TIP3    H257353   6.379   0.967   5.652 -0.0306 -0.2730  0.9731
11980TIP3   OH257354   6.587   6.008  11.570  0.3545 -0.3383  0.0311
11980TIP3    H157355   6.508   5.960  11.545 -0.3115  1.3358 -1.3247
11980TIP3    H257356   6.656   5.974  11.513 -0.4989  1.3810 -2.2005
11981TIP3   OH257357   5.776   4.843  10.895  0.4146  0.2282 -0.1927
11981TIP3    H157358   5.826   4.861  10.815 -1.0610 -1.3280 -1.5352
11981TIP3    H257359   5.685   4.836  10.865 -0.4276  1.3443  1.9226
11982TIP3   OH257360   5.870   3.085  13.788 -0.5750 -0.3879  0.0601
11982TIP3    H157361   5.878   2.992  13.805 -1.9698 -0.5142  0.1796
11982TIP3    H257362   5.879   3.094  13.693  0.3539 -0.5296  0.1266
11983TIP3   OH257363   3.957   5.633  14.390  0.4296 -0.2582 -0.0796
11983TIP3    H157364   3.929   5.564  14.450  0.8154  1.2414  1.9040
11983TIP3    H257365   4.008   5.586  14.323 -1.7007 -2.2318 -0.4432
11984TIP3   OH257366   6.014   5.193   2.828  0.3713  0.4743  0.0000
11984TIP3    H157367   6.008   5.142   2.909  0.6282 -0.3057 -0.4595
11984TIP3    H257368   5.989   5.282   2.854 -3.1932 -0.4199  0.2510
11985TIP3   OH257369   1.664   4.342  12.076  0.5508  0.2675  0.6406
11985TIP3    H157370   1.578   4.341  12.034  0.2933  1.6177  1.0871
11985TIP3    H257371   1.726   4.329  12.004 -0.0340 -1.5022  0.4194
11986TIP3   OH257372   1.487   3.215  13.483  0.1064 -0.7600 -0.1508
11986TIP3    H157373   1.504   3.129  13.443  1.5895  0.0610 -1.3772
11986TIP3    H257374   1.450   3.267  13.412  2.5034  0.6381 -0.4586
11987TIP3   OH257375   3.885   3.646  12.089 -0.4245  0.0507 -0.4965
11987TIP3    H157376   3.965   3.649  12.036 -1.0583 -0.8449 -1.5198
11987TIP3    H257377   3.852   3.557  12.078 -1.5617  0.4025 -0.0579
11988TIP3   OH257378   3.460   4.898   4.645 -0.4349  0.2838 -0.2848
11988TIP3    H157379   3.489   4.857   4.726 -3.3537 -0.6256  0.4381
11988TIP3    H257380   3.493   4.840   4.576  1.5941  0.7543  0.2411
11989TIP3   OH257381   0.879   3.371  15.152  0.0899  0.0037 -0.3458
11989TIP3    H157382   0.845   3.408  15.070 -0.6345 -0.7937 -0.4199
11989TIP3    H257383   0.959   3.421  15.169 -0.8212  1.5629 -0.4559
11990TIP3   OH257384   4.944   3.111  14.767 -0.1325 -0.6330 -0.0820
11990TIP3    H157385   5.029   3.122  14.723 -1.0043 -0.8361 -1.8934
11990TIP3    H257386   4.966   3.067  14.849  1.7209  1.0212  0.3916
11991TIP3   OH257387   2.954   2.261   5.760 -0.0900  0.2349  0.0948
11991TIP3    H157388   2.982   2.348   5.787 -0.5571  0.7084 -0.9253
11991TIP3    H257389   2.889   2.276   5.692  0.7496 -0.9224 -1.0142
11992TIP3   OH257390   2.531   4.820  14.924 -0.1719 -0.6827 -0.0362
11992TIP3    H157391   2.443   4.789  14.942  0.2064 -0.9640  1.5447
11992TIP3    H257392   2.540   4.899  14.978 -0.7117  1.6066 -3.0752
11993TIP3   OH257393   3.063   1.964  14.253 -0.3370  0.3436 -0.4115
11993TIP3    H157394   3.136   1.992  14.308 -0.6298 -0.8023  0.5957
11993TIP3    H257395   2.995   2.030  14.269 -0.8370 -0.5781  1.5400
11994TIP3   OH257396   2.875   6.390  14.185  0.1489 -0.0404 -0.0011
11994TIP3    H157397   2.883   6.317  14.125 -1.8906 -0.2697 -0.0454
11994TIP3    H257398   2.914   6.359  14.266  2.6660  0.1705 -1.0310
11995TIP3   OH257399   1.477   5.289  13.974 -0.5959  0.1635  0.1360
11995TIP3    H157400   1.572   5.296  13.983 -0.1847 -0.8000 -2.4380
11995TIP3    H257401   1.443   5.373  14.006  1.2295  0.9628  0.1022
11996TIP3   OH257402   6.184   0.961   5.902 -0.3191 -0.9667  0.1368
11996TIP3    H157403   6.171   1.048   5.939  0.0765  0.2775 -2.4322
11996TIP3    H257404   6.166   0.901   5.974 -1.4795  1.1983  1.7535
11997TIP3   OH257405   2.363   2.307  14.448 -0.2571  0.4372 -0.6524
11997TIP3    H157406   2.361   2.347  14.361 -0.2853  1.8127 -0.0394
11997TIP3    H257407   2.278   2.328  14.486 -0.9191 -1.6046 -0.8933
11998TIP3   OH257408   4.646   4.202   2.172  0.2879 -0.1586 -0.4485
11998TIP3    H157409   4.570   4.146   2.188  0.8211 -0.1891  2.6429
11998TIP3    H257410   4.705   4.148   2.120 -0.5091 -1.3362 -0.1692
11999TIP3   OH257411   5.443   2.873   4.145  0.2353 -0.4072 -0.3893
11999TIP3    H157412   5.393   2.794   4.163  0.0652  0.0279  1.1763
11999TIP3    H257413   5.395   2.917   4.074 -1.4104 -0.1947  0.7939
12000TIP3   OH257414   1.630   3.103   0.405 -0.6889 -0.6605  0.4228
12000TIP3    H157415   1.596   3.178   0.452 -0.6742 -1.0987  1.1532
12000TIP3    H257416   1.723   3.123   0.390 -0.4308 -0.9594  1.5224
12001TIP3   OH257417   6.266   2.159   4.600  0.2962  0.2045  0.1593
12001TIP3    H157418   6.303   2.224   4.659  0.5151  1.2085 -1.0208
12001TIP3    H257419   6.341   2.121   4.555  0.0932  0.1741 -0.1658
12002TIP3   OH257420   1.327   6.604   1.799 -0.0836 -0.1368 -0.2846
12002TIP3    H157421   1.418   6.596   1.825 -0.5771 -1.6567  1.1279
12002TIP3    H257422   1.304   6.517   1.765 -0.6847  0.5690 -1.7631
12003TIP3   OH257423   6.329   4.035   3.261 -0.1729  0.7165 -0.1634
12003TIP3    H157424   6.272   4.105   3.291  0.4805  1.5062 -0.7167
12003TIP3    H257425   6.302   3.958   3.312 -0.1815  1.6171  1.2519
12004TIP3   OH257426   2.561   1.999  13.759 -0.2693 -1.0673 -0.5372
12004TIP3    H157427   2.615   1.931  13.719 -1.0171 -1.8075 -0.3256
12004TIP3    H257428   2.473   1.960  13.762 -0.6755 -0.1446 -0.2729
12005TIP3   OH257429   2.202   5.624  15.775 -0.0561  0.3555 -0.1834
12005TIP3    H157430   2.245   5.553  15.726 -0.3649  0.3848 -0.5040
12005TIP3    H257431   2.147   5.668  15.710 -0.1204  0.6838  0.0900
12006TIP3   OH257432   2.609   6.124   4.093  0.3336  0.3036 -0.2135
12006TIP3    H157433   2.669   6.195   4.071  3.2691 -1.8589  0.1453
12006TIP3    H257434   2.599   6.075   4.012 -2.6839  1.6557 -0.7892
12007TIP3   OH257435   1.837   0.450   3.572 -0.6161  0.0866  0.6096
12007TIP3    H157436   1.911   0.403   3.531 -0.2348  0.6728  0.6174
12007TIP3    H257437   1.821   0.402   3.653 -0.4952 -0.2736  0.4269
12008TIP3   OH257438   2.346   1.596   3.517 -0.0540  0.3284 -0.1194
12008TIP3    H157439   2.432   1.554   3.520  0.3083  1.0552  0.0493
12008TIP3    H257440   2.329   1.611   3.424  0.8924  1.9049 -0.0837
12009TIP3   OH257441   4.205   5.483  11.525  0.1595 -0.1911 -0.1344
12009TIP3    H157442   4.154   5.442  11.455 -2.6170 -0.2956  1.8033
12009TIP3    H257443   4.271   5.417  11.548 -0.3299 -1.0614 -1.1445
12010TIP3   OH257444   1.482   3.781   0.991 -0.1141 -0.1627  0.1372
12010TIP3    H157445   1.395   3.750   1.016 -0.8538  1.8702  0.3209
12010TIP3    H257446   1.513   3.828   1.069  0.6612  0.0899 -0.3179
12011TIP3   OH257447   1.079   0.544  14.916  0.0784 -0.3775  0.4961
12011TIP3    H157448   1.131   0.464  14.914  0.1748 -0.2919 -0.8948
12011TIP3    H257449   1.133   0.610  14.874 -0.1047  0.3806  1.3998
12012TIP3   OH257450   3.670   1.038   2.615  0.1088  0.3454  0.3598
12012TIP3    H157451   3.624   0.993   2.686  1.5079 -0.3363  0.8763
12012TIP3    H257452   3.631   1.003   2.535  0.6165 -1.2173  0.7647
12013TIP3   OH257453   1.262   0.657   1.922  0.6301 -0.3062  0.1582
12013TIP3    H157454   1.244   0.661   1.828 -1.6132 -0.4964  0.5331
12013TIP3    H257455   1.266   0.563   1.941  3.0013 -0.3123 -0.0060
12014TIP3   OH257456   2.236   3.206   4.995 -0.3646 -0.6786  0.2617
12014TIP3    H157457   2.156   3.243   5.030 -0.1758 -0.0247  0.0161
12014TIP3    H257458   2.276   3.160   5.069 -0.3324  0.0695  0.7164
12015TIP3   OH257459   5.152   4.306   3.641  0.4382 -0.9751  0.0771
12015TIP3    H157460   5.095   4.352   3.703  1.8010 -2.3840  2.5577
12015TIP3    H257461   5.177   4.372   3.578 -1.2057  0.5171  0.9049
12016TIP3   OH257462   0.690   5.312  14.681  0.1875  0.0267  0.1014
12016TIP3    H157463   0.673   5.392  14.632 -0.7803  0.7488  1.5464
12016TIP3    H257464   0.730   5.253  14.618  2.7088  2.2604 -0.5566
12017TIP3   OH257465   5.764   5.940  15.545 -0.2244 -0.3442 -0.2281
12017TIP3    H157466   5.843   5.886  15.542  1.2931  1.7109  0.2911
12017TIP3    H257467   5.700   5.886  15.592  1.1389 -1.7396  0.1165
12018TIP3   OH257468   0.283   4.977  12.568 -1.0583 -0.3235 -0.2788
12018TIP3    H157469   0.263   4.988  12.661 -1.9114 -1.1477 -0.3495
12018TIP3    H257470   0.365   4.928  12.566 -1.8793 -1.7785  0.0735
12019TIP3   OH257471   3.214   6.587   4.933 -0.0050 -0.1703 -0.3288
12019TIP3    H157472   3.183   6.501   4.905 -0.2037 -0.2005 -0.0125
12019TIP3    H257473   3.206   6.586   5.028 -2.6593  1.2140 -0.4569
12020TIP3   OH257474   6.110   0.477  14.665 -0.6796  0.1596 -0.0062
12020TIP3    H157475   6.055   0.488  14.743  0.0434  3.5809  0.1800
12020TIP3    H257476   6.199   0.468  14.700 -0.4947  0.4519 -0.3896
12021TIP3   OH257477   0.013   6.295   6.321 -0.5865 -0.1172 -0.0828
12021TIP3    H157478   0.079   6.364   6.314 -0.0237 -0.4659  1.4176
12021TIP3    H257479  -0.064   6.338   6.358 -1.0177  0.1598 -1.2599
12022TIP3   OH257480   6.162   2.712   2.534  0.3738  0.5349 -0.4126
12022TIP3    H157481   6.081   2.742   2.574  0.2951  0.5715 -0.5971
12022TIP3    H257482   6.158   2.745   2.444  1.6755  2.6182  0.2347
12023TIP3   OH257483   0.910   5.674   6.276  0.4007 -0.1950  0.4192
12023TIP3    H157484   0.848   5.607   6.305 -0.6756  0.4167 -0.3980
12023TIP3    H257485   0.942   5.642   6.192 -1.0246  0.8150 -0.5714
12024TIP3   OH257486   2.481   2.890   5.585  0.1601  0.2699  0.0541
12024TIP3    H157487   2.514   2.971   5.624  0.2161  0.4887 -0.4421
12024TIP3    H257488   2.432   2.847   5.656  2.7336 -0.8129  1.3040
12025TIP3   OH257489   3.550   6.251   1.269  0.1368 -0.5325  0.7344
12025TIP3    H157490   3.508   6.268   1.185 -0.7460 -1.3600  0.9851
12025TIP3    H257491   3.483   6.272   1.334  0.7421 -0.1023  1.2231
12026TIP3   OH257492   6.167   2.491  13.443 -0.2774 -0.0554 -0.1796
12026TIP3    H157493   6.074   2.504  13.460 -0.2439  0.5315 -0.4067
12026TIP3    H257494   6.178   2.396  13.435 -0.7522 -0.1629  0.4056
12027TIP3   OH257495   4.308   3.823   0.827  0.1510 -0.1858 -0.5071
12027TIP3    H157496   4.380   3.773   0.866 -0.1223 -0.2031 -0.0158
12027TIP3    H257497   4.336   3.914   0.833 -0.5624 -0.0440  1.2031
12028TIP3   OH257498   4.273   0.957  10.668  0.0374  0.1044 -0.3036
12028TIP3    H157499   4.325   0.926  10.742 -0.0297 -1.7658 -0.9704
12028TIP3    H257500   4.334   0.957  10.594 -0.5535 -0.8559 -0.8181
12029TIP3   OH257501   3.258   6.221  11.403  0.1444 -0.1171  0.1135
12029TIP3    H157502   3.316   6.292  11.431 -0.9762  0.5605  0.8032
12029TIP3    H257503   3.297   6.190  11.321  2.2246 -0.6188  1.2091
12030TIP3   OH257504   2.124   2.067   1.173 -0.8468 -0.0721  0.4871
12030TIP3    H157505   2.074   2.087   1.093  2.4147  0.8568 -1.5328
12030TIP3    H257506   2.161   2.152   1.200  1.3842 -0.9687  0.4946
12031TIP3   OH257507   2.405   5.873   3.329  0.1518 -0.3380  0.4021
12031TIP3    H157508   2.389   5.793   3.378  1.1661  0.3103  1.8745
12031TIP3    H257509   2.380   5.943   3.389  0.7823  0.4756 -0.2514
12032TIP3   OH257510   2.652   4.508  15.605  0.1506 -0.3875  0.2981
12032TIP3    H157511   2.655   4.456  15.685  1.8707  1.1382  1.3315
12032TIP3    H257512   2.668   4.598  15.635 -1.4097  0.5743 -1.5346
12033TIP3   OH257513   6.409   4.409   4.911 -0.2663 -0.1288  0.4542
12033TIP3    H157514   6.485   4.453   4.872 -0.5128 -0.8220 -0.8634
12033TIP3    H257515   6.356   4.381   4.836 -1.8332  0.3219  1.3427
12034TIP3   OH257516   0.896   0.964  12.698 -0.0236  0.3856  0.3824
12034TIP3    H157517   0.866   0.939  12.611 -0.0832  1.3806  0.1018
12034TIP3    H257518   0.819   0.956  12.754 -1.0322  3.3171 -0.4068
12035TIP3   OH257519   4.965   6.658  11.645  0.0208 -0.3506 -0.2900
12035TIP3    H157520   4.920   6.603  11.710 -0.0824 -0.9966 -0.8977
12035TIP3    H257521   5.008   6.726  11.697 -1.3987  0.0988  0.3261
12036TIP3   OH257522   5.424   4.845  14.357  0.1167 -0.0565  0.1119
12036TIP3    H157523   5.372   4.829  14.278  0.2240  0.8778 -0.1475
12036TIP3    H257524   5.514   4.824  14.332 -0.0862 -1.6176  0.5457
12037TIP3   OH257525   0.984   5.750   2.088  0.2953  0.0788 -0.0519
12037TIP3    H157526   0.907   5.694   2.079 -0.3548  0.7757  0.9375
12037TIP3    H257527   1.058   5.693   2.068 -0.5608 -0.0570 -3.2994
12038TIP3   OH257528   3.073   3.991  11.502  0.2648 -0.4249  0.6085
12038TIP3    H157529   3.036   3.980  11.589  0.9121  0.8742  1.0729
12038TIP3    H257530   3.138   3.921  11.494 -1.5183 -2.1041  0.1654
12039TIP3   OH257531   5.565   5.450  16.255  0.5869  0.3317  0.1132
12039TIP3    H157532   5.515   5.423  16.332  0.0626 -1.1649 -0.7209
12039TIP3    H257533   5.504   5.500  16.202  0.7991  0.9241  0.4264
12040TIP3   OH257534   0.557   5.381  12.756  0.5635  0.1673  0.1755
12040TIP3    H157535   0.555   5.434  12.676 -0.1130 -1.2043 -0.7483
12040TIP3    H257536   0.626   5.421  12.809  1.5090  0.6851 -1.3762
12041TIP3   OH257537   3.717   6.397   0.314 -0.2024 -0.1705 -0.0188
12041TIP3    H157538   3.733   6.490   0.298 -1.0559 -0.1123 -0.6239
12041TIP3    H257539   3.771   6.376   0.390  0.4752  0.6707 -0.2478
12042TIP3   OH257540   0.375   4.942   1.963  0.0296 -0.0392  0.1992
12042TIP3    H157541   0.443   4.989   1.917 -0.9365 -0.0751 -1.3321
12042TIP3    H257542   0.293   4.985   1.937 -0.5826 -0.1876  1.7303
12043TIP3   OH257543   3.704   0.679  12.507  0.2318  0.0174 -0.6654
12043TIP3    H157544   3.719   0.753  12.565 -0.4598 -0.5824  0.3018
12043TIP3    H257545   3.661   0.613  12.561  1.5184 -1.4245 -1.2895
12044TIP3   OH257546   4.576   5.736  15.250 -0.1938 -0.5240 -0.2224
12044TIP3    H157547   4.669   5.756  15.240 -0.1860 -0.7907 -0.7192
12044TIP3    H257548   4.574   5.650  15.291 -0.2309 -0.0292  0.8656
12045TIP3   OH257549   5.616   0.535  16.652  0.1734  0.6917  0.3652
12045TIP3    H157550   5.617   0.622  16.691 -0.1392  0.2812  1.3257
12045TIP3    H257551   5.656   0.547  16.566 -1.0158  2.0136 -0.0518
12046TIP3   OH257552   6.360   4.160  16.976  0.3630 -0.0734 -0.3373
12046TIP3    H157553   6.362   4.172  17.071  1.0298 -0.9735 -0.2306
12046TIP3    H257554   6.267   4.161  16.953  0.2024  0.1785  0.3185
12047TIP3   OH257555   0.826   3.863   3.650  0.4897  0.5750 -0.0857
12047TIP3    H157556   0.890   3.893   3.585  0.1483  0.4781 -0.4729
12047TIP3    H257557   0.773   3.940   3.668  1.0895  0.8203  0.6973
12048TIP3   OH257558   0.567   0.118   5.415  0.6269 -0.6826  0.1627
12048TIP3    H157559   0.579   0.024   5.426  1.6946 -0.5214  0.4509
12048TIP3    H257560   0.607   0.157   5.493  1.0560  0.0651 -0.4164
12049TIP3   OH257561   4.101   1.271   5.532 -0.3628 -0.5424 -0.4093
12049TIP3    H157562   4.131   1.278   5.441  2.2877 -2.7232  0.1386
12049TIP3    H257563   4.022   1.218   5.528 -2.1482  2.0446 -1.6248
12050TIP3   OH257564   1.452   6.677  14.723 -0.1001 -0.0265  0.0637
12050TIP3    H157565   1.441   6.742  14.654  0.5863 -0.3714 -0.3820
12050TIP3    H257566   1.370   6.679  14.771  0.1859  1.7757  0.5801
12051TIP3   OH257567   1.343   4.022   0.342  0.3899 -0.3089 -0.5528
12051TIP3    H157568   1.281   3.980   0.403 -0.2795  1.0856 -0.2323
12051TIP3    H257569   1.412   4.056   0.398  0.2570  0.1497 -0.6620
12052TIP3   OH257570   1.803   1.076   4.881 -0.7688 -0.0351  0.1175
12052TIP3    H157571   1.836   1.068   4.792  1.2590  0.4870  0.7881
12052TIP3    H257572   1.802   0.986   4.915 -2.9312 -0.4478 -0.8281
12053TIP3   OH257573   6.261   4.470  14.654 -0.5488 -0.3351  0.4005
12053TIP3    H157574   6.195   4.448  14.720  1.1340  0.3474  2.4244
12053TIP3    H257575   6.286   4.386  14.616 -1.6174 -0.7287  0.5204
12054TIP3   OH257576   2.252   2.822  11.490 -0.5135 -1.0038 -0.1310
12054TIP3    H157577   2.273   2.796  11.401 -0.6366 -0.4237 -0.3370
12054TIP3    H257578   2.178   2.767  11.515 -1.4998 -0.0967 -0.9625
12055TIP3   OH257579   6.789   1.881  13.192 -0.0660 -0.0565 -0.5501
12055TIP3    H157580   6.754   1.820  13.258  0.4917  1.7349  1.5016
12055TIP3    H257581   6.868   1.838  13.159 -0.8126 -1.3592 -0.7026
12056TIP3   OH257582   3.694   2.572  13.677  0.0331 -0.4201 -0.4176
12056TIP3    H157583   3.645   2.511  13.733  2.1988 -1.2834  0.6496
12056TIP3    H257584   3.656   2.657  13.696 -3.2608 -1.3351 -2.1353
12057TIP3   OH257585   3.582   1.127  11.285  0.6292  0.2297 -0.4008
12057TIP3    H157586   3.504   1.166  11.324  1.1306  2.4552 -1.4641
12057TIP3    H257587   3.552   1.092  11.201  0.4565 -0.5060 -0.0441
12058TIP3   OH257588   0.932   0.803   3.367 -0.1831 -0.4913  0.1331
12058TIP3    H157589   1.028   0.811   3.373 -0.2194 -0.0716  0.1871
12058TIP3    H257590   0.904   0.789   3.457 -0.2939  0.8671  0.3391
12059TIP3   OH257591   0.882   4.634   5.310  0.2791 -0.3833  0.4252
12059TIP3    H157592   0.912   4.701   5.372  0.7982 -1.0674  0.9362
12059TIP3    H257593   0.938   4.647   5.233 -1.1307  1.2110 -0.3927
12060TIP3   OH257594   2.646   4.489   5.834  0.1997  0.4007  0.3066
12060TIP3    H157595   2.691   4.423   5.887 -0.3949 -0.3005 -0.0323
12060TIP3    H257596   2.553   4.476   5.855  0.1022  1.3996  0.5291
12061TIP3   OH257597   0.472   1.201   0.783 -0.2261 -0.6038 -0.2192
12061TIP3    H157598   0.559   1.229   0.813  0.3262 -2.2137 -0.2102
12061TIP3    H257599   0.449   1.263   0.713  0.6432  0.2175  0.2033
12062TIP3   OH257600   4.254   5.087  12.343  0.3197  0.2881 -0.1132
12062TIP3    H157601   4.275   4.998  12.373  1.6344  0.4380 -0.5202
12062TIP3    H257602   4.159   5.094  12.354 -0.0653 -1.7047 -1.5367
12063TIP3   OH257603   4.493   3.936  13.753 -0.5916  0.3629 -0.3456
12063TIP3    H157604   4.525   3.857  13.797 -1.8204  0.0758  0.0974
12063TIP3    H257605   4.432   3.902  13.687 -2.2425  0.9597  0.8035
12064TIP3   OH257606   3.243   6.403   2.435  0.3434 -0.1497 -0.0236
12064TIP3    H157607   3.329   6.386   2.396  0.6285  0.3310  0.3718
12064TIP3    H257608   3.207   6.317   2.455  0.5481 -0.3666 -0.5900
12065TIP3   OH257609   3.695   2.007   4.691  0.4199  0.0114 -0.8408
12065TIP3    H157610   3.724   2.095   4.714  0.7307  0.6409 -3.3710
12065TIP3    H257611   3.629   2.020   4.623 -0.4530 -1.6787 -0.3780
12066TIP3   OH257612   5.661   4.132  13.593  0.1841  0.1665 -0.6965
12066TIP3    H157613   5.572   4.110  13.566  0.3589  0.0823 -1.2165
12066TIP3    H257614   5.695   4.184  13.521  1.0654 -1.0532 -1.1922
12067TIP3   OH257615   0.517   0.352   0.373 -0.3282 -0.4385 -0.2526
12067TIP3    H157616   0.463   0.386   0.444 -0.4121 -0.0920 -0.4807
12067TIP3    H257617   0.477   0.268   0.351 -0.7728 -0.1852 -0.4176
12068TIP3   OH257618   6.792   2.769  14.880  0.4064 -0.3487  0.1931
12068TIP3    H157619   6.742   2.766  14.798 -1.7492  1.1345  1.3338
12068TIP3    H257620   6.728   2.747  14.947  2.0885 -1.3767  1.5397
12069TIP3   OH257621   4.228   6.758   2.761 -0.1503  0.5172  0.0306
12069TIP3    H157622   4.190   6.773   2.847  1.4837  0.0783  0.8927
12069TIP3    H257623   4.295   6.826   2.752  0.6174 -0.2482 -0.2684
12070TIP3   OH257624   1.545   1.450   1.430 -0.5439 -0.1763  0.2345
12070TIP3    H157625   1.639   1.459   1.419 -0.2784 -1.3096  1.3092
12070TIP3    H257626   1.510   1.537   1.413  0.6427  0.1436 -0.6506
12071TIP3   OH257627   0.442   0.966   5.687  0.6601  0.0324 -0.6372
12071TIP3    H157628   0.366   1.001   5.641 -0.4835 -0.9916  0.3991
12071TIP3    H257629   0.504   1.039   5.690 -0.7935  1.3121 -0.3720
12072TIP3   OH257630   5.015   3.209   5.912 -0.2428 -0.6778  0.0984
12072TIP3    H157631   5.092   3.154   5.900  0.7755  0.7415 -0.1808
12072TIP3    H257632   5.024   3.243   6.001  1.6437  2.5248 -1.1058
12073TIP3   OH257633   3.090   5.384   4.313  0.0102  0.2945  0.3236
12073TIP3    H157634   3.122   5.302   4.275  0.3871  0.0778  1.0946
12073TIP3    H257635   2.995   5.381   4.301  0.0598 -0.0817  0.0194
12074TIP3   OH257636   2.292   6.184   0.101 -0.0552  0.2519 -0.1109
12074TIP3    H157637   2.328   6.211   0.185 -2.4804  1.0374  0.7484
12074TIP3    H257638   2.289   6.088   0.105  2.6387  0.0664 -0.6024
12075TIP3   OH257639   5.057   3.507   2.176 -0.2101 -0.0056 -0.2827
12075TIP3    H157640   5.102   3.591   2.164 -2.2750  1.0454 -1.1267
12075TIP3    H257641   4.969   3.522   2.143 -0.6771 -2.5124 -0.3714
12076TIP3   OH257642   1.691   4.162  12.285  0.2078 -0.9569  0.3875
12076TIP3    H157643   1.691   4.217  12.207 -0.3638 -2.3772 -0.6589
12076TIP3    H257644   1.782   4.160  12.313  0.0114  2.0687  1.6614
12077TIP3   OH257645   5.849   0.729  16.938  0.1172  0.2552  0.4373
12077TIP3    H157646   5.797   0.800  16.900 -0.9970 -0.9658 -0.3997
12077TIP3    H257647   5.891   0.769  17.015 -0.0136  1.9531 -0.3287
12078TIP3   OH257648   2.868   2.599   4.087  0.2889 -0.2412  0.0907
12078TIP3    H157649   2.871   2.693   4.069 -1.5382 -0.1730 -0.0412
12078TIP3    H257650   2.791   2.588   4.143  0.6790 -1.6190  0.3736
12079TIP3   OH257651   5.360   6.142   2.079 -0.2249 -0.5958  0.0663
12079TIP3    H157652   5.430   6.206   2.089  0.9306 -1.5046 -1.7705
12079TIP3    H257653   5.282   6.186   2.114  1.1382  0.5871  1.7459
12080TIP3   OH257654   6.384   2.359   4.775  0.1893 -0.2790 -0.1433
12080TIP3    H157655   6.378   2.368   4.680 -0.0564  1.6382  0.0179
12080TIP3    H257656   6.328   2.428   4.809  0.1935 -1.0072  1.4161
12081TIP3   OH257657   6.734   2.227  13.529  0.4152  0.2165  0.3497
12081TIP3    H157658   6.764   2.196  13.614  1.5220 -0.2908 -0.2075
12081TIP3    H257659   6.663   2.167  13.505  0.7054 -0.1926  0.5061
12082TIP3   OH257660   6.430   0.222  11.716  0.6149  0.1225  0.0056
12082TIP3    H157661   6.493   0.210  11.787 -0.5701 -1.0470  0.8777
12082TIP3    H257662   6.361   0.277  11.753  0.3460  0.1181 -0.4731
12083TIP3   OH257663   2.089   4.113   1.176 -0.4089 -0.0168  0.3397
12083TIP3    H157664   2.155   4.095   1.243 -1.9304 -0.1074  1.8895
12083TIP3    H257665   2.108   4.050   1.107 -0.6677 -2.1710  2.0902
12084TIP3   OH257666   6.321   0.095   2.403  0.3740 -0.0485 -0.1555
12084TIP3    H157667   6.352   0.185   2.405  2.9376 -0.8465 -0.2515
12084TIP3    H257668   6.251   0.092   2.468  2.4318  1.2793  2.2874
12085TIP3   OH257669   2.355   1.369   0.327 -0.1728 -0.3835 -0.0695
12085TIP3    H157670   2.363   1.280   0.292  0.6096 -0.9274  1.4334
12085TIP3    H257671   2.445   1.395   0.348 -0.6167 -0.1745  1.7316
12086TIP3   OH257672   1.423   6.036  14.880 -0.4736  0.3119 -0.2059
12086TIP3    H157673   1.438   5.976  14.953  0.1948  1.0660  0.2925
12086TIP3    H257674   1.344   6.083  14.902 -0.3481  0.4416 -0.0323
12087TIP3   OH257675   6.399   2.607  13.260 -0.8225  0.5406 -0.0170
12087TIP3    H157676   6.474   2.548  13.267 -0.1477  1.4955  1.2464
12087TIP3    H257677   6.325   2.556  13.293 -0.2146  0.4181  1.2192
12088TIP3   OH257678   1.944   0.346  13.515 -0.0510  0.2642  0.4387
12088TIP3    H157679   1.950   0.253  13.534  1.4182  0.1960 -0.1957
12088TIP3    H257680   1.850   0.363  13.506 -0.3350 -1.1697  0.4657
12089TIP3   OH257681   1.413   6.155   0.548  0.4233  0.4122  0.0817
12089TIP3    H157682   1.464   6.202   0.482  0.2973  0.3560 -0.0547
12089TIP3    H257683   1.439   6.064   0.539 -0.6828  0.1703 -0.8968
12090TIP3   OH257684   6.207   3.913  15.712 -0.1281  0.5516  0.0216
12090TIP3    H157685   6.211   3.918  15.617 -0.2837 -1.6586 -0.1557
12090TIP3    H257686   6.115   3.899  15.732  0.0795 -0.5019  0.3507
12091TIP3   OH257687   6.336   2.246  15.947 -0.3094  0.2497  0.2123
12091TIP3    H157688   6.244   2.225  15.934 -0.1143 -1.0764  0.8574
12091TIP3    H257689   6.344   2.336  15.915 -1.7179  0.2285 -0.2843
12092TIP3   OH257690   1.869   6.698   4.244  0.2733 -0.9479 -0.0457
12092TIP3    H157691   1.916   6.707   4.327 -0.4257 -0.2277  0.2848
12092TIP3    H257692   1.779   6.679   4.270 -0.0839 -0.0933 -0.6208
12093TIP3   OH257693   1.121   4.725  13.001 -0.0501  0.0349  0.4199
12093TIP3    H157694   1.131   4.798  13.061 -2.0105 -0.0413  0.8967
12093TIP3    H257695   1.127   4.647  13.057  0.5930 -0.1331  0.1288
12094TIP3   OH257696   5.641   4.873   2.166  0.1713 -0.0717  0.0334
12094TIP3    H157697   5.664   4.807   2.101  0.0694  1.8505 -2.0725
12094TIP3    H257698   5.567   4.835   2.213  0.6902 -1.8034 -0.4780
12095TIP3   OH257699   0.547   5.117  12.684  0.6914 -0.3619  0.1682
12095TIP3    H157700   0.542   5.209  12.710 -1.4006  0.1444 -1.7170
12095TIP3    H257701   0.641   5.097  12.685  1.2903  2.0809 -0.3008
12096TIP3   OH257702   0.707   2.964  11.590 -0.5057  0.4126  0.2263
12096TIP3    H157703   0.726   3.056  11.571  0.6476 -0.0848 -1.2708
12096TIP3    H257704   0.616   2.952  11.566  0.1977  0.4463 -2.8077
12097TIP3   OH257705   4.649   1.546  12.198  0.9043  0.5039 -0.4393
12097TIP3    H157706   4.663   1.455  12.224 -1.6507 -0.3895 -1.8081
12097TIP3    H257707   4.698   1.555  12.116 -1.3444 -0.7330 -2.0342
12098TIP3   OH257708   5.714   2.418   4.706  0.0131 -0.3065 -0.4954
12098TIP3    H157709   5.684   2.330   4.727 -0.6944 -0.0282 -0.2893
12098TIP3    H257710   5.637   2.473   4.720  0.8276  0.5570  0.8276
12099TIP3   OH257711   5.493   5.824   2.414 -0.0870 -0.2885  0.2473
12099TIP3    H157712   5.450   5.743   2.386  0.6218 -0.5716 -0.0633
12099TIP3    H257713   5.582   5.817   2.378  0.3298  0.1064  1.1586
12100TIP3   OH257714   2.090   6.686  16.623  0.4589  0.0743  0.0907
12100TIP3    H157715   2.150   6.755  16.650 -1.0642  0.8694  1.6749
12100TIP3    H257716   2.087   6.692  16.527  2.0376  0.7066  0.0596
12101TIP3   OH257717   4.915   4.798  12.183 -0.3845  0.0038 -0.1114
12101TIP3    H157718   4.943   4.721  12.133 -1.1049  0.5722 -1.4689
12101TIP3    H257719   4.914   4.869  12.119  0.9951  1.3502  1.2764
12102TIP3   OH257720   5.745   1.272  16.369 -0.0169 -0.5369 -0.0429
12102TIP3    H157721   5.739   1.357  16.325  0.1032 -0.8630 -0.7106
12102TIP3    H257722   5.837   1.263  16.393 -0.1678 -0.1543  0.7099
12103TIP3   OH257723   5.089   2.840   3.700  0.4984  0.3488  0.1674
12103TIP3    H157724   5.040   2.918   3.673  1.1507  0.7367  0.0927
12103TIP3    H257725   5.115   2.797   3.619 -1.1130 -0.7673  0.1938
12104TIP3   OH257726   4.915   6.274  15.077  0.0801 -0.5320 -0.9154
12104TIP3    H157727   4.830   6.254  15.038  0.2479 -1.3646 -0.8896
12104TIP3    H257728   4.945   6.190  15.111  0.8242 -0.2051 -0.7473
12105TIP3   OH257729   6.817   5.355   2.936 -0.0241 -0.2807  0.0727
12105TIP3    H157730   6.896   5.373   2.885 -0.3168 -1.2471 -0.7588
12105TIP3    H257731   6.772   5.439   2.939  0.3567 -0.0393 -0.6574
12106TIP3   OH257732   6.024   6.491  14.194  0.2587 -0.6251  0.1951
12106TIP3    H157733   6.107   6.480  14.148  2.2013  2.0638  2.6939
12106TIP3    H257734   6.034   6.439  14.274 -0.8202 -0.9157  0.1496
12107TIP3   OH257735   5.226   0.970   6.500 -0.6705 -0.0444 -0.5216
12107TIP3    H157736   5.190   1.044   6.548 -0.1941 -1.1721  1.7343
12107TIP3    H257737   5.316   0.997   6.479 -0.1291 -0.3257  1.2531
12108TIP3   OH257738   4.348   2.142   3.492 -0.1553 -0.4640  0.2610
12108TIP3    H157739   4.307   2.068   3.536  2.2987 -1.0241  1.7481
12108TIP3    H257740   4.410   2.103   3.431 -0.8337  0.3713 -1.0047
12109TIP3   OH257741   5.440   5.071   3.860  0.0868 -0.2803  0.1940
12109TIP3    H157742   5.507   5.128   3.820 -1.1423  2.0846  1.3090
12109TIP3    H257743   5.483   5.036   3.938  0.3926  0.3875  0.3377
12110TIP3   OH257744   6.020   1.342   0.589 -0.2943  0.0798  0.1822
12110TIP3    H157745   6.096   1.327   0.533  0.2663 -1.7898  1.3324
12110TIP3    H257746   6.031   1.432   0.621  1.1487  0.0348 -0.1014
12111TIP3   OH257747   5.169   1.026  12.455  0.1278  0.2069  0.0691
12111TIP3    H157748   5.143   1.113  12.425 -1.4392 -1.0327 -2.5804
12111TIP3    H257749   5.109   1.006  12.527  1.2272  1.6585  1.4694
12112TIP3   OH257750   6.537   4.069  13.565  0.6155 -0.0824 -0.1704
12112TIP3    H157751   6.446   4.091  13.545  0.8133 -0.6438 -1.8289
12112TIP3    H257752   6.583   4.152  13.561  0.5847 -0.1200 -1.8463
12113TIP3   OH257753   6.578   0.117   2.659  0.1209  0.2663 -0.1800
12113TIP3    H157754   6.641   0.076   2.718 -0.0397 -1.4440 -1.1060
12113TIP3    H257755   6.631   0.170   2.600  0.7021 -0.8669 -0.7194
12114TIP3   OH257756   5.992   2.534  10.649 -0.3933 -0.3781  0.1978
12114TIP3    H157757   6.051   2.528  10.574  0.5140  0.2353  0.8504
12114TIP3    H257758   5.968   2.626  10.654 -0.8624 -0.5054  0.3620
12115TIP3   OH257759   6.700   0.931   1.960  0.1388  0.3878  0.0723
12115TIP3    H157760   6.629   0.945   1.898  0.6940 -1.6186 -1.1292
12115TIP3    H257761   6.689   1.000   2.025 -1.7199  1.3128 -1.1184
12116TIP3   OH257762   4.689   4.229   0.031 -0.2441  0.5431 -0.0579
12116TIP3    H157763   4.617   4.170   0.010 -1.3733  1.9449 -0.2822
12116TIP3    H257764   4.749   4.221  -0.043 -0.2016 -0.5423  0.0705
12117TIP3   OH257765   3.010   3.282  11.399 -0.1807  0.6116 -0.7976
12117TIP3    H157766   3.050   3.197  11.416 -1.4190 -0.3681 -2.4283
12117TIP3    H257767   2.949   3.265  11.327 -1.8011  2.4996  0.0480
12118TIP3   OH257768   3.204   1.383  15.849  0.3334 -0.2796  0.3628
12118TIP3    H157769   3.178   1.463  15.894 -0.8504 -1.5767  2.1646
12118TIP3    H257770   3.123   1.351  15.808  1.2400  0.4967 -2.2068
12119TIP3   OH257771   5.918   2.814   4.944  0.2311 -0.0295  0.6076
12119TIP3    H157772   5.827   2.785   4.938  0.6785 -1.1337 -1.8397
12119TIP3    H257773   5.954   2.764   5.017 -0.1386 -2.6006 -0.8624
12120TIP3   OH257774   1.429   6.056  12.552 -0.2131  0.0914  0.0345
12120TIP3    H157775   1.432   5.994  12.479  0.4846 -0.7671  0.7582
12120TIP3    H257776   1.452   6.140  12.514 -2.4596  0.2106 -1.2339
12121TIP3   OH257777   2.783   0.768   3.953 -0.6091  0.1399  0.1636
12121TIP3    H157778   2.721   0.838   3.976 -0.9058  0.5879 -1.7984
12121TIP3    H257779   2.733   0.709   3.897  1.2695  1.9638 -3.8343
12122TIP3   OH257780   1.658   3.875  13.732  0.3764 -0.3285  0.0887
12122TIP3    H157781   1.632   3.935  13.802 -2.3661 -1.7320  0.4123
12122TIP3    H257782   1.687   3.797  13.778 -0.0393 -0.7264 -0.3192
12123TIP3   OH257783   1.546   5.540   4.901  0.3859  0.6735 -0.0628
12123TIP3    H157784   1.569   5.630   4.878 -0.0764  0.3004 -2.2353
12123TIP3    H257785   1.488   5.512   4.830  2.1926 -2.0198 -0.6004
12124TIP3   OH257786   2.097   3.809  14.991  0.7964 -0.9559 -0.3283
12124TIP3    H157787   2.106   3.755  14.913 -2.5616 -1.7521 -0.3159
12124TIP3    H257788   2.120   3.750  15.063 -1.3260 -1.9707 -0.4209
12125TIP3   OH257789   5.451   1.003  16.901  0.7719  0.5303 -0.2276
12125TIP3    H157790   5.378   1.016  16.840  1.5131  0.3491 -1.1747
12125TIP3    H257791   5.416   1.029  16.986 -1.2218 -1.9985 -0.1627
12126TIP3   OH257792   0.034   3.751  14.378 -0.2735  0.4963  0.4942
12126TIP3    H157793   0.009   3.815  14.445 -2.2305 -0.5038  0.7889
12126TIP3    H257794  -0.000   3.788  14.296 -3.3889 -1.0677  0.9538
12127TIP3   OH257795   5.589   5.697   3.281 -0.2851 -0.3819  0.4393
12127TIP3    H157796   5.588   5.634   3.209 -0.5871 -0.3031  0.3716
12127TIP3    H257797   5.655   5.761   3.256 -0.3527 -0.3832  0.2550
12128TIP3   OH257798   6.219   5.064  15.549  0.2093  0.2564 -0.5616
12128TIP3    H157799   6.311   5.086  15.541  0.1884 -0.0035 -1.5979
12128TIP3    H257800   6.179   5.095  15.468 -0.4072 -0.6804 -0.6349
12129TIP3   OH257801   6.801   1.523   1.186 -0.1999  0.2095 -0.0625
12129TIP3    H157802   6.736   1.523   1.255 -0.0739 -0.5741  0.0683
12129TIP3    H257803   6.790   1.438   1.143 -0.4779  0.7974 -1.1941
12130TIP3   OH257804   4.432   2.144   4.301  0.2382 -0.3243 -0.0784
12130TIP3    H157805   4.445   2.130   4.395  1.2564  1.6307  0.1275
12130TIP3    H257806   4.338   2.157   4.292  0.2656  0.7587  0.9043
12131TIP3   OH257807   3.997   6.111   5.081 -0.0080  0.3591 -0.1659
12131TIP3    H157808   3.957   6.052   5.016  0.1572  0.6596 -0.5486
12131TIP3    H257809   4.062   6.057   5.125  0.2705  0.2984 -0.6392
12132TIP3   OH257810   3.476   6.216  14.254  0.5363 -0.4683  0.2551
12132TIP3    H157811   3.443   6.164  14.328 -1.0520  0.5058  0.2936
12132TIP3    H257812   3.543   6.273  14.292 -1.3977  1.2079  1.4066
12133TIP3   OH257813   0.970   6.304   2.187  0.0886  0.3622  0.5548
12133TIP3    H157814   1.013   6.342   2.263  1.7188  0.3503 -0.3090
12133TIP3    H257815   1.000   6.213   2.184  2.7001  1.1567 -1.8287
12134TIP3   OH257816   5.897   3.494   0.236  0.3806 -0.2498  0.1688
12134TIP3    H157817   5.988   3.487   0.208  0.0132 -1.1573 -0.9182
12134TIP3    H257818   5.849   3.440   0.173 -1.0273  0.9740  0.1377
12135TIP3   OH257819   5.097   4.323   5.307  0.0015  0.7538 -0.0659
12135TIP3    H157820   5.076   4.233   5.328 -1.8455  0.9544 -0.8796
12135TIP3    H257821   5.050   4.375   5.372 -2.2875  1.2205 -1.9800
12136TIP3   OH257822   5.193   0.447  16.201 -0.0242  0.3648  0.0441
12136TIP3    H157823   5.177   0.364  16.245 -1.3909  0.6976  0.2485
12136TIP3    H257824   5.284   0.444  16.174  0.1350 -0.9004  0.6725
12137TIP3   OH257825   6.266   4.480  16.089  0.1865  0.4035  0.5868
12137TIP3    H157826   6.317   4.471  16.170 -0.1197  0.3490  0.7768
12137TIP3    H257827   6.285   4.400  16.040 -1.2174 -0.5640  1.5194
12138TIP3   OH257828   3.678   2.752  12.787  0.1275 -0.3249 -1.0038
12138TIP3    H157829   3.686   2.737  12.881 -0.7860  2.1754 -0.4501
12138TIP3    H257830   3.765   2.781  12.760 -0.3468  1.9307 -0.2570
12139TIP3   OH257831   2.757   1.434   0.813  0.3773 -0.3352 -0.0757
12139TIP3    H157832   2.796   1.452   0.727 -2.0455  1.2795 -0.9432
12139TIP3    H257833   2.804   1.491   0.873  0.0527  0.8916 -0.9346
12140TIP3   OH257834   6.228   1.497   4.864  0.2147  0.0893  0.1612
12140TIP3    H157835   6.225   1.426   4.928 -1.5979 -0.1810 -0.1797
12140TIP3    H257836   6.280   1.461   4.792 -0.2508 -0.7086  0.2157
12141TIP3   OH257837   5.739   4.839   4.226 -0.5880  0.0492 -0.0997
12141TIP3    H157838   5.711   4.748   4.212 -0.5934 -0.3565  2.1446
12141TIP3    H257839   5.779   4.838   4.313 -0.1217  2.1100 -0.2461
12142TIP3   OH257840   3.490   0.160   0.666  0.0317 -0.0557 -0.7903
12142TIP3    H157841   3.421   0.132   0.606 -0.8755 -1.0545  0.6747
12142TIP3    H257842   3.558   0.094   0.657 -0.8526 -1.1870  0.5126
12143TIP3   OH257843   0.310   6.221   4.704 -0.1304 -0.3322  0.1653
12143TIP3    H157844   0.364   6.269   4.641  0.3419 -0.8512  0.1642
12143TIP3    H257845   0.312   6.275   4.783 -0.7256  0.3220 -0.2572
12144TIP3   OH257846   2.588   5.156  15.970 -1.5433  0.3945 -0.3908
12144TIP3    H157847   2.513   5.097  15.965  0.6345 -2.5820  0.0109
12144TIP3    H257848   2.628   5.138  16.055  0.2997  1.0171 -1.0784
12145TIP3   OH257849   2.429   6.325  16.971  0.1423 -0.3800  0.2764
12145TIP3    H157850   2.371   6.263  17.015  0.6632 -0.7716  0.4131
12145TIP3    H257851   2.515   6.312  17.012  0.5689 -0.5417 -0.6508
12146TIP3   OH257852   4.293   6.204   2.686  0.0247 -0.1740  0.1320
12146TIP3    H157853   4.354   6.158   2.742 -1.1087  0.0221  1.5811
12146TIP3    H257854   4.218   6.145   2.678 -0.4869  0.4632  0.1352
12147TIP3   OH257855   1.876   2.369  16.168 -0.1841  0.0968  0.2376
12147TIP3    H157856   1.811   2.399  16.232  1.0114  0.9264  1.0987
12147TIP3    H257857   1.882   2.440  16.105 -1.3926 -0.7396 -0.8639
12148TIP3   OH257858   2.722   0.798  14.782 -0.0465 -0.1902 -0.5729
12148TIP3    H157859   2.762   0.880  14.811  1.8028 -0.9963 -0.7461
12148TIP3    H257860   2.628   0.818  14.775  0.3793  1.9166 -0.6985
12149TIP3   OH257861   1.403   2.269   4.862 -0.1227  0.0225  0.4075
12149TIP3    H157862   1.344   2.327   4.813 -0.1197 -0.1550  0.1950
12149TIP3    H257863   1.351   2.240   4.937 -0.0228  0.5533  0.6935
12150TIP3   OH257864   0.296   2.675   1.028 -0.2022 -0.5931  0.0150
12150TIP3    H157865   0.293   2.758   1.075 -0.0997 -0.9973  0.7402
12150TIP3    H257866   0.231   2.685   0.958 -1.4670 -0.5314  1.1621
12151TIP3   OH257867   2.220   0.458   1.916 -0.4884 -0.5258  0.5367
12151TIP3    H157868   2.139   0.495   1.880 -0.8298  0.1993  1.9881
12151TIP3    H257869   2.276   0.534   1.934  0.7490 -1.0405 -0.9041
12152TIP3   OH257870   1.876   4.679  16.704 -0.2605  0.3100 -0.2172
12152TIP3    H157871   1.782   4.698  16.705 -0.2342  0.4393 -0.1430
12152TIP3    H257872   1.881   4.585  16.720 -0.3809  0.2897 -0.2949
12153TIP3   OH257873   2.707   1.390   6.464 -0.0516  0.1791  0.7222
12153TIP3    H157874   2.784   1.357   6.509  1.9850  2.2898 -0.9704
12153TIP3    H257875   2.708   1.346   6.379 -0.3229  0.6755  0.4544
12154TIP3   OH257876   1.836   1.734  10.519  0.1254 -0.2657 -1.0167
12154TIP3    H157877   1.804   1.644  10.527 -1.9002  0.5130  0.1690
12154TIP3    H257878   1.859   1.759  10.609 -1.5330  1.1414 -0.9382
12155TIP3   OH257879   2.297   3.570  15.831 -0.3746 -0.1564 -0.1722
12155TIP3    H157880   2.371   3.618  15.796 -1.0064  0.2743 -0.9526
12155TIP3    H257881   2.326   3.538  15.916  0.1935  1.2576  0.1798
12156TIP3   OH257882   4.077   6.132   2.400  0.2522  0.2590  0.0628
12156TIP3    H157883   4.139   6.205   2.400 -0.3444  0.7784 -0.8090
12156TIP3    H257884   4.125   6.060   2.359  0.8139  0.1747  0.8465
12157TIP3   OH257885   2.454   4.986  12.442 -0.4063  0.1905  0.1836
12157TIP3    H157886   2.527   4.937  12.481  0.3016  1.3425  0.3705
12157TIP3    H257887   2.389   4.920  12.421  0.6721 -0.8705  0.0742
12158TIP3   OH257888   5.674   0.387  13.759  0.2625 -0.1937  0.0448
12158TIP3    H157889   5.683   0.390  13.854  0.9690 -1.0371  0.0211
12158TIP3    H257890   5.729   0.313  13.732 -1.0641 -0.8712 -0.8889
12159TIP3   OH257891   2.717   4.460  14.337  0.2613  0.1171  0.5055
12159TIP3    H157892   2.809   4.484  14.326  0.4103 -1.5132 -3.9363
12159TIP3    H257893   2.670   4.543  14.339  1.6795  0.9388  1.5992
12160TIP3   OH257894   6.516   0.256  11.459  0.3427  0.0032 -0.0977
12160TIP3    H157895   6.492   0.244  11.552  0.7267  0.5283  0.0701
12160TIP3    H257896   6.461   0.193  11.413 -0.7159  0.5565  0.3691
12161TIP3   OH257897   4.723   3.664  13.641  0.4906 -0.0660 -0.2078
12161TIP3    H157898   4.679   3.747  13.618 -1.7221 -0.6989  1.3767
12161TIP3    H257899   4.731   3.667  13.736 -1.7341 -2.5246  0.1784
12162TIP3   OH257900   4.890   5.540   0.229 -1.1961  0.1107 -0.1238
12162TIP3    H157901   4.881   5.635   0.237 -0.8033  0.2054 -0.7420
12162TIP3    H257902   4.943   5.514   0.304 -2.7011  0.1445  0.9947
12163TIP3   OH257903   2.938   1.727   1.294 -0.3757 -0.1094  0.0683
12163TIP3    H157904   2.866   1.712   1.355  1.3157 -0.6920  2.0501
12163TIP3    H257905   2.915   1.807   1.247 -1.6190  0.5515  1.7187
12164TIP3   OH257906   2.917   2.193   6.124 -0.2303 -0.1849 -0.2579
12164TIP3    H157907   2.966   2.222   6.200  0.4836  3.2051 -1.8324
12164TIP3    H257908   2.974   2.128   6.082  0.6992  0.1195  0.5041
12165TIP3   OH257909   6.757   6.181   5.204 -0.0649  0.0793 -0.2815
12165TIP3    H157910   6.665   6.154   5.201 -0.1113  0.3023 -1.5823
12165TIP3    H257911   6.771   6.211   5.293 -1.1003 -0.5026  0.0867
12166TIP3   OH257912   0.080   6.466   5.601 -0.1384  0.1815  0.2867
12166TIP3    H157913   0.141   6.529   5.640  0.4971 -1.3095  1.8118
12166TIP3    H257914   0.010   6.458   5.666 -0.2201 -0.6545  0.1008
12167TIP3   OH257915   6.609   1.276  10.967 -0.6692  0.2973 -0.0462
12167TIP3    H157916   6.658   1.194  10.960 -0.4664  0.5113 -1.3697
12167TIP3    H257917   6.529   1.260  10.917  0.3369  1.5712 -2.2287
12168TIP3   OH257918   6.214   0.480   0.544  0.0250 -0.3694 -0.8403
12168TIP3    H157919   6.299   0.524   0.548 -0.7476  1.1050  1.5274
12168TIP3    H257920   6.221   0.411   0.610 -0.7615  0.0894 -0.2681
12169TIP3   OH257921   1.032   4.219   5.014 -0.1680 -0.1524 -0.1627
12169TIP3    H157922   1.069   4.134   5.035 -0.8483 -0.9433 -1.9317
12169TIP3    H257923   0.937   4.204   5.010 -0.2202  0.3649 -1.6327
12170TIP3   OH257924   2.756   5.709   4.104 -0.5526  0.0737  0.5283
12170TIP3    H157925   2.834   5.669   4.065 -0.5200 -0.1512  0.8139
12170TIP3    H257926   2.690   5.640   4.102 -0.9940  0.5080 -0.4256
12171TIP3   OH257927   1.526   2.480   5.250  0.0152  0.8294 -0.1562
12171TIP3    H157928   1.519   2.436   5.335  0.1452  2.1296  0.5656
12171TIP3    H257929   1.498   2.570   5.268  0.0502  1.1328 -1.5044
12172TIP3   OH257930   3.404   2.137   5.223 -0.2116  1.0575  0.2086
12172TIP3    H157931   3.437   2.116   5.310 -1.0688  2.1290  0.8236
12172TIP3    H257932   3.382   2.230   5.228 -2.9065  0.5298 -0.2699
12173TIP3   OH257933   0.038   5.971  15.215  0.0341 -0.0959 -0.2194
12173TIP3    H157934   0.077   5.893  15.257  1.4224  0.5565 -0.2265
12173TIP3    H257935  -0.036   5.994  15.272  1.2507  0.1562  1.3509
12174TIP3   OH257936   2.942   5.283   4.586  0.2323  0.7418  0.4634
12174TIP3    H157937   2.941   5.338   4.508  1.9694 -1.8377 -1.5336
12174TIP3    H257938   2.860   5.232   4.581  0.3017  0.6388  0.3796
12175TIP3   OH257939   1.425   6.646   2.161 -0.6033 -0.2132 -0.3791
12175TIP3    H157940   1.515   6.667   2.186 -0.9741  1.0483 -0.0714
12175TIP3    H257941   1.429   6.631   2.067  0.3664 -2.6885 -0.0358
12176TIP3   OH257942   0.833   5.580   0.984 -0.0348  0.3049  0.1795
12176TIP3    H157943   0.782   5.572   0.904 -1.1387  1.5552  0.7099
12176TIP3    H257944   0.802   5.662   1.024  1.2488  0.2620  1.3384
12177TIP3   OH257945   0.635   5.863  11.398 -0.1452 -0.2661  0.5346
12177TIP3    H157946   0.553   5.912  11.398 -0.9259 -1.5302  1.1568
12177TIP3    H257947   0.703   5.930  11.407 -1.0128  0.9035 -1.0153
12178TIP3   OH257948   6.570   0.027   3.164 -0.2269 -0.5234 -0.5564
12178TIP3    H157949   6.499   0.026   3.101 -3.2772  1.4080  2.4553
12178TIP3    H257950   6.615   0.110   3.149 -0.1986 -0.6060 -0.9178
12179TIP3   OH257951   4.249   3.495  13.321 -0.1344 -0.5114  0.2124
12179TIP3    H157952   4.246   3.405  13.290 -1.3623 -1.1499  2.0324
12179TIP3    H257953   4.322   3.497  13.383 -0.6751 -0.5136  0.8607
12180TIP3   OH257954   2.155   1.775  14.587 -0.1199  0.3526 -0.2356
12180TIP3    H157955   2.138   1.822  14.668  0.1408 -0.6280  0.4045
12180TIP3    H257956   2.099   1.819  14.522  0.8692  2.1697  0.0851
12181TIP3   OH257957   4.937   3.763   6.227  0.3824  0.6207  0.2246
12181TIP3    H157958   4.878   3.689   6.213  1.4668 -0.7002  2.2157
12181TIP3    H257959   4.916   3.793   6.315  1.2923  1.4507  0.1670
12182TIP3   OH257960   6.475   0.952  16.120  0.4078 -0.3054  0.0376
12182TIP3    H157961   6.405   1.004  16.161 -0.5658 -0.6642 -1.1039
12182TIP3    H257962   6.519   1.013  16.061  0.6266 -0.2434  0.2679
12183TIP3   OH257963   4.607   3.563  12.659  0.6249 -0.0242  0.1128
12183TIP3    H157964   4.635   3.654  12.668 -0.0572  0.8999 -4.5084
12183TIP3    H257965   4.518   3.562  12.696  0.9509  0.9290  0.9807
12184TIP3   OH257966   1.626   0.476  12.543 -0.1142  0.0767 -0.4888
12184TIP3    H157967   1.682   0.530  12.487 -2.9297  3.9187  0.0278
12184TIP3    H257968   1.657   0.494  12.632  0.3129 -0.9809 -0.4102
12185TIP3   OH257969   3.993   3.804  11.348  0.2556  0.2764 -0.8385
12185TIP3    H157970   4.058   3.737  11.325  1.5950  0.6481  1.5043
12185TIP3    H257971   3.950   3.770  11.426 -0.0272  1.4932 -0.4398
12186TIP3   OH257972   3.020   1.830   5.665 -0.3206  0.0866  0.3740
12186TIP3    H157973   2.945   1.888   5.649  0.7341  1.4785  0.2891
12186TIP3    H257974   3.084   1.886   5.709  1.6601 -0.3430 -1.7770
12187TIP3   OH257975   6.498   5.115   3.363  0.5628 -0.1804  0.2363
12187TIP3    H157976   6.551   5.036   3.353 -0.5566 -0.7841 -1.2606
12187TIP3    H257977   6.511   5.164   3.282 -0.5009  0.0732  0.2059
12188TIP3   OH257978   1.541   2.203   3.794 -0.5902 -0.3099 -0.4310
12188TIP3    H157979   1.516   2.295   3.790  0.3283 -0.0459 -0.1819
12188TIP3    H257980   1.465   2.159   3.833 -1.2516  0.2478 -1.0783
12189TIP3   OH257981   0.102   2.842   5.146  0.2203 -0.4849  0.3696
12189TIP3    H157982   0.014   2.824   5.178  0.0999 -1.3859 -0.4131
12189TIP3    H257983   0.143   2.895   5.215 -0.6222 -0.8355  1.1564
12190TIP3   OH257984   0.816   3.437   5.477 -0.3887 -0.0324 -0.5041
12190TIP3    H157985   0.727   3.465   5.455 -0.4151  1.1283  0.9207
12190TIP3    H257986   0.872   3.509   5.450 -0.3371  1.0427  2.1058
12191TIP3   OH257987   1.458   1.186   4.725  0.1065 -0.2597 -0.0951
12191TIP3    H157988   1.496   1.147   4.646 -0.0439  0.9836 -0.8071
12191TIP3    H257989   1.484   1.278   4.721  1.6883 -0.5176  2.2847
12192TIP3   OH257990   6.620   6.160   3.644  0.8759 -0.6898 -0.0346
12192TIP3    H157991   6.528   6.163   3.619  0.8562 -0.5663  0.0558
12192TIP3    H257992   6.659   6.098   3.582  0.4267 -1.9500  0.9001
12193TIP3   OH257993   1.536   6.162   5.245  0.2785  0.2495  0.1502
12193TIP3    H157994   1.537   6.144   5.151 -1.5111  1.4175 -0.1387
12193TIP3    H257995   1.511   6.078   5.284 -2.9272  0.6654 -0.7733
12194TIP3   OH257996   6.629   4.102  13.847 -0.0656  0.3461  0.4788
12194TIP3    H157997   6.632   4.184  13.798 -2.4820 -0.5624 -1.4131
12194TIP3    H257998   6.537   4.092  13.872  0.1877 -1.7351  0.7486
12195TIP3   OH257999   4.338   1.467   1.612  1.1733  0.0901  0.0330
12195TIP3    H158000   4.280   1.482   1.537  0.0585 -0.8885  0.6531
12195TIP3    H258001   4.424   1.496   1.583  0.7284 -0.1206 -1.5643
12196TIP3   OH258002   5.629   3.994  16.992  0.2476 -0.0762 -0.0221
12196TIP3    H158003   5.716   3.995  16.953  0.8802  1.3209  1.3243
12196TIP3    H258004   5.569   4.004  16.918  1.2349 -0.6736 -0.9235
12197TIP3   OH258005   5.936   6.663   1.875  0.3037  0.1486  0.0495
12197TIP3    H158006   5.965   6.576   1.905  2.7003  0.4031 -1.2823
12197TIP3    H258007   6.004   6.691   1.813 -0.9699  2.5255 -0.3860
12198TIP3   OH258008   6.177   0.172   1.126 -0.0218  0.7667 -0.4255
12198TIP3    H158009   6.092   0.161   1.084 -0.6643 -0.2929  1.0851
12198TIP3    H258010   6.158   0.180   1.219  1.5275  0.5054 -0.0579
12199TIP3   OH258011   4.971   0.054  14.545 -0.5445  0.1887  0.5661
12199TIP3    H158012   4.894   0.093  14.585  0.7172  1.9202  1.4611
12199TIP3    H258013   4.949  -0.039  14.535 -1.6178 -0.0145  3.6942
12200TIP3   OH258014   5.450   4.175  13.884  0.0023  0.0350  1.0017
12200TIP3    H158015   5.442   4.259  13.839  1.1947 -0.5844 -0.4604
12200TIP3    H258016   5.360   4.147  13.899 -0.6654 -0.8384 -3.3169
12201TIP3   OH258017   0.156   1.344   1.444  0.1183 -0.1717  0.2902
12201TIP3    H158018   0.243   1.318   1.472  1.2118  2.1548 -0.6396
12201TIP3    H258019   0.158   1.335   1.349 -0.3017  0.7746  0.1764
12202TIP3   OH258020   3.224   0.387   2.710  0.0372  0.0249  0.1812
12202TIP3    H158021   3.191   0.442   2.639 -0.2739 -1.3005 -0.7410
12202TIP3    H258022   3.304   0.430   2.739 -0.0461  0.7977 -0.7017
12203TIP3   OH258023   0.101   4.366   1.360 -0.3594  0.4208 -0.9796
12203TIP3    H158024   0.032   4.427   1.333  0.0603  0.9852 -0.8071
12203TIP3    H258025   0.061   4.317   1.432 -0.3849  1.1771 -0.4580
12204TIP3   OH258026   4.478   0.497  12.302  0.2405  0.5300 -0.0254
12204TIP3    H158027   4.429   0.579  12.307 -1.8738 -0.6756  0.2293
12204TIP3    H258028   4.412   0.431  12.279  1.8309 -1.1362 -0.0351
12205TIP3   OH258029   2.713   2.865   2.091  0.4760 -0.5026 -0.1593
12205TIP3    H158030   2.746   2.908   2.169 -0.7932 -1.7881  1.1661
12205TIP3    H258031   2.779   2.799   2.070  1.6028  0.8871 -1.1949
12206TIP3   OH258032   0.417   6.313   2.588 -0.9883  0.1367  0.0454
12206TIP3    H158033   0.362   6.301   2.511 -1.1644 -1.8430  0.4046
12206TIP3    H258034   0.357   6.334   2.659 -0.9019  1.2385 -0.1925
12207TIP3   OH258035   5.682   2.061  11.295 -0.4553 -0.1600  0.5659
12207TIP3    H158036   5.678   1.968  11.315  1.7262 -0.7332 -1.2544
12207TIP3    H258037   5.666   2.066  11.200  0.8186  1.1541  0.3836
12208TIP3   OH258038   1.504   1.961  11.812 -0.1246  0.6972  0.4300
12208TIP3    H158039   1.553   1.880  11.825 -1.1502 -0.5493 -2.4485
12208TIP3    H258040   1.413   1.937  11.829 -0.5988  0.8097 -1.6028
12209TIP3   OH258041   3.498   0.101   4.615  0.1494  0.5892  0.3298
12209TIP3    H158042   3.568   0.087   4.680 -0.1861  0.2272  0.6214
12209TIP3    H258043   3.419   0.111   4.668 -0.3847 -1.2144 -0.0504
12210TIP3   OH258044   1.612   2.609  15.667 -0.3956 -0.2510 -0.5633
12210TIP3    H158045   1.593   2.532  15.613  1.8952  0.6808 -2.9478
12210TIP3    H258046   1.574   2.682  15.617 -1.4948  0.3566  1.0686
12211TIP3   OH258047   2.077   5.076  10.954  0.9664  0.6094 -0.4376
12211TIP3    H158048   2.085   5.009  11.022  1.5228 -0.7962 -1.8209
12211TIP3    H258049   2.090   5.028  10.872  0.7198  2.3173 -1.5191
12212TIP3   OH258050   1.698   5.346  13.078 -0.0791  0.2244 -0.2117
12212TIP3    H158051   1.754   5.357  13.154  1.0729  0.6108 -1.0902
12212TIP3    H258052   1.758   5.346  13.003 -1.3111  1.5724 -1.2601
12213TIP3   OH258053   1.573   5.033   2.679 -0.0255  0.5978 -0.1797
12213TIP3    H158054   1.481   5.052   2.699  0.0539 -0.4460  1.3903
12213TIP3    H258055   1.575   4.939   2.662  0.3837  1.0054 -2.7269
12214TIP3   OH258056   4.782   0.110  12.944  0.7782 -0.0178 -0.3869
12214TIP3    H158057   4.695   0.075  12.966  1.0392 -0.0090  0.7414
12214TIP3    H258058   4.779   0.123  12.850 -0.9031  1.2132 -0.2102
12215TIP3   OH258059   1.921   2.148  15.822 -0.2563  0.0413  0.5910
12215TIP3    H158060   1.899   2.185  15.737 -0.3543  1.5366  1.2358
12215TIP3    H258061   2.002   2.191  15.848 -0.0521 -0.6285  1.1206
12216TIP3   OH258062   5.292   4.621  16.286  0.5427 -0.3362 -0.2960
12216TIP3    H158063   5.202   4.623  16.317  0.0384  0.6769 -1.7138
12216TIP3    H258064   5.299   4.540  16.235  0.5677 -0.6284  0.1701
12217TIP3   OH258065   6.191   5.517   4.027  0.2107 -0.0579 -0.0601
12217TIP3    H158066   6.109   5.565   4.012 -0.6008 -1.6409 -0.9576
12217TIP3    H258067   6.225   5.500   3.939  0.5146 -1.0378  0.2308
12218TIP3   OH258068   0.194   4.024   3.109  0.1901  1.1090 -0.0548
12218TIP3    H158069   0.250   4.002   3.183 -0.0375 -0.7248 -0.3790
12218TIP3    H258070   0.158   4.110   3.131  0.2717  0.6924  1.8738
12219TIP3   OH258071   1.017   3.129  15.618  0.9597  0.2266  0.3221
12219TIP3    H158072   1.096   3.178  15.638  1.2250 -0.2995  0.5671
12219TIP3    H258073   1.027   3.046  15.665 -0.8580  1.1204  2.4605
12220TIP3   OH258074   0.225   4.753  11.784 -0.5484 -0.0276 -0.1785
12220TIP3    H158075   0.195   4.693  11.716 -3.0800  0.3673  0.4742
12220TIP3    H258076   0.166   4.736  11.858  0.4622  1.3539  0.9956
12221TIP3   OH258077   1.760   6.190   1.672  0.3554  0.3655 -0.3711
12221TIP3    H158078   1.749   6.103   1.635  1.6344  0.4114 -0.8914
12221TIP3    H258079   1.854   6.207   1.668  0.4558  0.7486  2.0817
12222TIP3   OH258080   2.858   5.758  13.321  0.1104 -0.9843 -0.1289
12222TIP3    H158081   2.777   5.718  13.292 -0.9288  0.9805 -0.1348
12222TIP3    H258082   2.912   5.766  13.242 -1.5434  1.7143 -1.1394
12223TIP3   OH258083   5.375   0.175  12.603 -0.1714 -0.7714 -0.2347
12223TIP3    H158084   5.366   0.191  12.509 -0.6785 -1.3704 -0.2975
12223TIP3    H258085   5.456   0.219  12.627  0.5722 -1.5776 -1.1740
12224TIP3   OH258086   1.321   6.732   0.913 -0.0137 -0.2974 -0.0770
12224TIP3    H158087   1.309   6.776   0.997  0.7888 -1.7053  0.8122
12224TIP3    H258088   1.238   6.744   0.867 -0.8931 -0.5354  1.4128
12225TIP3   OH258089   4.814   2.533   3.293 -0.4287  0.7458  0.3463
12225TIP3    H158090   4.887   2.517   3.234 -1.3072  1.3238 -0.9360
12225TIP3    H258091   4.759   2.455   3.284 -0.9638  1.1803 -0.2267
12226TIP3   OH258092   4.306   4.735   4.900 -0.1122  0.5298 -0.2578
12226TIP3    H158093   4.221   4.758   4.936 -2.1883  0.2982 -4.3370
12226TIP3    H258094   4.346   4.818   4.875 -0.7460  0.5399 -1.3288
12227TIP3   OH258095   0.126   5.416  12.926  0.6733  0.1936  0.4872
12227TIP3    H158096   0.111   5.508  12.946 -2.2004 -0.2970  0.9989
12227TIP3    H258097   0.216   5.400  12.953  1.0455  2.6779  0.9699
12228TIP3   OH258098   4.794   4.017   0.887  0.1227  0.1640 -0.1171
12228TIP3    H158099   4.719   4.061   0.925 -0.7598  0.1052 -1.6971
12228TIP3    H258100   4.764   3.987   0.801  1.1284 -2.2361  0.2683
12229TIP3   OH258101   0.208   4.773  14.105  0.1123  0.1995 -0.2132
12229TIP3    H158102   0.281   4.711  14.103  0.2090  0.3174 -0.4003
12229TIP3    H258103   0.241   4.851  14.059  0.7591  1.2384  1.8742
12230TIP3   OH258104   5.117   4.307  15.093  0.0177  0.2629 -0.3706
12230TIP3    H158105   5.133   4.401  15.081 -0.2684  0.3460 -0.1180
12230TIP3    H258106   5.120   4.271  15.005 -0.8776  0.6739 -0.5860
12231TIP3   OH258107   2.271   3.134   3.911 -0.5771 -0.2496  0.8282
12231TIP3    H158108   2.248   3.125   4.003 -0.2907  0.3974  0.9711
12231TIP3    H258109   2.189   3.119   3.864 -0.4302 -2.0167  1.0952
12232TIP3   OH258110   1.053   6.038   3.361 -0.2596 -0.6115  0.1610
12232TIP3    H158111   1.095   5.952   3.356 -1.0134 -1.1069  1.8415
12232TIP3    H258112   1.099   6.083   3.432 -0.4242  0.0618 -0.1515
12233TIP3   OH258113   6.356   1.920  11.393  0.0709 -0.1617 -0.1055
12233TIP3    H158114   6.371   1.999  11.340  2.2823  0.3543  1.1878
12233TIP3    H258115   6.396   1.850  11.342  1.6993  0.2447  0.5625
12234TIP3   OH258116   0.719   1.322  15.399 -0.1625  0.1901 -0.0939
12234TIP3    H158117   0.705   1.413  15.376  0.5533  0.5708  0.8935
12234TIP3    H258118   0.696   1.273  15.320 -0.2072  1.2436 -0.7515
12235TIP3   OH258119   3.070   0.792   1.556  0.1511 -0.1765 -0.1890
12235TIP3    H158120   3.047   0.733   1.484 -0.5717  0.1671 -0.2414
12235TIP3    H258121   3.164   0.805   1.545 -0.1386  0.8425 -1.8333
12236TIP3   OH258122   1.230   4.027  12.495  0.1098  0.2836 -0.3706
12236TIP3    H158123   1.322   4.050  12.491  0.2757  0.1163  1.6937
12236TIP3    H258124   1.184   4.110  12.482  0.6515  1.2429  3.0430
12237TIP3   OH258125   6.385   0.205   3.004 -0.0726 -0.1995 -1.1156
12237TIP3    H158126   6.396   0.279   3.064 -1.8411 -0.5707 -0.2635
12237TIP3    H258127   6.425   0.234   2.922  0.7304  1.0435 -0.3133
12238TIP3   OH258128   2.980   2.715  14.205  0.2958 -0.1872  0.1862
12238TIP3    H158129   3.022   2.746  14.285  0.3938 -0.6065  0.2964
12238TIP3    H258130   2.955   2.624  14.223 -0.3968 -0.0402  0.0238
12239TIP3   OH258131   5.828   3.126   3.605 -0.3005  0.7246 -0.0950
12239TIP3    H158132   5.831   3.202   3.663 -1.1880 -0.5912  1.7832
12239TIP3    H258133   5.897   3.069   3.637 -2.1383 -0.9460  1.1103
12240TIP3   OH258134   6.263   4.827   2.025  0.2137 -0.2039 -0.0661
12240TIP3    H158135   6.329   4.890   1.996  0.9911 -1.0970 -0.2950
12240TIP3    H258136   6.193   4.833   1.960  0.1524  0.6027  0.0630
12241TIP3   OH258137   1.238   1.109  14.356  0.5962 -0.2870 -0.9695
12241TIP3    H158138   1.269   1.070  14.437  1.5296  1.1193 -0.6108
12241TIP3    H258139   1.168   1.051  14.326 -0.3105 -0.4245  1.2407
12242TIP3   OH258140   1.713   3.492   3.904  0.8415  0.0160 -0.3062
12242TIP3    H158141   1.698   3.438   3.826 -0.9976 -1.4931  0.9998
12242TIP3    H258142   1.731   3.428   3.974 -1.2233  1.0274  1.2591
12243TIP3   OH258143   5.049   1.208   1.850  0.3313 -0.1563  0.3819
12243TIP3    H158144   5.130   1.177   1.808 -0.2154  1.2738 -1.8860
12243TIP3    H258145   5.036   1.147   1.923  3.2286 -0.6706  0.6177
12244TIP3   OH258146   5.632   1.892  12.515  0.1712 -0.6633  0.2909
12244TIP3    H158147   5.605   1.854  12.432 -0.8824 -1.4821  0.9886
12244TIP3    H258148   5.663   1.818  12.567 -0.9449 -0.4652  1.2896
12245TIP3   OH258149   2.837   0.501   1.793 -0.1089 -0.0124 -0.5026
12245TIP3    H158150   2.867   0.470   1.878  0.0087 -1.9021 -1.1842
12245TIP3    H258151   2.789   0.582   1.812  1.4762  0.6109  1.1164
12246TIP3   OH258152   0.911   6.003  12.876  0.0365 -0.4659  0.4748
12246TIP3    H158153   1.001   5.992  12.905  0.1475 -1.8967 -0.3315
12246TIP3    H258154   0.871   6.060  12.941  0.8990 -1.6493  2.0941
12247TIP3   OH258155   4.526   3.750  14.792 -0.4074 -0.2598  0.3813
12247TIP3    H158156   4.470   3.744  14.870  0.5306  0.6386  1.1457
12247TIP3    H258157   4.557   3.840  14.791 -1.9747  0.3538 -2.1953
12248TIP3   OH258158   5.872   4.822   3.809  0.0563 -0.0193  0.2084
12248TIP3    H158159   5.777   4.808   3.810  0.0484 -0.0970 -0.7291
12248TIP3    H258160   5.888   4.882   3.881 -0.9429  1.4318 -0.7110
12249TIP3   OH258161   6.218   0.188  16.750  0.3535 -0.4042  0.0119
12249TIP3    H158162   6.216   0.128  16.825 -0.4033  1.6010  1.6880
12249TIP3    H258163   6.125   0.200  16.727  0.3958  0.9537  0.4534
12250TIP3   OH258164   6.522   2.782   3.916  0.0364  0.3115  0.2352
12250TIP3    H158165   6.483   2.854   3.867 -0.8842  0.1017  0.6474
12250TIP3    H258166   6.453   2.753   3.976  0.9850  0.2648  1.3363
12251TIP3   OH258167   4.340   2.430  11.905 -0.6169 -0.4034  0.1446
12251TIP3    H158168   4.273   2.467  11.847  0.5781  0.5156 -0.6737
12251TIP3    H258169   4.304   2.442  11.993 -1.0635  1.0260 -0.2160
12252TIP3   OH258170   5.425   0.572  11.635 -0.3020  0.6087 -0.0892
12252TIP3    H158171   5.462   0.661  11.638  0.6453  0.2700 -1.1275
12252TIP3    H258172   5.476   0.523  11.699  0.3647  0.4010 -0.7649
12253TIP3   OH258173   1.753   2.477   5.799 -0.2227  0.4730  0.2964
12253TIP3    H158174   1.740   2.506   5.889  0.4135 -1.1312  0.9291
12253TIP3    H258175   1.764   2.382   5.805 -1.7872  0.0877 -1.6329
12254TIP3   OH258176   6.207   6.695   5.357 -0.4363 -0.4448  0.0727
12254TIP3    H158177   6.165   6.655   5.433  0.6863 -1.2054  0.3207
12254TIP3    H258178   6.176   6.643   5.282  1.4418 -2.2702  0.4432
12255TIP3   OH258179   5.110   0.828  15.879  0.1652 -0.2090  0.5887
12255TIP3    H158180   5.092   0.921  15.889 -1.6480 -0.1665 -1.9303
12255TIP3    H258181   5.044   0.785  15.933  0.1219 -0.0199  0.6865
12256TIP3   OH258182   0.918   4.066   1.927  0.3108  0.4344  0.0632
12256TIP3    H158183   0.974   3.993   1.901 -0.3781 -0.4471  1.0033
12256TIP3    H258184   0.844   4.025   1.972  0.0587  1.7282  0.8719
12257TIP3   OH258185   3.480   5.152   4.342  0.0647  0.0618  0.2216
12257TIP3    H158186   3.567   5.180   4.370 -0.0102  0.9003 -0.3607
12257TIP3    H258187   3.480   5.057   4.357  0.3646  0.3240  2.0881
12258TIP3   OH258188   2.904   1.639  11.519  0.0952  0.1495 -0.4411
12258TIP3    H158189   2.886   1.730  11.495  0.2553 -0.0759 -1.4725
12258TIP3    H258190   2.830   1.613  11.575 -0.1090  0.8105 -0.4020
12259TIP3   OH258191   6.223   6.288  15.012  0.6730 -0.4526 -0.1886
12259TIP3    H158192   6.232   6.291  14.917  1.0289  0.2229 -0.1364
12259TIP3    H258193   6.289   6.349  15.045  0.5765 -0.7058  0.4935
12260TIP3   OH258194   1.636   1.814  10.767 -0.3056  0.3230  0.0112
12260TIP3    H158195   1.716   1.770  10.737 -0.6983 -0.1195 -0.4018
12260TIP3    H258196   1.571   1.744  10.771 -0.1586  0.2470  2.3840
12261TIP3   OH258197   1.007   2.373  14.320 -0.0984  0.0446 -0.0137
12261TIP3    H158198   0.935   2.436  14.328  1.8729  2.7105 -1.4659
12261TIP3    H258199   0.965   2.288  14.325 -3.3310  1.4457 -0.5947
12262TIP3   OH258200   4.053   3.553   2.723  0.1187  0.1659  0.2759
12262TIP3    H158201   4.098   3.500   2.656 -1.5617  0.4831 -1.1756
12262TIP3    H258202   4.067   3.643   2.695 -3.3417  0.2625 -1.6941
12263TIP3   OH258203   6.449   6.201  13.380 -0.4377  0.2527 -0.2000
12263TIP3    H158204   6.435   6.279  13.326 -1.3914  1.2744  1.4389
12263TIP3    H258205   6.436   6.127  13.320 -1.6608  1.3413 -1.3194
12264TIP3   OH258206   2.212   0.929  16.666  0.0726  0.2327 -0.1452
12264TIP3    H158207   2.263   0.852  16.643 -0.2215 -0.0604  0.1729
12264TIP3    H258208   2.139   0.929  16.604  0.1768  0.3602 -0.2684
12265TIP3   OH258209   3.024   4.234  11.960  0.2783  0.0728  0.6904
12265TIP3    H158210   3.073   4.154  11.978  0.3292  0.4892  2.7294
12265TIP3    H258211   3.083   4.304  11.986 -0.5564  0.6683  1.0171
12266TIP3   OH258212   3.628   6.123   5.745 -0.1068 -0.4902 -0.6844
12266TIP3    H158213   3.632   6.038   5.788  1.2757 -0.3149 -0.3986
12266TIP3    H258214   3.671   6.109   5.660 -1.5090 -0.4901 -1.4170
12267TIP3   OH258215   2.786   3.916  13.825 -0.1491 -0.3295 -0.7960
12267TIP3    H158216   2.827   4.000  13.807  1.1042 -0.6777  0.3410
12267TIP3    H258217   2.766   3.918  13.919  1.9846 -2.1329 -0.2259
12268TIP3   OH258218   1.703   5.893  16.707 -0.2730  0.9401 -0.1723
12268TIP3    H158219   1.758   5.816  16.692 -1.3148 -0.0537  0.9489
12268TIP3    H258220   1.759   5.967  16.683  0.8004 -0.1406 -1.1458
12269TIP3   OH258221   1.205   5.494   1.595 -0.0510  0.3241 -0.2480
12269TIP3    H158222   1.258   5.553   1.649  1.4835  0.2412 -1.5898
12269TIP3    H258223   1.142   5.456   1.656  0.3779  1.6565  1.0876
12270TIP3   OH258224   6.364   5.083  13.936 -0.0434 -0.6912 -0.3084
12270TIP3    H158225   6.314   5.018  13.985 -1.5624  1.2159  0.7827
12270TIP3    H258226   6.390   5.038  13.855 -1.6293 -2.4141  0.0896
12271TIP3   OH258227   2.670   5.138   4.188 -0.5813 -0.2251  0.3127
12271TIP3    H158228   2.621   5.155   4.107 -1.8625 -3.1735  0.3419
12271TIP3    H258229   2.723   5.061   4.167  0.7669  0.3058  1.6453
12272TIP3   OH258230   2.515   6.783   5.472  0.0055 -0.1742  0.4788
12272TIP3    H158231   2.511   6.829   5.556  0.4678  2.3858 -0.7819
12272TIP3    H258232   2.456   6.833   5.416  1.3535 -0.4828 -1.2802
12273TIP3   OH258233   5.450   2.627  11.940  0.1406  0.5155  0.3161
12273TIP3    H158234   5.505   2.701  11.914 -0.9012  1.8163  1.6878
12273TIP3    H258235   5.397   2.609  11.862  0.6763  0.9409 -0.1616
12274TIP3   OH258236   6.020   6.751  13.543  0.8064  0.5545  0.2101
12274TIP3    H158237   5.942   6.754  13.598  0.0524  0.0978 -0.8039
12274TIP3    H258238   6.035   6.657  13.528  0.7295  0.6863 -0.7330
12275TIP3   OH258239   2.267   6.777  14.557 -0.2088  0.1540 -0.2132
12275TIP3    H158240   2.226   6.845  14.611  0.9907  0.5398  0.2322
12275TIP3    H258241   2.270   6.700  14.613  2.0983  0.8704  0.7548
12276TIP3   OH258242   5.659   5.529  12.054  0.0748  0.5414  0.2213
12276TIP3    H158243   5.674   5.615  12.016 -1.6452  0.3335 -1.0811
12276TIP3    H258244   5.587   5.492  12.002  1.1192 -1.9126  0.3626
12277TIP3   OH258245   3.230   0.573   2.291  0.1728  0.7090 -0.0235
12277TIP3    H158246   3.237   0.482   2.264 -3.2444 -0.2098  1.6807
12277TIP3    H258247   3.243   0.623   2.211  1.9218 -1.2052 -1.0434
12278TIP3   OH258248   2.769   5.845   3.566  0.1558 -0.1273 -0.1018
12278TIP3    H158249   2.833   5.794   3.616  0.2141 -0.6353 -0.6741
12278TIP3    H258250   2.780   5.935   3.597 -0.0204 -0.4785  1.0002
12279TIP3   OH258251   3.834   2.875  14.206 -0.1568 -0.1229 -0.4320
12279TIP3    H158252   3.917   2.920  14.189  1.7263 -2.3373  2.0918
12279TIP3    H258253   3.806   2.907  14.292 -1.3453 -0.2529 -0.7521
12280TIP3   OH258254   1.110   0.445   1.607  0.1463 -0.0567 -0.4010
12280TIP3    H158255   1.017   0.468   1.612  0.2388  0.2756 -0.1954
12280TIP3    H258256   1.117   0.362   1.653  0.0292  0.1440 -0.0212
12281TIP3   OH258257   5.532   2.147   2.096 -0.2122 -0.3724 -0.8089
12281TIP3    H158258   5.456   2.202   2.077  0.1229  0.0981 -0.7893
12281TIP3    H258259   5.494   2.067   2.132 -0.7209 -0.3016 -1.1711
12282TIP3   OH258260   1.105   0.544  14.039  0.3659 -0.0360  0.0842
12282TIP3    H158261   1.074   0.471  13.984  1.9214  0.4729 -1.5659
12282TIP3    H258262   1.104   0.509  14.128  1.0293 -2.0798 -0.6596
12283TIP3   OH258263   3.285   4.120   5.712 -0.0821  0.2766  0.1811
12283TIP3    H158264   3.262   4.158   5.797  0.3654 -0.1857  0.5182
12283TIP3    H258265   3.322   4.034   5.734 -1.2670 -0.4649 -0.5582
12284TIP3   OH258266   1.842   2.038  15.301 -0.4525 -0.2378 -0.2281
12284TIP3    H158267   1.798   1.954  15.296  0.4261 -0.6891 -0.5547
12284TIP3    H258268   1.932   2.018  15.327 -0.5415  0.7073  0.9073
12285TIP3   OH258269   6.367   0.114   0.127  0.0697 -0.2242  0.3125
12285TIP3    H158270   6.308   0.172   0.175 -1.1597  0.9193 -2.3760
12285TIP3    H258271   6.449   0.163   0.121 -0.1045  0.0766  0.3521
12286TIP3   OH258272   2.519   1.115   1.489  0.4614 -0.1343  0.2489
12286TIP3    H158273   2.436   1.156   1.513  0.1288 -0.5115 -0.2425
12286TIP3    H258274   2.531   1.046   1.554  0.1950 -0.3309  0.0908
12287TIP3   OH258275   3.535   0.105  13.525 -0.1068 -0.5042 -0.0218
12287TIP3    H158276   3.613   0.049  13.529 -1.1489 -1.9942  0.7150
12287TIP3    H258277   3.473   0.055  13.473 -1.3674 -0.4453  1.3598
12288TIP3   OH258278   6.774   0.079   2.901  0.5140 -0.1135 -0.2777
12288TIP3    H158279   6.868   0.079   2.882  0.6745 -0.5588  0.4939
12288TIP3    H258280   6.760   0.002   2.955 -0.4543 -0.5433 -1.1093
12289TIP3   OH258281   3.970   2.270  13.774 -0.3211 -0.4023 -0.1615
12289TIP3    H158282   3.952   2.334  13.705  0.5416 -0.8114 -0.7776
12289TIP3    H258283   4.047   2.223  13.744 -0.0694 -0.7499  0.9833
12290TIP3   OH258284   5.600   1.383  14.289  0.7615 -0.5638  0.3911
12290TIP3    H158285   5.517   1.367  14.335  1.9792 -2.5610  2.0933
12290TIP3    H258286   5.575   1.435  14.213 -2.0232 -0.9230  0.9269
12291TIP3   OH258287   5.542   0.877   2.214 -0.0213  0.3603  0.2364
12291TIP3    H158288   5.637   0.877   2.218 -0.0390 -0.4451  0.9437
12291TIP3    H258289   5.521   0.929   2.136  0.9633  1.2212  0.5218
12292TIP3   OH258290   3.846   6.669  16.433  0.0115  0.5236  0.2872
12292TIP3    H158291   3.869   6.762  16.440  0.9472  0.2405  1.1531
12292TIP3    H258292   3.810   6.646  16.518  1.5681 -0.3620  0.7498
12293TIP3   OH258293   4.831   4.519  15.240 -0.1661  0.8779 -0.1167
12293TIP3    H158294   4.810   4.559  15.324  1.9473  0.1871  0.8020
12293TIP3    H258295   4.882   4.586  15.193  0.3657  0.5539 -0.0135
12294TIP3   OH258296   2.525   5.555   4.092 -0.1819  0.2158  0.1628
12294TIP3    H158297   2.454   5.617   4.108 -0.5878 -0.4845  1.2172
12294TIP3    H258298   2.498   5.509   4.013  0.4454  1.7926 -1.0167
12295TIP3   OH258299   6.354   1.291   1.801 -0.2358  0.6256 -0.0315
12295TIP3    H158300   6.377   1.316   1.890 -0.3450 -0.8827  0.4423
12295TIP3    H258301   6.272   1.338   1.783  0.5382  2.0723  0.1106
12296TIP3   OH258302   6.685   4.911  14.293  0.5369 -0.3769 -0.0276
12296TIP3    H158303   6.716   4.988  14.245 -0.6302 -0.5161 -1.0500
12296TIP3    H258304   6.758   4.849  14.287  2.0804  1.0890  2.0434
12297TIP3   OH258305   4.605   0.663  13.188  0.1498 -0.3919 -0.5418
12297TIP3    H158306   4.565   0.616  13.261 -0.6195  1.2500  0.1518
12297TIP3    H258307   4.694   0.683  13.218 -0.4648  1.1326  0.4312
12298TIP3   OH258308   0.773   6.556  14.926  0.1554  0.4413  0.4981
12298TIP3    H158309   0.756   6.558  14.832  0.5256 -1.1678  0.3801
12298TIP3    H258310   0.694   6.594  14.966 -0.8214 -0.6284 -0.3655
12299TIP3   OH258311   5.884   1.796   3.073 -0.1441 -0.5344 -0.4040
12299TIP3    H158312   5.884   1.792   3.168 -0.8160  1.2544 -0.3080
12299TIP3    H258313   5.973   1.770   3.048  0.5251  0.5086  0.8072
12300TIP3   OH258314   4.947   3.586   4.870 -0.2697  0.2444  0.5814
12300TIP3    H158315   4.926   3.661   4.926  1.7548  0.7691  0.7366
12300TIP3    H258316   4.939   3.620   4.781 -2.6379 -0.3494  0.5015
12301TIP3   OH258317   3.575   0.975  14.547 -0.6153  0.3765  0.5554
12301TIP3    H158318   3.545   1.048  14.602 -0.6772 -0.0226  1.0534
12301TIP3    H258319   3.527   0.899  14.579 -1.2273  0.2770 -0.5600
12302TIP3   OH258320   0.491   4.170   3.754  0.4344  0.7168 -0.4271
12302TIP3    H158321   0.506   4.226   3.830 -0.3412  1.4012 -0.7648
12302TIP3    H258322   0.577   4.133   3.734  0.8745  1.4470  0.0632
12303TIP3   OH258323   4.617   2.992  16.973 -0.4495  0.3077  0.0091
12303TIP3    H158324   4.680   2.932  17.013 -2.1659 -0.1447  2.2495
12303TIP3    H258325   4.611   3.065  17.034 -2.8708 -0.2064  0.4885
12304TIP3   OH258326   3.252   2.502  10.802 -0.8249  0.3804 -0.1422
12304TIP3    H158327   3.274   2.572  10.741 -2.4829  1.3177  0.2732
12304TIP3    H258328   3.165   2.471  10.774 -1.1369  0.0855  1.0652
12305TIP3   OH258329   2.557   5.675   1.255 -0.1480 -0.4297 -0.1184
12305TIP3    H158330   2.630   5.614   1.246  0.4504 -0.1896  2.3180
12305TIP3    H258331   2.538   5.704   1.166  2.6768 -0.5624 -0.8541
12306TIP3   OH258332   4.550   3.469   4.049  0.2839  0.2869  0.5202
12306TIP3    H158333   4.590   3.420   3.978  0.0762  0.2237  0.4438
12306TIP3    H258334   4.556   3.412   4.125  0.8733  0.5215  0.6495
12307TIP3   OH258335   4.726   5.001  14.785 -0.1013  0.3626 -0.5112
12307TIP3    H158336   4.636   4.995  14.820  0.3596  0.4046  0.7407
12307TIP3    H258337   4.762   4.913  14.797 -0.5044 -0.1248 -2.5908
12308TIP3   OH258338   6.051   5.862  13.397  0.4274 -0.0812  0.9050
12308TIP3    H158339   6.085   5.901  13.477  1.5264 -0.4843  0.6469
12308TIP3    H258340   6.031   5.937  13.341 -0.0863  0.1937  1.4459
12309TIP3   OH258341   6.615   6.284   3.883 -0.1313  0.3006 -0.3165
12309TIP3    H158342   6.548   6.350   3.867 -2.1541 -1.9465 -1.7867
12309TIP3    H258343   6.634   6.247   3.797  0.3384 -1.5642  0.5310
12310TIP3   OH258344   2.147   6.516  15.916 -0.0853 -0.1556  0.5264
12310TIP3    H158345   2.208   6.516  15.990  0.3388  1.7609  0.2212
12310TIP3    H258346   2.201   6.498  15.839 -0.2986 -0.7223  0.5008
12311TIP3   OH258347   0.201   2.594   2.504  0.0468  0.5557  0.2026
12311TIP3    H158348   0.190   2.512   2.457 -0.3802  0.0566  1.1529
12311TIP3    H258349   0.218   2.659   2.435 -0.6717 -0.1254 -0.6356
12312TIP3   OH258350   0.995   5.154   4.622 -0.4236  0.1195  0.3815
12312TIP3    H158351   0.924   5.207   4.659 -1.1833  0.2876 -1.2123
12312TIP3    H258352   0.968   5.139   4.531  1.4232 -0.1376 -0.1535
12313TIP3   OH258353   6.709   4.218   2.946 -0.0802 -0.3617  0.4457
12313TIP3    H158354   6.799   4.234   2.976  1.1946 -2.3520 -1.9637
12313TIP3    H258355   6.677   4.148   3.003  0.0824 -0.0512  0.9297
12314TIP3   OH258356   0.198   3.937   0.382 -0.1846 -0.3671  0.1987
12314TIP3    H158357   0.292   3.948   0.374  0.0026  0.4788  2.9143
12314TIP3    H258358   0.185   3.842   0.375  0.5407 -0.3759 -2.2460
12315TIP3   OH258359   2.383   6.059  14.048 -0.2761 -0.4372  0.3637
12315TIP3    H158360   2.374   6.032  13.956  1.8467  0.8246 -0.2798
12315TIP3    H258361   2.477   6.053  14.065 -0.5317  0.2671  2.1889
12316TIP3   OH258362   2.118   5.490  14.002  0.2233  0.2703 -0.6860
12316TIP3    H158363   2.195   5.523  13.956  1.0246 -2.0245 -1.1089
12316TIP3    H258364   2.055   5.469  13.933 -0.1590  0.6196 -0.4493
12317TIP3   OH258365   4.164   1.970  15.320 -0.5343  0.0907 -0.2993
12317TIP3    H158366   4.138   2.057  15.289 -0.7124 -0.4725 -1.8255
12317TIP3    H258367   4.226   1.938  15.254 -1.0325 -1.2352 -0.1685
12318TIP3   OH258368   4.176   5.011  11.864  0.4165 -0.1649  0.2826
12318TIP3    H158369   4.221   5.034  11.782  1.6580  0.4121  1.1033
12318TIP3    H258370   4.228   5.052  11.933 -1.1642  0.2034  1.3144
12319TIP3   OH258371   3.978   0.267  16.891 -0.6967 -0.1357  0.0885
12319TIP3    H158372   3.941   0.337  16.837  0.1060  1.7185  1.7994
12319TIP3    H258373   4.047   0.229  16.837  1.5564  3.0864  0.4035
12320TIP3   OH258374   5.656   6.713   3.906 -0.5083 -0.4114 -0.0254
12320TIP3    H158375   5.626   6.803   3.894 -0.8728 -0.0454  2.8800
12320TIP3    H258376   5.576   6.661   3.913 -0.5378 -0.1541  2.9417
12321TIP3   OH258377   4.774   0.422  11.353 -0.5253  0.1393  0.6367
12321TIP3    H158378   4.810   0.355  11.411 -1.2016 -1.0701 -0.3105
12321TIP3    H258379   4.847   0.483  11.338 -0.1919  0.1809  2.2928
12322TIP3   OH258380   5.939   5.316   4.141 -0.1142 -0.7810 -0.8482
12322TIP3    H158381   5.922   5.406   4.115 -1.1358 -0.2829  1.3031
12322TIP3    H258382   6.027   5.318   4.178 -0.5903 -0.3363  0.3305
12323TIP3   OH258383   3.172   0.957  11.098  0.3747  0.2036 -0.1022
12323TIP3    H158384   3.172   1.047  11.065 -0.2871  0.3281  0.2243
12323TIP3    H258385   3.188   0.966  11.192  0.0373  0.0071 -0.0236
12324TIP3   OH258386   3.567   0.439  12.621 -0.1109  0.2858 -0.7957
12324TIP3    H158387   3.611   0.377  12.563 -1.1064  0.0158 -1.3015
12324TIP3    H258388   3.571   0.397  12.708  1.1459  0.5652 -0.7006
12325TIP3   OH258389   2.273   1.998  14.226 -0.0869  0.2666 -0.0867
12325TIP3    H158390   2.343   2.029  14.168 -0.1060 -0.6467 -0.6182
12325TIP3    H258391   2.286   1.903  14.231  0.7131  0.4524  2.4698
12326TIP3   OH258392   0.359   3.380   1.198  0.3548  0.2335 -0.6234
12326TIP3    H158393   0.403   3.338   1.272  0.6125 -1.1163 -1.5037
12326TIP3    H258394   0.276   3.411   1.233  0.7065  0.0993  0.3507
12327TIP3   OH258395   1.753   0.687  11.816 -0.0748 -0.2099 -0.8351
12327TIP3    H158396   1.755   0.775  11.778 -1.1783  0.3019  0.2462
12327TIP3    H258397   1.820   0.689  11.885 -1.0860  0.2512  0.1497
12328TIP3   OH258398   3.492   0.497   5.851 -0.1107 -0.9762 -0.5683
12328TIP3    H158399   3.556   0.439   5.809  3.0647  1.4143  0.5646
12328TIP3    H258400   3.524   0.507   5.941 -2.3453  0.0796  0.1935
12329TIP3   OH258401   4.570   0.983  15.537 -0.0861  0.5646 -0.4394
12329TIP3    H158402   4.490   0.932  15.524 -0.4168  0.9115  0.1531
12329TIP3    H258403   4.546   1.072  15.512 -0.5112  1.0904  1.6097
12330TIP3   OH258404   4.688   6.735   3.363  0.1886  0.2433  0.2124
12330TIP3    H158405   4.727   6.810   3.408 -0.1477  0.3177  0.3865
12330TIP3    H258406   4.760   6.675   3.348  0.1453 -0.2192  1.7334
12331TIP3   OH258407   3.146   2.617  13.744  0.4607 -0.7353  0.0577
12331TIP3    H158408   3.195   2.698  13.759 -0.1964  0.3689 -2.9601
12331TIP3    H258409   3.066   2.627  13.796  0.7821  0.1741  0.3954
12332TIP3   OH258410   5.262   3.449   4.753  0.0642  0.4089  0.0744
12332TIP3    H158411   5.188   3.410   4.801  0.0007 -0.4721 -0.7107
12332TIP3    H258412   5.247   3.424   4.662 -0.0988  2.4870 -0.5258
12333TIP3   OH258413   0.825   6.313   2.457 -0.2431 -0.1463 -0.2252
12333TIP3    H158414   0.778   6.302   2.540  0.5027 -2.0494 -0.0197
12333TIP3    H258415   0.914   6.337   2.483 -0.6077  1.7507 -0.5776
12334TIP3   OH258416   6.370   1.217   4.365  0.0139  0.2566 -0.4901
12334TIP3    H158417   6.303   1.257   4.422  1.3761  0.1819  1.2494
12334TIP3    H258418   6.362   1.123   4.382  1.4583  0.3334  0.8651
12335TIP3   OH258419   3.508   6.259   4.770 -0.4331 -0.0018 -0.5003
12335TIP3    H158420   3.527   6.166   4.759  1.2756  0.3603 -0.8344
12335TIP3    H258421   3.530   6.298   4.685 -1.0308  0.7265 -0.3319
12336TIP3   OH258422   4.100   1.722   0.115 -0.4607  0.0785  0.0477
12336TIP3    H158423   4.166   1.653   0.120 -2.0779 -1.6190 -0.8179
12336TIP3    H258424   4.074   1.737   0.205  0.2890 -0.0587  0.2930
12337TIP3   OH258425   2.111   6.580  14.228  0.7303 -0.0592 -0.3359
12337TIP3    H158426   2.070   6.652  14.276 -2.3897 -1.0324 -1.2974
12337TIP3    H258427   2.188   6.620  14.187  1.0076  1.8447  1.8231
12338TIP3   OH258428   0.078   0.704   0.204 -0.5721 -0.0329  0.3212
12338TIP3    H158429   0.104   0.650   0.129 -2.0357  0.0113 -0.2620
12338TIP3    H258430   0.156   0.708   0.259  0.6429  0.1697 -1.3372
12339TIP3   OH258431   2.261   0.852  16.280  0.1539 -0.0486 -0.1065
12339TIP3    H158432   2.175   0.864  16.240 -0.3857 -2.7805  0.0295
12339TIP3    H258433   2.244   0.801  16.359  1.9679 -2.2782 -1.0025
12340TIP3   OH258434   4.104   2.952   5.565  0.2420 -0.6046  0.4006
12340TIP3    H158435   4.081   2.901   5.642 -2.3577  0.9467  0.7626
12340TIP3    H258436   4.130   3.038   5.599  0.2743 -0.2970 -0.3641
12341TIP3   OH258437   0.922   4.390   0.083  0.5579 -0.1131 -0.1904
12341TIP3    H158438   0.834   4.408   0.116  0.9635  1.1643  0.2875
12341TIP3    H258439   0.913   4.387  -0.012  0.1207  0.8060 -0.1867
12342TIP3   OH258440   1.235   2.077  10.807 -0.5128  0.1830  0.8372
12342TIP3    H158441   1.266   2.150  10.753 -1.1195 -2.8005 -4.0497
12342TIP3    H258442   1.309   2.015  10.807 -1.2874 -0.7688  1.7440
12343TIP3   OH258443   4.561   2.331   3.229  0.6516 -0.0926  0.2152
12343TIP3    H158444   4.518   2.264   3.282  1.5411 -0.3805  0.6034
12343TIP3    H258445   4.495   2.398   3.217 -1.3030 -2.3066 -2.7173
12344TIP3   OH258446   0.324   5.635  16.562  0.0360 -0.5391  0.6452
12344TIP3    H158447   0.415   5.607  16.573  0.3418  0.6061  1.1753
12344TIP3    H258448   0.289   5.636  16.651  0.0801  0.8337  0.6718
12345TIP3   OH258449   4.416   3.834   3.423 -0.1521 -0.3205 -0.2244
12345TIP3    H158450   4.394   3.790   3.505  1.1740  0.8921  0.8272
12345TIP3    H258451   4.333   3.870   3.391 -0.3125  1.3993  1.9468
12346TIP3   OH258452   6.747   1.138   2.162 -0.1046  0.4545 -0.5061
12346TIP3    H158453   6.692   1.212   2.136 -0.1643  0.3349 -0.7172
12346TIP3    H258454   6.830   1.154   2.117  0.2972  1.0467  0.4213
12347TIP3   OH258455   6.257   0.475   4.326  0.0061  0.1332  0.2131
12347TIP3    H158456   6.338   0.509   4.288  0.7026  0.4193  1.8871
12347TIP3    H258457   6.218   0.550   4.371 -1.5052  0.1374 -1.0266
12348TIP3   OH258458   2.585   3.201  15.808  0.0122 -0.0887  0.0069
12348TIP3    H158459   2.668   3.248  15.805 -0.3744  0.6098  0.1761
12348TIP3    H258460   2.610   3.108  15.809  0.7402  0.0513 -1.9795
12349TIP3   OH258461   5.052   2.135  16.496 -0.2668  0.2838 -0.0725
12349TIP3    H158462   5.119   2.188  16.539  0.9303  0.1982 -1.7177
12349TIP3    H258463   5.010   2.194  16.434 -3.1494  0.8852  2.1982
12350TIP3   OH258464   3.613   2.867  13.750  0.2597 -0.0795 -0.0227
12350TIP3    H158465   3.637   2.881  13.659  1.5428 -1.7100  0.0097
12350TIP3    H258466   3.666   2.929  13.800  0.7490 -0.2776 -0.2910
12351TIP3   OH258467   1.174   5.628  13.804 -0.0971  0.5207 -0.4115
12351TIP3    H158468   1.210   5.717  13.808  0.5792  0.4539 -3.1340
12351TIP3    H258469   1.106   5.633  13.737 -1.2482 -0.6876  0.6078
12352TIP3   OH258470   4.385   0.772  14.518 -0.0347 -0.2196  0.4976
12352TIP3    H158471   4.293   0.749  14.535  0.6289 -1.3536  3.0228
12352TIP3    H258472   4.420   0.695  14.473 -0.1410 -0.0628  0.1403
12353TIP3   OH258473   3.533   6.585  12.465 -0.8924  0.5448 -0.7481
12353TIP3    H158474   3.507   6.499  12.431 -1.3741  0.6671 -0.6896
12353TIP3    H258475   3.580   6.626  12.393  1.2091 -0.5883 -0.1073
12354TIP3   OH258476   4.016   0.248   2.917  0.1047 -0.3046  0.1336
12354TIP3    H158477   4.014   0.276   2.825 -0.9997  0.4356  0.3611
12354TIP3    H258478   4.109   0.241   2.938  0.4024  1.1513 -0.5577
12355TIP3   OH258479   4.817   2.950   5.059 -0.3212 -0.2350  0.2713
12355TIP3    H158480   4.832   3.044   5.047 -0.8899  0.1985  2.5233
12355TIP3    H258481   4.903   2.915   5.083 -0.5362  0.1618  1.7161
12356TIP3   OH258482   0.028   6.073  15.805 -0.6567 -0.3007 -0.4149
12356TIP3    H158483  -0.030   6.062  15.881 -1.6357 -3.0097 -1.4390
12356TIP3    H258484   0.052   6.165  15.807 -1.5733 -0.0062  2.5024
12357TIP3   OH258485   3.175   3.878   0.019  0.5364  0.1871 -0.0745
12357TIP3    H158486   3.239   3.872   0.090  0.3787  1.5501  0.2072
12357TIP3    H258487   3.151   3.787   0.000  0.6722 -0.2102  1.5339
12358TIP3   OH258488   5.253   6.545  11.992 -0.0147  0.1882 -0.3348
12358TIP3    H158489   5.324   6.537  11.928  0.2154  0.1120 -0.0709
12358TIP3    H258490   5.275   6.624  12.042  0.0126  0.0304 -0.0955
12359TIP3   OH258491   5.260   4.859   3.172 -0.3757 -0.1877 -0.0039
12359TIP3    H158492   5.181   4.912   3.169 -0.6285 -0.6007 -2.4953
12359TIP3    H258493   5.332   4.922   3.175 -0.6878  0.3705 -2.3933
12360TIP3   OH258494   6.693   0.794  12.814 -0.5324  0.0130  0.1802
12360TIP3    H158495   6.706   0.839  12.897  1.5726 -0.2662  0.0412
12360TIP3    H258496   6.754   0.721  12.815 -0.6334 -0.1527 -1.5065
12361TIP3   OH258497   5.423   3.483  11.733  0.2988 -0.6881 -0.0511
12361TIP3    H158498   5.490   3.416  11.745 -1.5711 -2.7147 -0.3666
12361TIP3    H258499   5.377   3.456  11.653 -0.3122  1.1867 -0.3705
12362TIP3   OH258500   4.651   2.660  12.046 -0.3330 -0.0428  0.5197
12362TIP3    H158501   4.734   2.615  12.031 -0.6534 -0.4550 -0.0305
12362TIP3    H258502   4.639   2.656  12.141  1.6602  2.5074  0.9874
12363TIP3   OH258503   1.009   3.773  16.684  0.0557  0.3218 -0.3390
12363TIP3    H158504   1.087   3.795  16.736  0.0059  2.1208 -0.9783
12363TIP3    H258505   1.044   3.749  16.598  0.0583 -1.6271  0.1507
12364TIP3   OH258506   3.557   6.513   4.451 -0.3781  0.0816 -0.4872
12364TIP3    H158507   3.508   6.501   4.370  1.8462  1.7376 -2.2030
12364TIP3    H258508   3.619   6.439   4.452 -1.4875 -0.8772  0.6334
12365TIP3   OH258509   2.942   3.494  15.064  0.1787 -1.2779 -0.0580
12365TIP3    H158510   2.859   3.452  15.088 -1.1688  0.2538 -1.7542
12365TIP3    H258511   2.953   3.473  14.971  0.3023  0.7037 -0.5228
12366TIP3   OH258512   5.853   3.110   0.888 -0.3205  0.0952 -0.1444
12366TIP3    H158513   5.888   3.191   0.849 -0.9605  0.8271  0.7457
12366TIP3    H258514   5.913   3.041   0.859  0.6021  0.9863 -0.4192
12367TIP3   OH258515   1.195   6.615  15.733 -0.4082 -0.4803 -0.3929
12367TIP3    H158516   1.117   6.559  15.736  0.5832 -2.0106 -1.3775
12367TIP3    H258517   1.238   6.602  15.817 -0.4858 -0.7639 -0.3962
12368TIP3   OH258518   2.135   1.614   4.467 -0.6677 -0.1927 -0.2091
12368TIP3    H158519   2.189   1.584   4.541 -0.1383 -1.9549 -1.2590
12368TIP3    H258520   2.197   1.624   4.395 -1.0376  2.3534 -0.2637
12369TIP3   OH258521   4.369   6.206   4.034 -0.3001 -0.0855 -0.3067
12369TIP3    H158522   4.289   6.254   4.015 -0.6189  0.6148  2.3797
12369TIP3    H258523   4.440   6.266   4.009 -0.5999 -0.3342 -1.8082
12370TIP3   OH258524   1.510   5.747   0.012 -0.1675  0.3711  0.2129
12370TIP3    H158525   1.478   5.672   0.062  1.5887 -0.4715  0.1345
12370TIP3    H258526   1.431   5.782  -0.030 -0.8644 -2.3331 -0.9652
12371TIP3   OH258527   3.950   6.341  15.100 -0.3987 -0.1770  0.0896
12371TIP3    H158528   3.909   6.402  15.039  2.7830  2.5984  0.4058
12371TIP3    H258529   4.021   6.302  15.049  1.0793  0.7059  1.3804
12372TIP3   OH258530   1.983   5.439  12.754 -0.3696  0.2848  0.2036
12372TIP3    H158531   1.945   5.379  12.818 -0.9837  0.7002  0.2328
12372TIP3    H258532   1.972   5.526  12.792  2.6017  0.3052  1.2525
12373TIP3   OH258533   5.083   2.487  10.108 -0.2449  0.4678  0.3119
12373TIP3    H158534   5.023   2.543  10.157 -2.4853 -1.1636 -0.4079
12373TIP3    H258535   5.030   2.453  10.036  1.4871 -1.2603 -0.2198
12374TIP3   OH258536   4.806   5.667  11.691  0.3375  0.3053 -0.2638
12374TIP3    H158537   4.714   5.654  11.717  0.8549  0.2114  1.6647
12374TIP3    H258538   4.841   5.579  11.681 -0.0222  0.3210 -2.1425
12375TIP3   OH258539   6.326   4.575  14.024  0.2564  0.0319 -0.3178
12375TIP3    H158540   6.371   4.648  14.067  0.2102 -1.3285  2.2376
12375TIP3    H258541   6.373   4.563  13.942  2.5604  0.6485  0.8358
12376TIP3   OH258542   5.937   3.052   5.715  0.2573  0.0184 -0.2309
12376TIP3    H158543   5.851   3.093   5.701  2.2000  3.8258 -2.5741
12376TIP3    H258544   5.950   2.998   5.636 -0.1832 -1.1270  0.4525
12377TIP3   OH258545   0.712   1.235   2.773 -0.0062 -0.2244  0.7147
12377TIP3    H158546   0.747   1.215   2.686 -2.2349 -0.6373 -0.1543
12377TIP3    H258547   0.737   1.160   2.827  1.0355 -0.1583  0.3583
12378TIP3   OH258548   5.681   5.476  14.570  0.2999  0.1423 -0.4691
12378TIP3    H158549   5.724   5.417  14.508  1.0379 -0.2449  0.3830
12378TIP3    H258550   5.656   5.420  14.643  1.2966  0.9034  0.4966
12379TIP3   OH258551   3.050   1.094   1.912 -0.3325  0.3645 -0.1252
12379TIP3    H158552   3.013   1.073   1.826 -0.6776 -1.4874  0.4429
12379TIP3    H258553   2.975   1.101   1.970  0.0464 -2.1538  0.7745
12380TIP3   OH258554   2.808   6.799   2.785 -0.9372  0.3392 -0.2676
12380TIP3    H158555   2.774   6.733   2.846  0.4914  0.7344  1.0042
12380TIP3    H258556   2.737   6.862   2.776 -1.3772 -0.0259  0.5549
12381TIP3   OH258557   2.904   3.320   4.850 -0.0703 -0.4621 -0.0550
12381TIP3    H158558   2.811   3.297   4.849  0.4502 -2.9117 -1.5416
12381TIP3    H258559   2.910   3.396   4.907 -3.5621  2.5784 -3.2784
12382TIP3   OH258560   5.734   1.533   3.446 -0.3341  0.2531 -0.0917
12382TIP3    H158561   5.643   1.504   3.444 -0.7153  1.2669  1.4293
12382TIP3    H258562   5.784   1.455   3.424 -1.4771 -0.8375  1.0010
12383TIP3   OH258563   0.178   0.490   3.186  0.1712  0.0079  0.1547
12383TIP3    H158564   0.233   0.506   3.109 -1.3766 -3.5356 -1.9576
12383TIP3    H258565   0.222   0.417   3.230  0.3039  1.1310  1.9551
12384TIP3   OH258566   6.532   4.509   0.667  0.2174  0.4075  0.1718
12384TIP3    H158567   6.617   4.544   0.694  1.4682 -1.0228 -1.6502
12384TIP3    H258568   6.502   4.569   0.600  2.2558 -1.5841 -2.7879
12385TIP3   OH258569   3.239   3.170  10.698  0.5311 -0.1591  0.2221
12385TIP3    H158570   3.184   3.247  10.714 -2.7410 -2.1419 -0.6230
12385TIP3    H258571   3.253   3.133  10.785 -2.3685 -1.3675  0.2843
12386TIP3   OH258572   2.667   3.428  11.067 -0.3753 -0.7913  0.0164
12386TIP3    H158573   2.577   3.460  11.069 -0.3614 -0.7746  0.4083
12386TIP3    H258574   2.715   3.497  11.021 -0.3193 -0.1771  0.9837
12387TIP3   OH258575   4.810   5.473  12.393 -0.3972 -0.1661  0.0055
12387TIP3    H158576   4.716   5.487  12.385 -0.6059 -1.3211  0.2200
12387TIP3    H258577   4.835   5.430  12.311  0.4865  2.5677 -1.2681
12388TIP3   OH258578   5.245   3.805   5.113  0.1737 -0.1677 -0.6979
12388TIP3    H158579   5.291   3.883   5.080  1.7760 -0.4811  0.6379
12388TIP3    H258580   5.159   3.838   5.139  1.1982  1.4536  0.8915
12389TIP3   OH258581   2.157   3.376   0.733 -0.4307 -0.6839 -0.7446
12389TIP3    H158582   2.168   3.288   0.768  0.8169 -0.5575 -0.7723
12389TIP3    H258583   2.175   3.433   0.807  0.0771 -0.4411 -1.0503
12390TIP3   OH258584   0.454   5.372   6.054 -0.7191 -0.4973 -0.1190
12390TIP3    H158585   0.532   5.355   6.001 -0.0931 -0.3595  0.7358
12390TIP3    H258586   0.433   5.287   6.094  0.1028 -0.1590  1.0936
12391TIP3   OH258587   3.153   0.475   4.461  0.0125 -0.4416 -0.6197
12391TIP3    H158588   3.106   0.487   4.544  0.0486 -1.2382 -0.4800
12391TIP3    H258589   3.168   0.564   4.430  2.0392  0.0028  1.3670
12392TIP3   OH258590   5.419   5.591   0.457 -0.1687 -0.2657 -0.1828
12392TIP3    H158591   5.508   5.557   0.460 -1.0843 -3.0247 -1.1407
12392TIP3    H258592   5.400   5.600   0.364 -1.0672 -0.1473  0.0040
12393TIP3   OH258593   6.666   0.984  16.632 -0.5232  0.2321 -0.0027
12393TIP3    H158594   6.615   1.061  16.658  0.3762  1.1814 -0.9505
12393TIP3    H258595   6.613   0.942  16.564 -0.6570  0.4596 -0.0395
12394TIP3   OH258596   1.894   1.010   1.285 -0.4262 -0.0020  0.2847
12394TIP3    H158597   1.912   0.976   1.197 -1.4447  1.8245 -0.7005
12394TIP3    H258598   1.895   1.105   1.274  1.3280  0.3364  2.6869
12395TIP3   OH258599   1.734   2.969  16.560 -0.0950  0.1230 -0.3205
12395TIP3    H158600   1.644   2.989  16.537  0.0701 -0.7364 -1.8650
12395TIP3    H258601   1.728   2.927  16.646 -0.9918  1.3014  0.2315
12396TIP3   OH258602   5.506   2.064  14.567  0.1563  0.1221 -0.3994
12396TIP3    H158603   5.473   2.000  14.630  0.0900  0.1196 -0.4363
12396TIP3    H258604   5.529   2.013  14.490 -2.4389  0.3955 -1.4743
12397TIP3   OH258605   5.153   2.451   5.858 -0.6011 -0.7242  0.7394
12397TIP3    H158606   5.206   2.373   5.842  0.5749  0.3252 -0.7558
12397TIP3    H258607   5.216   2.521   5.872 -1.6241  0.1401  1.1828
12398TIP3   OH258608   6.586   2.287  16.967  0.2495 -0.4489 -0.0362
12398TIP3    H158609   6.523   2.216  16.969  0.1711 -0.3975 -0.6169
12398TIP3    H258610   6.670   2.244  16.950 -0.0636 -0.2494 -2.4166
12399TIP3   OH258611   2.118   5.000   3.269 -0.4787  0.3658 -0.2059
12399TIP3    H158612   2.146   4.967   3.184  1.3224  0.0921  0.4622
12399TIP3    H258613   2.199   5.029   3.312 -1.1826 -0.5614  1.8732
12400TIP3   OH258614   3.812   0.015   2.828  0.0457  0.1311  0.0256
12400TIP3    H158615   3.776  -0.069   2.800  0.5385 -0.1716  0.2891
12400TIP3    H258616   3.875   0.038   2.760 -0.8605  0.8191 -0.6046
12401TIP3   OH258617   4.128   1.829  16.220  0.4986 -0.5290 -0.9111
12401TIP3    H158618   4.219   1.822  16.247  0.4397 -0.3571 -0.6585
12401TIP3    H258619   4.081   1.769  16.278  0.2211  0.6585  0.1422
12402TIP3   OH258620   4.430   0.151   4.061 -0.2974 -0.0637 -0.5491
12402TIP3    H158621   4.437   0.146   3.965 -2.7070 -0.1392 -0.7753
12402TIP3    H258622   4.495   0.088   4.092 -0.7430 -1.4650 -2.2266
12403TIP3   OH258623   6.498   3.496   4.996  0.5700 -0.0119 -0.2896
12403TIP3    H158624   6.431   3.519   4.931 -0.1141 -1.1535 -0.0138
12403TIP3    H258625   6.488   3.560   5.065 -1.0127 -0.8092  0.2703
12404TIP3   OH258626   2.408   5.330  15.832 -0.2821  0.0303  0.1307
12404TIP3    H158627   2.386   5.292  15.747 -0.8727 -0.1535  0.3597
12404TIP3    H258628   2.467   5.267  15.873 -0.0764  0.0719 -0.0985
12405TIP3   OH258629   5.633   6.612   6.418  0.1233  0.0138 -0.0210
12405TIP3    H158630   5.708   6.554   6.404  0.7949  0.6632  0.7146
12405TIP3    H258631   5.558   6.553   6.427  0.6244 -0.6790 -0.2929
12406TIP3   OH258632   5.457   4.801  13.424 -0.0968 -0.2711  0.5543
12406TIP3    H158633   5.489   4.796  13.514 -2.1884 -1.7523  1.3103
12406TIP3    H258634   5.411   4.718  13.410  0.5810 -0.2954 -2.0780
12407TIP3   OH258635   5.992   4.583   0.722 -0.5196  0.3022  0.3129
12407TIP3    H158636   5.958   4.560   0.808  1.4781 -0.3945  0.9784
12407TIP3    H258637   6.087   4.567   0.728 -0.3416 -0.0003 -2.0872
12408TIP3   OH258638   6.756   3.268  16.133 -0.2696  0.3147 -0.1514
12408TIP3    H158639   6.782   3.359  16.114  0.6599  0.0193 -0.3476
12408TIP3    H258640   6.728   3.271  16.225  1.6302  0.4399  0.4738
12409TIP3   OH258641   6.602   6.186  14.270 -0.0223  0.5088 -0.3821
12409TIP3    H158642   6.649   6.260  14.231  0.1712 -0.1743 -1.4798
12409TIP3    H258643   6.596   6.121  14.200  1.6441 -1.4057  1.1274
12410TIP3   OH258644   0.571   3.874   4.603  0.2780 -1.4323  0.1531
12410TIP3    H158645   0.543   3.852   4.514  3.0910 -0.6177 -1.0204
12410TIP3    H258646   0.585   3.968   4.601 -0.5048 -1.2430  1.7904
12411TIP3   OH258647   5.150   5.966   2.665  0.7674  0.5203 -0.1814
12411TIP3    H158648   5.129   5.930   2.578  0.4466  1.7749 -0.6378
12411TIP3    H258649   5.218   5.907   2.699  1.1424  0.1944 -1.4308
12412TIP3   OH258650   1.470   4.697  13.569 -0.0573 -0.4139 -0.0009
12412TIP3    H158651   1.470   4.632  13.640  0.2101 -0.2446  0.1566
12412TIP3    H258652   1.526   4.659  13.501 -0.1420 -0.4820 -0.0327
12413TIP3   OH258653   6.178   5.874  14.092  0.3479 -0.4277 -0.6711
12413TIP3    H158654   6.186   5.970  14.095 -2.1099 -0.1978  0.0940
12413TIP3    H258655   6.239   5.844  14.160 -0.5490  0.7490  0.7135
12414TIP3   OH258656   2.359   0.341  13.920 -0.3795  0.1987  0.2433
12414TIP3    H158657   2.337   0.431  13.898  0.6701  0.1683 -1.1047
12414TIP3    H258658   2.301   0.288  13.866  0.2021  0.0979 -0.2967
12415TIP3   OH258659   4.530   2.862   3.973  0.2980  0.1606  0.1466
12415TIP3    H158660   4.483   2.905   4.045  2.0697  1.1724  0.7597
12415TIP3    H258661   4.573   2.933   3.927  0.5164 -0.6521 -0.9321
12416TIP3   OH258662   6.405   5.622  14.270 -0.1449 -0.2370  0.2841
12416TIP3    H158663   6.486   5.604  14.223 -0.8011 -0.0803 -0.9463
12416TIP3    H258664   6.413   5.573  14.352  1.2761 -0.0462  0.2831
12417TIP3   OH258665   6.020   2.041   2.491 -0.2271  0.1570  0.6952
12417TIP3    H158666   5.938   2.071   2.452 -0.1355  0.5345  0.7939
12417TIP3    H258667   5.993   1.987   2.566 -0.3723  1.4087  1.5617
12418TIP3   OH258668   5.097   4.014  12.072 -0.2820 -0.3938  0.2135
12418TIP3    H158669   5.081   3.958  12.148 -3.1810  2.1715  1.7459
12418TIP3    H258670   5.106   4.102  12.110 -2.5982  1.1038 -2.3476
12419TIP3   OH258671   6.388   5.189   1.538  0.2980  0.2589  0.5622
12419TIP3    H158672   6.294   5.183   1.551  0.5376  0.4857  2.8991
12419TIP3    H258673   6.417   5.099   1.524 -0.0722 -0.0616  1.7439
12420TIP3   OH258674   4.382   5.469   1.767  0.1099 -0.1404  0.9847
12420TIP3    H158675   4.397   5.562   1.781  1.2158  0.1351 -1.4966
12420TIP3    H258676   4.410   5.453   1.677  0.3242 -2.9621  1.4436
12421TIP3   OH258677   2.773   1.037   4.038  0.6927  0.3934 -0.0309
12421TIP3    H158678   2.742   1.110   4.091 -1.9394 -0.0738 -0.8022
12421TIP3    H258679   2.734   1.052   3.952  3.8852  0.4903 -1.6022
12422TIP3   OH258680   2.581   2.558  13.526  0.3121  0.0266  0.5303
12422TIP3    H158681   2.666   2.575  13.568  0.3243  0.0566  0.4934
12422TIP3    H258682   2.589   2.471  13.489 -0.5952 -1.1492  2.8572
12423TIP3   OH258683   2.140   1.017  10.975  0.2529 -0.2227 -0.4333
12423TIP3    H158684   2.052   1.052  10.988  0.9329  1.8824 -1.0120
12423TIP3    H258685   2.161   0.971  11.056 -0.9739  0.1926  0.1345
12424TIP3   OH258686   3.315   3.343  16.315 -0.0267 -0.3463  0.5105
12424TIP3    H158687   3.248   3.292  16.360 -2.0110  1.2614 -0.4707
12424TIP3    H258688   3.291   3.434  16.331  0.9907  0.2814 -1.2002
12425TIP3   OH258689   6.609   6.492   1.042  0.1990 -0.3026  0.9008
12425TIP3    H158690   6.529   6.493   1.095  0.6293  0.8732  1.5381
12425TIP3    H258691   6.646   6.405   1.058 -1.1275 -1.0254  0.2970
12426TIP3   OH258692   3.029   2.112   2.822  0.2835  0.9553  0.6238
12426TIP3    H158693   2.999   2.130   2.733 -2.3121  0.6184  1.3238
12426TIP3    H258694   3.093   2.180   2.841  0.9795  0.9523 -1.5282
12427TIP3   OH258695   0.412   6.535  16.388  0.3097  0.2648  0.0647
12427TIP3    H158696   0.479   6.602  16.374  1.0349 -0.5333 -0.3478
12427TIP3    H258697   0.422   6.510  16.480  1.6846 -0.9899 -0.3851
12428TIP3   OH258698   1.078   5.641   0.865 -0.2452  0.5222  0.1330
12428TIP3    H158699   0.989   5.629   0.899  0.1819 -0.0878  1.0574
12428TIP3    H258700   1.072   5.613   0.773  0.0503 -4.4877  1.3891
12429TIP3   OH258701   5.855   2.255  13.180  0.2441  0.3934  0.6910
12429TIP3    H158702   5.853   2.191  13.251  0.8733  2.2778  2.5077
12429TIP3    H258703   5.849   2.340  13.224 -0.3942  1.6286 -1.6009
12430TIP3   OH258704   1.059   2.735   5.388 -0.2261  0.5754 -0.6715
12430TIP3    H158705   0.965   2.717   5.377 -0.3268  0.8432 -0.2915
12430TIP3    H258706   1.097   2.651   5.412 -0.6812  0.8161  1.0491
12431TIP3   OH258707   4.345   5.673   1.114 -0.0726  0.5006 -0.4995
12431TIP3    H158708   4.394   5.635   1.041 -0.9078  0.9692 -1.3226
12431TIP3    H258709   4.286   5.603   1.141  1.2278 -0.1845  0.7158
12432TIP3   OH258710   2.697   1.093   5.319 -0.3831 -0.1283 -0.0419
12432TIP3    H158711   2.623   1.149   5.299 -0.4738 -0.6713 -1.3289
12432TIP3    H258712   2.691   1.021   5.256  0.1299 -1.2096  1.1076
12433TIP3   OH258713   2.027   3.297   5.230  0.1895  0.7830  0.3137
12433TIP3    H158714   1.999   3.389   5.224 -0.4075  0.5856  0.0976
12433TIP3    H258715   2.053   3.287   5.322  1.6391  1.5576  0.0284
12434TIP3   OH258716   5.079   4.136   0.282 -0.1166 -0.0934  0.6785
12434TIP3    H158717   5.069   4.168   0.371 -0.3247 -1.1676  1.0514
12434TIP3    H258718   5.170   4.104   0.277  0.0565  0.4237  0.3403
12435TIP3   OH258719   3.876   0.533  14.652  0.4039 -0.0683 -0.1134
12435TIP3    H158720   3.840   0.484  14.577 -0.0881 -1.5391  1.0248
12435TIP3    H258721   3.829   0.616  14.650  0.7382  0.1222 -1.7016
12436TIP3   OH258722   6.781   5.212   5.168  0.3915  0.5853 -0.6460
12436TIP3    H158723   6.783   5.282   5.233  0.4965  0.0498 -0.0531
12436TIP3    H258724   6.749   5.253   5.088 -1.0108  0.9746  0.0911
12437TIP3   OH258725   5.734   5.443  12.749 -0.4382  0.2953 -0.1559
12437TIP3    H158726   5.812   5.387  12.747 -1.0660 -0.6024  0.1013
12437TIP3    H258727   5.747   5.504  12.677  1.4876  1.5139  1.0933
12438TIP3   OH258728   0.982   0.669   4.843 -0.9429  0.1833 -0.2155
12438TIP3    H158729   1.003   0.751   4.799 -3.3857  0.6380 -0.6320
12438TIP3    H258730   0.918   0.692   4.910  0.7037 -0.9320  1.8878
12439TIP3   OH258731   6.547   4.036  12.335 -0.8449  0.0396  0.3811
12439TIP3    H158732   6.547   4.057  12.242 -0.5838 -1.0912  0.1023
12439TIP3    H258733   6.458   4.009  12.355 -1.0093  0.7172  0.5685
12440TIP3   OH258734   6.577   0.336  17.050 -0.4612  0.3964 -0.5712
12440TIP3    H158735   6.595   0.311  17.140  0.6066  0.0627 -0.8537
12440TIP3    H258736   6.520   0.266  17.016 -0.0716  0.0115 -0.4365
12441TIP3   OH258737   1.386   2.330   3.194 -0.5187  0.4579  0.0311
12441TIP3    H158738   1.296   2.348   3.168 -0.5870 -1.8197 -1.6903
12441TIP3    H258739   1.382   2.244   3.236  0.7323  0.8096  0.9422
12442TIP3   OH258740   2.416   5.337   0.338  0.0308 -0.3843  0.3209
12442TIP3    H158741   2.320   5.340   0.340  0.0156 -0.6498 -0.0445
12442TIP3    H258742   2.439   5.326   0.246  0.4596  1.0309  0.2445
12443TIP3   OH258743   0.977   5.764  13.078  0.2429 -0.0061 -0.1103
12443TIP3    H158744   0.971   5.772  12.983  0.9439  1.8908 -0.0380
12443TIP3    H258745   1.036   5.834  13.104 -1.2602  0.6126  1.8811
12444TIP3   OH258746   4.073   6.458  16.871 -0.2982  0.3213  0.2116
12444TIP3    H158747   4.001   6.435  16.929  1.4860 -2.3733  1.6136
12444TIP3    H258748   4.071   6.554  16.866 -3.6076  0.3737  0.5241
12445TIP3   OH258749   2.032   6.480   2.599 -0.3198  0.1209 -0.2688
12445TIP3    H158750   2.008   6.408   2.541 -0.9865  0.6272 -0.6394
12445TIP3    H258751   2.120   6.504   2.572 -1.0347  1.1218 -1.9169
12446TIP3   OH258752   2.301   0.733  11.730  0.0935  0.0898  0.2667
12446TIP3    H158753   2.348   0.813  11.757  2.3480 -0.6236 -1.2430
12446TIP3    H258754   2.233   0.764  11.671  1.4794  0.9148 -0.9943
12447TIP3   OH258755   5.045   3.523  11.787 -0.8500 -0.0904 -0.5253
12447TIP3    H158756   5.112   3.584  11.755  0.0968 -1.4261 -1.2008
12447TIP3    H258757   4.963   3.556  11.750 -0.3066  0.5298 -1.2119
12448TIP3   OH258758   4.182   4.177  14.433  0.1210  0.4254 -0.8640
12448TIP3    H158759   4.238   4.132  14.370  2.6816  1.3678  0.5581
12448TIP3    H258760   4.203   4.270  14.421 -1.2288  0.8313 -0.3059
12449TIP3   OH258761   0.919   0.195  11.310  0.6827 -0.2108 -0.0052
12449TIP3    H158762   0.890   0.174  11.221  0.4829 -0.6178  0.1533
12449TIP3    H258763   0.916   0.112  11.357  1.2390 -0.0820  0.2593
12450TIP3   OH258764   0.272   3.836   1.275  0.0409  0.5842 -0.4168
12450TIP3    H158765   0.238   3.922   1.251 -0.2319  0.1135 -1.7876
12450TIP3    H258766   0.207   3.774   1.242  1.0080 -0.2155 -0.8834
12451TIP3   OH258767   2.027   5.118  15.679 -0.1030  0.0983 -0.4247
12451TIP3    H158768   1.982   5.175  15.741  0.5324  1.7234 -1.3979
12451TIP3    H258769   2.003   5.030  15.706  0.4731  0.6978  2.3900
12452TIP3   OH258770   4.994   2.158  13.536  0.1939 -0.1898 -0.1768
12452TIP3    H158771   5.017   2.212  13.460  1.1866 -0.2748  0.0501
12452TIP3    H258772   5.054   2.084  13.532 -1.0645 -1.2274 -0.4022
12453TIP3   OH258773   0.690   6.025  14.087 -0.2229  0.8767 -0.3886
12453TIP3    H158774   0.746   6.085  14.136 -0.8290  0.8051  0.4047
12453TIP3    H258775   0.634   5.985  14.153 -2.2799  2.0765 -1.3122
12454TIP3   OH258776   4.386   1.514  16.390 -0.5644  0.1292 -0.3304
12454TIP3    H158777   4.391   1.472  16.304 -1.7139 -0.9694  0.0899
12454TIP3    H258778   4.311   1.471  16.432  0.6062 -0.1269  1.6225
12455TIP3   OH258779   2.551   1.464  15.125  0.2506  0.0530  0.2599
12455TIP3    H158780   2.513   1.509  15.200 -1.4240 -0.6505 -0.1091
12455TIP3    H258781   2.595   1.533  15.075 -0.0070  0.8084  1.0575
12456TIP3   OH258782   3.616   4.437  13.863  0.4609 -0.8806  0.9317
12456TIP3    H158783   3.691   4.423  13.805  0.1338 -2.0921  0.7688
12456TIP3    H258784   3.543   4.457  13.804  0.5673 -0.0015  1.0738
12457TIP3   OH258785   0.975   3.660   2.093  0.0108  0.3261 -0.1214
12457TIP3    H158786   1.010   3.582   2.049  0.2319  1.1754 -1.5212
12457TIP3    H258787   0.884   3.665   2.064 -0.2390  0.1500  0.6145
12458TIP3   OH258788   0.165   6.273   1.537 -0.3263  0.2174  0.3996
12458TIP3    H158789   0.107   6.350   1.540 -0.0164  0.5118 -0.7147
12458TIP3    H258790   0.253   6.310   1.536 -0.0995 -0.2230  1.7943
12459TIP3   OH258791   3.083   4.466  12.804 -0.6676 -0.7456  0.2982
12459TIP3    H158792   3.062   4.376  12.780 -0.9427 -0.6819  0.2949
12459TIP3    H258793   3.125   4.502  12.726  1.0415 -1.3863  0.8924
12460TIP3   OH258794   6.706   2.373  12.163 -0.1156  0.0831 -0.0579
12460TIP3    H158795   6.643   2.301  12.174 -0.3568 -0.3604 -3.2148
12460TIP3    H258796   6.657   2.441  12.116  1.0046  0.9128 -0.0648
12461TIP3   OH258797   4.956   6.779   1.130 -0.2353  0.3457  0.3193
12461TIP3    H158798   4.880   6.737   1.089 -0.8497  0.5964  1.1783
12461TIP3    H258799   5.019   6.789   1.058 -0.3304 -1.4167 -0.0492
12462TIP3   OH258800   1.823   1.002  14.093  0.0608 -0.5180  0.4174
12462TIP3    H158801   1.887   1.045  14.149 -1.0162 -0.0736  1.3357
12462TIP3    H258802   1.755   0.972  14.152 -0.7128 -0.7584 -0.5662
12463TIP3   OH258803   2.026   3.847   0.303  0.2207  0.3464  0.5878
12463TIP3    H158804   2.082   3.769   0.301  0.3367  0.4259  0.7835
12463TIP3    H258805   2.010   3.863   0.396 -1.7182 -0.8284  0.5108
12464TIP3   OH258806   3.448   5.860  13.345 -0.3082 -0.3716 -0.5177
12464TIP3    H158807   3.510   5.847  13.273 -1.3050 -0.1038 -1.4514
12464TIP3    H258808   3.455   5.781  13.398  1.5772  0.0913 -0.0021
12465TIP3   OH258809   1.141   5.953  13.388  0.8044 -0.4895  0.1315
12465TIP3    H158810   1.211   5.890  13.409  0.4824 -0.0887  2.6493
12465TIP3    H258811   1.187   6.026  13.346  1.8010 -0.5663  1.0462
12466TIP3   OH258812   5.317   2.624  14.293  0.1620  0.5608  0.2971
12466TIP3    H158813   5.230   2.591  14.313  0.6742  0.1483  2.0281
12466TIP3    H258814   5.309   2.719  14.299 -0.2351  0.5420  0.0966
12467TIP3   OH258815   2.337   4.610  15.809  0.4391 -0.0757  0.7760
12467TIP3    H158816   2.398   4.681  15.791 -0.0070  0.1311  0.0095
12467TIP3    H258817   2.330   4.607  15.904  0.5059  0.8715  0.8178
12468TIP3   OH258818   6.767   4.967  13.339 -0.2449  0.2308  0.1232
12468TIP3    H158819   6.772   5.046  13.394  1.4567  0.7933 -0.7776
12468TIP3    H258820   6.743   5.000  13.253  1.8707  0.0057 -0.6142
12469TIP3   OH258821   3.407   3.867   4.309  0.8058 -0.3989 -0.0821
12469TIP3    H158822   3.336   3.919   4.271 -1.4592 -2.8246  0.5824
12469TIP3    H258823   3.392   3.871   4.403  2.5797  0.3570  0.2079
12470TIP3   OH258824   3.147   3.243   4.518  0.4314 -0.6624 -0.4697
12470TIP3    H158825   3.200   3.165   4.532  0.0086 -0.8281  0.2193
12470TIP3    H258826   3.145   3.254   4.423  0.5648 -1.4315 -0.5612
12471TIP3   OH258827   1.025   6.609   6.040 -0.7054 -0.4338  0.4077
12471TIP3    H158828   1.090   6.540   6.056  1.4337  1.3334 -0.1107
12471TIP3    H258829   1.038   6.672   6.111 -1.8110  0.0192  0.2333
12472TIP3   OH258830   6.174   3.584  12.508  0.4448  0.4834  0.0889
12472TIP3    H158831   6.147   3.654  12.569  3.6098  1.1684  0.8940
12472TIP3    H258832   6.183   3.629  12.424 -0.0348  0.4516  0.0193
12473TIP3   OH258833   2.186   6.461   0.235 -0.6425 -0.8718  0.2549
12473TIP3    H158834   2.280   6.474   0.244 -0.7218  0.3573 -0.4797
12473TIP3    H258835   2.176   6.373   0.200  0.2638 -0.8147 -0.1534
12474TIP3   OH258836   2.562   0.544  14.244  0.4312 -0.1013 -0.1438
12474TIP3    H158837   2.652   0.526  14.271  0.7327  0.2541 -0.8742
12474TIP3    H258838   2.543   0.630  14.281 -0.0626 -0.7051  1.0682
12475TIP3   OH258839   4.708   1.063  12.431 -0.1880  0.0661  0.2117
12475TIP3    H158840   4.760   1.021  12.500 -0.7672 -1.7581 -0.3884
12475TIP3    H258841   4.700   0.995  12.364 -1.9508  0.8641 -0.4286
12476TIP3   OH258842   2.657   4.415  12.789 -0.1414  0.3195 -0.0807
12476TIP3    H158843   2.620   4.438  12.704  2.4168  0.5399 -1.2062
12476TIP3    H258844   2.625   4.326  12.806 -1.0174  0.4342 -1.0567
12477TIP3   OH258845   1.584   5.369   3.718  0.8070 -0.3469  0.4494
12477TIP3    H158846   1.501   5.362   3.671  1.8280 -3.4265 -1.2658
12477TIP3    H258847   1.648   5.393   3.651  1.5407  0.5939  1.4441
12478TIP3   OH258848   5.712   3.688  16.270 -0.3192  0.2476  0.3426
12478TIP3    H158849   5.719   3.667  16.363 -0.2580  1.0614  0.5268
12478TIP3    H258850   5.725   3.604  16.225  0.2433 -0.0496  1.0457
12479TIP3   OH258851   2.507   1.228  16.054  0.2249 -0.3497 -0.5625
12479TIP3    H158852   2.588   1.178  16.060 -0.0596 -0.7266  0.1767
12479TIP3    H258853   2.439   1.169  16.087 -0.2992  0.0978 -0.8175
12480TIP3   OH258854   4.776   5.125   4.324  0.2568  0.0007  0.0964
12480TIP3    H158855   4.799   5.211   4.290  0.4904 -0.2942 -0.5136
12480TIP3    H258856   4.767   5.070   4.246  2.0064 -0.9987  0.5495
12481TIP3   OH258857   2.677   5.489  11.285 -0.2230  0.4296 -0.4616
12481TIP3    H158858   2.741   5.554  11.314 -2.3315  2.1057  0.6872
12481TIP3    H258859   2.700   5.410  11.334  0.8325  1.0362  0.0607
12482TIP3   OH258860   2.454   1.008  16.547 -0.5596  0.2109 -0.0515
12482TIP3    H158861   2.366   1.025  16.513 -0.1790 -0.0945 -1.2207
12482TIP3    H258862   2.509   1.073  16.503 -0.2389  0.6094  0.9180
12483TIP3   OH258863   2.757   3.929   2.074 -0.7809 -0.5015  0.6013
12483TIP3    H158864   2.676   3.886   2.103  0.6151 -2.4220  1.8884
12483TIP3    H258865   2.792   3.970   2.154 -0.0267 -0.4981  0.2771
12484TIP3   OH258866   2.471   3.063   2.078 -0.0385  0.5584 -0.2659
12484TIP3    H158867   2.436   3.057   2.167  0.3370  2.2393  0.0279
12484TIP3    H258868   2.427   3.139   2.040 -0.8029 -0.6139 -1.8268
12485TIP3   OH258869   3.521   6.439   5.496 -0.6263 -0.2609  0.1463
12485TIP3    H158870   3.497   6.422   5.587  0.7450  0.7344  0.7225
12485TIP3    H258871   3.464   6.511   5.469 -0.4998 -0.0319  0.4819
12486TIP3   OH258872   2.871   4.049   4.913 -0.4465  0.3937  0.2302
12486TIP3    H158873   2.952   4.078   4.871 -0.5282 -1.9974 -1.8001
12486TIP3    H258874   2.843   4.124   4.966  1.7466  2.1822 -0.9887
12487TIP3   OH258875   2.501   4.550  11.747 -0.8937  0.4791 -0.1732
12487TIP3    H158876   2.496   4.646  11.751 -1.6946  0.3976  1.3551
12487TIP3    H258877   2.428   4.520  11.801 -0.8003 -1.0124 -0.8279
12488TIP3   OH258878   5.073   3.416  13.249  0.2125  0.1102 -0.2368
12488TIP3    H158879   5.141   3.447  13.309 -0.3718  0.9209  0.0227
12488TIP3    H258880   5.089   3.321  13.242  1.8111  0.3890 -0.7599
12489TIP3   OH258881   1.499   5.339  12.211  0.2740 -0.6372  0.1240
12489TIP3    H158882   1.546   5.365  12.132  1.2006  0.0142  0.8670
12489TIP3    H258883   1.567   5.330  12.278 -0.6052 -0.1032  1.1194
12490TIP3   OH258884   3.679   1.234  16.993  0.5160 -0.2031  0.3237
12490TIP3    H158885   3.642   1.243  16.905  1.4121  0.5610  0.0147
12490TIP3    H258886   3.673   1.322  17.030  1.8057 -0.1225  0.3538
12491TIP3   OH258887   2.202   6.694   1.210  0.1843 -0.6333  0.1634
12491TIP3    H158888   2.210   6.736   1.124  0.0857 -0.3113  0.3143
12491TIP3    H258889   2.288   6.705   1.250  0.1065 -0.4364  0.2708
12492TIP3   OH258890   3.652   0.233   2.618 -0.2239 -0.1912 -0.3894
12492TIP3    H158891   3.734   0.247   2.572 -0.3263  2.3254  0.0713
12492TIP3    H258892   3.677   0.225   2.710 -0.4959  1.0726 -0.1887
12493TIP3   OH258893   2.044   2.418  12.770 -0.1735  0.0605  0.3383
12493TIP3    H158894   2.083   2.479  12.832 -0.0399 -1.0937  1.4260
12493TIP3    H258895   2.103   2.342  12.769  0.2849  0.3613 -1.8503
12494TIP3   OH258896   1.138   6.632  14.591 -0.1777 -0.0237 -0.4502
12494TIP3    H158897   1.153   6.671  14.676 -0.6601 -0.4558 -0.1604
12494TIP3    H258898   1.170   6.542  14.599  0.2801  0.0959 -0.8913
12495TIP3   OH258899   3.480   3.421  12.969 -0.0620 -0.3791 -0.0457
12495TIP3    H158900   3.500   3.381  13.053  0.5653 -0.5488 -0.2664
12495TIP3    H258901   3.555   3.398  12.913 -0.9413 -1.1489 -0.9526
12496TIP3   OH258902   6.719   0.537   1.012  0.5446  0.2349  0.2741
12496TIP3    H158903   6.698   0.580   0.929 -1.7908 -1.7412 -0.2737
12496TIP3    H258904   6.644   0.554   1.069 -0.1711 -2.3394  0.2651
12497TIP3   OH258905   0.459   3.963   0.395 -0.0753 -0.7032  0.0242
12497TIP3    H158906   0.526   4.011   0.443 -1.3107 -0.4647  1.5740
12497TIP3    H258907   0.509   3.901   0.341  1.4207  0.3356  0.1456
12498TIP3   OH258908   3.232   3.563   5.605  0.3227  0.3157  0.0313
12498TIP3    H158909   3.295   3.515   5.658 -0.3549 -0.2747  0.3213
12498TIP3    H258910   3.231   3.519   5.521  0.3805  0.3915 -0.0090
12499TIP3   OH258911   1.370   3.726  14.370  0.0789 -0.4629  0.4012
12499TIP3    H158912   1.340   3.814  14.350  1.6362 -0.0071 -0.0740
12499TIP3    H258913   1.416   3.735  14.454 -1.3609 -1.2154  1.3118
12500TIP3   OH258914   0.831   5.210  14.981  0.3849  0.1467  0.0121
12500TIP3    H158915   0.911   5.162  15.003 -0.3603 -1.6052 -0.9680
12500TIP3    H258916   0.861   5.285  14.929  1.3855 -0.4476 -0.2788
12501TIP3   OH258917   0.984   5.433  15.777  0.0526 -0.3642 -0.9389
12501TIP3    H158918   1.018   5.522  15.769  1.1159 -0.6567  0.0392
12501TIP3    H258919   0.893   5.444  15.805  0.1810  0.4059 -0.8182
12502TIP3   OH258920   2.538   3.238   2.418 -0.2114  0.2322 -0.2982
12502TIP3    H158921   2.625   3.227   2.378 -0.5836  0.6742 -1.2495
12502TIP3    H258922   2.487   3.164   2.384  0.2573 -1.0437  1.6347
12503TIP3   OH258923   4.172   2.625  11.233 -0.1135  0.4356  0.3585
12503TIP3    H158924   4.105   2.670  11.181 -1.7078  0.0378  1.9750
12503TIP3    H258925   4.130   2.544  11.261  1.6973 -0.6902 -0.0618
12504TIP3   OH258926   6.148   5.942  13.675  0.3351  0.3542 -0.3625
12504TIP3    H158927   6.123   5.972  13.762 -0.8281 -1.5076  0.0125
12504TIP3    H258928   6.180   5.853  13.690  0.6992  0.2351 -1.7684
12505TIP3   OH258929   3.410   0.140   3.588  0.4168  0.0409 -0.7837
12505TIP3    H158930   3.371   0.218   3.627 -1.2859 -0.6877 -0.9004
12505TIP3    H258931   3.374   0.137   3.500  1.4739 -0.2069 -1.2193
12506TIP3   OH258932   3.057   2.781   3.292  0.0686  0.0980  0.2549
12506TIP3    H158933   2.983   2.785   3.231  0.6957  1.5456 -0.4394
12506TIP3    H258934   3.120   2.844   3.258  1.4272 -0.7404  1.1233
12507TIP3   OH258935   5.938   2.082  12.655  0.2757 -0.1820  0.1782
12507TIP3    H158936   5.999   2.034  12.712 -1.6428 -1.0407  1.6133
12507TIP3    H258937   5.914   2.018  12.587 -0.2879 -0.4300  0.5975
12508TIP3   OH258938   6.757   4.905  13.011  0.2451 -0.4828  0.1885
12508TIP3    H158939   6.809   4.981  13.035  0.3392 -0.1758 -0.9326
12508TIP3    H258940   6.802   4.868  12.935  0.0561 -1.5140  0.5642
12509TIP3   OH258941   6.696   3.334  11.716 -0.0823  0.0213 -0.3215
12509TIP3    H158942   6.715   3.299  11.629 -1.4333  1.8925 -1.4531
12509TIP3    H258943   6.601   3.326  11.725 -0.1316  1.1370  0.3749
12510TIP3   OH258944   3.461   6.418   0.194 -0.5027 -0.0337  0.7104
12510TIP3    H158945   3.551   6.426   0.225  0.2176  0.7749 -1.3876
12510TIP3    H258946   3.434   6.508   0.175 -1.3862 -0.3595  0.3536
12511TIP3   OH258947   6.322   2.856  13.375  0.1816 -0.6663 -0.0464
12511TIP3    H158948   6.404   2.897  13.402  1.5558 -1.9358 -1.9698
12511TIP3    H258949   6.346   2.766  13.354 -2.2750 -1.8710  1.8530
12512TIP3   OH258950   2.960   5.915   3.222 -0.0096 -0.1479 -0.1579
12512TIP3    H158951   2.941   5.821   3.221  0.7635 -0.3145  0.0965
12512TIP3    H258952   3.024   5.926   3.293 -1.1701  0.7863  0.7997
12513TIP3   OH258953   2.590   5.576  13.683 -0.0141  0.0712 -0.0232
12513TIP3    H158954   2.563   5.637  13.615  0.3347  0.8641  0.5461
12513TIP3    H258955   2.644   5.627  13.743 -1.8127 -0.0963  1.8891
12514TIP3   OH258956   3.140   2.705  16.766  0.1804 -0.2512 -0.4178
12514TIP3    H158957   3.073   2.706  16.834 -0.4854  0.7271 -1.0473
12514TIP3    H258958   3.207   2.766  16.797  1.7430 -2.5821  1.0719
12515TIP3   OH258959   6.227   2.955  14.467 -0.2354 -0.0290 -0.1870
12515TIP3    H158960   6.144   2.940  14.513  0.6180 -0.1662  1.4147
12515TIP3    H258961   6.203   3.002  14.387 -1.7565  0.8864  0.7553
12516TIP3   OH258962   6.389   5.495  15.305 -0.4996  0.0253 -0.5341
12516TIP3    H158963   6.472   5.498  15.353  0.3069  4.0414 -1.7869
12516TIP3    H258964   6.354   5.408  15.322  2.6170 -0.8576  2.3113
12517TIP3   OH258965   6.401   0.777  10.432  0.0055 -0.0996 -0.4874
12517TIP3    H158966   6.430   0.782  10.523 -1.6085 -2.4557  0.2374
12517TIP3    H258967   6.347   0.856  10.420  1.4573  1.0293  0.0601
12518TIP3   OH258968   1.893   3.944  14.042 -0.2060  0.4349  0.0220
12518TIP3    H158969   1.959   3.998  13.998 -0.9618  1.2076 -0.1909
12518TIP3    H258970   1.938   3.862  14.061  0.7628  0.8825 -0.2795
12519TIP3   OH258971   3.658   1.416   1.080  0.2700 -0.0901 -0.0379
12519TIP3    H158972   3.683   1.474   1.008 -1.0541  0.5667 -0.0119
12519TIP3    H258973   3.563   1.405   1.070  0.0701 -0.0922  1.5181
12520TIP3   OH258974   4.126   5.477   1.088  0.1689 -0.3014  0.5846
12520TIP3    H158975   4.089   5.464   1.001  1.1138 -1.7999  0.3773
12520TIP3    H258976   4.056   5.449   1.148 -0.6890  1.2429  0.3784
12521TIP3   OH258977   0.828   4.891   0.366  0.0400  0.2621 -0.2550
12521TIP3    H158978   0.754   4.936   0.325 -0.5550  0.5396  1.0674
12521TIP3    H258979   0.798   4.873   0.455  1.3664 -0.1267  0.1279
12522TIP3   OH258980   3.247   5.190   6.038  0.2166 -0.2545 -0.9763
12522TIP3    H158981   3.324   5.140   6.012 -0.4734 -2.5794  1.1605
12522TIP3    H258982   3.176   5.127   6.037 -1.2564  1.3373 -0.7329
12523TIP3   OH258983   5.040   2.462   2.054  0.4963 -0.3228  0.1805
12523TIP3    H158984   4.989   2.406   2.114 -0.4592 -0.0560 -0.3634
12523TIP3    H258985   5.026   2.423   1.968 -0.2115  0.7626 -0.2110
12524TIP3   OH258986   1.074   3.130   5.255 -0.3300  0.1685 -0.4121
12524TIP3    H158987   1.168   3.120   5.243 -0.5018 -0.7642 -1.0683
12524TIP3    H258988   1.062   3.138   5.349  0.4256  0.5418 -0.3419
12525TIP3   OH258989   4.107   5.573   3.578  0.3086 -0.0056 -0.3770
12525TIP3    H158990   4.159   5.493   3.568 -0.7260 -0.5104 -2.2247
12525TIP3    H258991   4.132   5.607   3.664  0.2027 -2.7393  0.8517
12526TIP3   OH258992   6.501   1.421  14.834 -0.5904 -0.3215  0.0347
12526TIP3    H158993   6.575   1.470  14.869 -0.2035  0.0806 -1.2774
12526TIP3    H258994   6.487   1.457  14.746 -2.2864 -0.4576  0.2094
12527TIP3   OH258995   1.346   0.531  12.545 -0.6507  0.0014  0.2024
12527TIP3    H158996   1.427   0.479  12.541 -1.2978 -1.2716  2.3719
12527TIP3    H258997   1.366   0.603  12.605 -1.1324 -0.3261  0.7577
12528TIP3   OH258998   5.637   0.962   2.993 -0.2419 -0.0442  0.1107
12528TIP3    H158999   5.603   0.909   3.065 -1.5582 -0.6264 -0.8990
12528TIP3    H259000   5.560   0.985   2.942  0.2647  2.8792  0.4882
12529TIP3   OH259001   2.517   1.817   6.526 -0.5604 -0.3656 -0.5942
12529TIP3    H159002   2.423   1.833   6.524 -0.5669 -0.3955 -2.5133
12529TIP3    H259003   2.539   1.788   6.437  1.3736  0.2570 -0.3838
12530TIP3   OH259004   5.348   4.825   5.275  0.0030  0.3696 -0.1515
12530TIP3    H159005   5.270   4.772   5.295 -0.3296  0.3009 -1.5525
12530TIP3    H259006   5.410   4.801   5.343 -0.0806 -1.9768 -0.8075
12531TIP3   OH259007   2.778   6.405   4.379 -0.0592  0.2968 -0.3967
12531TIP3    H159008   2.861   6.433   4.418 -0.1259  2.4845 -1.6596
12531TIP3    H259009   2.759   6.472   4.313 -2.3113 -0.7264 -0.8721
12532TIP3   OH259010   6.334   2.031  11.090 -0.2125 -0.5123  0.0754
12532TIP3    H159011   6.348   2.004  10.999 -0.8608 -0.5661 -0.0090
12532TIP3    H259012   6.285   1.960  11.129 -2.2213  0.6428 -0.2321
12533TIP3   OH259013   4.089   1.204   3.063 -0.4249  0.1496  0.1277
12533TIP3    H159014   4.089   1.169   3.152  0.0123  0.6677  0.3369
12533TIP3    H259015   3.997   1.206   3.038 -0.5676  0.1628  0.6351
12534TIP3   OH259016   0.602   1.201  11.836  0.2343  0.3299  0.5142
12534TIP3    H159017   0.623   1.287  11.871  0.5436  0.6258 -0.3710
12534TIP3    H259018   0.672   1.144  11.870  0.4308  0.5741  0.5274
12535TIP3   OH259019   1.109   2.262  12.707  0.3122 -0.1970  0.2524
12535TIP3    H159020   1.085   2.264  12.614 -0.1279  3.0136  0.3294
12535TIP3    H259021   1.149   2.176  12.719  0.3546 -0.7463 -2.8859
12536TIP3   OH259022   3.542   5.640  12.817 -0.0662 -0.0692 -0.3283
12536TIP3    H159023   3.464   5.679  12.857 -1.0986 -0.6438 -1.7042
12536TIP3    H259024   3.557   5.559  12.867  0.2639  0.5182  0.5616
12537TIP3   OH259025   4.885   0.422   3.127 -1.0106  0.2430 -0.3426
12537TIP3    H159026   4.930   0.361   3.069  1.4902  1.7075 -0.0828
12537TIP3    H259027   4.828   0.473   3.070  0.1374  0.5267 -1.2637
12538TIP3   OH259028   3.813   0.014  16.866 -0.7202 -0.7090  0.0041
12538TIP3    H159029   3.780  -0.044  16.935  1.0627 -2.5605 -0.5896
12538TIP3    H259030   3.823   0.099  16.908 -2.0484 -1.1587  1.3162
12539TIP3   OH259031   0.858   3.002  16.797  0.2181 -0.0931 -0.5733
12539TIP3    H159032   0.859   3.046  16.712 -0.4792 -0.2314 -0.6620
12539TIP3    H259033   0.782   2.943  16.792 -0.0092  0.1223  0.2594
12540TIP3   OH259034   0.233   4.320  14.252  0.1608  0.4429  0.4681
12540TIP3    H159035   0.268   4.304  14.164  0.8012 -2.3454  1.1479
12540TIP3    H259036   0.310   4.345  14.304  0.3164 -0.7442  0.8392
12541TIP3   OH259037   5.796   3.533  13.073  0.5566 -0.9049 -0.1532
12541TIP3    H159038   5.842   3.545  13.156  0.5885 -0.6533 -0.2065
12541TIP3    H259039   5.860   3.560  13.007 -0.3858  1.6057 -0.1467
12542TIP3   OH259040   2.636   5.758   2.290 -0.5146 -0.4111  0.1430
12542TIP3    H159041   2.598   5.688   2.342 -0.3861 -1.4369 -1.1011
12542TIP3    H259042   2.658   5.717   2.206  3.2214  0.0995  0.6725
12543TIP3   OH259043   0.568   3.419   5.359  0.0078 -0.4713 -0.1911
12543TIP3    H159044   0.480   3.455   5.360  1.2808  3.0012  0.7309
12543TIP3    H259045   0.589   3.409   5.266 -1.0351 -0.5658 -0.4274
12544TIP3   OH259046   5.604   2.534  11.596 -0.0508  0.3034 -0.6041
12544TIP3    H159047   5.685   2.497  11.630 -0.5497 -0.2480 -0.0062
12544TIP3    H259048   5.534   2.485  11.639 -0.7123  0.9586 -0.8996
12545TIP3   OH259049   0.436   4.212   0.630 -0.5385  0.2511 -0.1525
12545TIP3    H159050   0.445   4.243   0.720 -1.3527  1.6712 -0.5253
12545TIP3    H259051   0.496   4.138   0.623  1.5095  1.7465  0.8033
12546TIP3   OH259052   3.018   5.559  13.764 -0.2179 -0.4949 -0.3135
12546TIP3    H159053   2.966   5.549  13.844 -1.0751 -1.7405 -0.9875
12546TIP3    H259054   2.972   5.506  13.699  0.7097  0.1293 -1.5243
12547TIP3   OH259055   4.855   3.773  16.891 -0.8127 -0.8421  0.2179
12547TIP3    H159056   4.882   3.683  16.902 -1.8778 -1.0239  1.5165
12547TIP3    H259057   4.926   3.814  16.840 -1.5081 -3.0148 -2.7763
12548TIP3   OH259058   5.454   6.274   2.958  0.1996  0.5545 -0.0365
12548TIP3    H159059   5.452   6.234   3.045  0.2671  0.0275 -0.2721
12548TIP3    H259060   5.538   6.318   2.953  1.1665 -1.2819 -0.6440
12549TIP3   OH259061   4.570   6.483  14.490  0.1260  0.3426 -0.2524
12549TIP3    H159062   4.529   6.414  14.543 -1.2091  1.8892  0.8504
12549TIP3    H259063   4.600   6.438  14.411 -0.2225 -1.5755  0.6394
12550TIP3   OH259064   2.574   3.818  11.016 -0.8855 -0.3506  0.1614
12550TIP3    H159065   2.612   3.811  11.104 -0.8419  0.3219  0.2078
12550TIP3    H259066   2.623   3.754  10.964 -0.8791 -0.7223  0.6150
12551TIP3   OH259067   2.927   3.405   2.605  0.8706 -0.0619 -0.5544
12551TIP3    H159068   2.875   3.326   2.619  0.3034  0.0431 -1.9198
12551TIP3    H259069   3.003   3.394   2.663  1.2250 -2.0039 -1.2917
12552TIP3   OH259070   3.154   3.849  12.461 -0.4120 -0.3966  0.2289
12552TIP3    H159071   3.064   3.855  12.494 -0.1149  0.8702  0.8572
12552TIP3    H259072   3.208   3.882  12.532  0.5558 -1.0414 -0.1895
12553TIP3   OH259073   2.526   4.712  16.457 -0.4168  0.2946 -0.0995
12553TIP3    H159074   2.578   4.746  16.384  2.0358 -0.3341  1.2288
12553TIP3    H259075   2.504   4.789  16.509 -0.1820  0.5016 -0.3066
12554TIP3   OH259076   3.901   2.779   4.066 -0.1564  0.6527  0.0894
12554TIP3    H159077   3.826   2.735   4.026  0.4381 -0.0506 -0.2771
12554TIP3    H259078   3.977   2.727   4.038  0.3562  0.5840  1.5018
12555TIP3   OH259079   0.956   0.513   5.533  0.2231  0.4090  0.2329
12555TIP3    H159080   1.033   0.565   5.554  1.4688 -1.5296  0.7543
12555TIP3    H259081   0.935   0.467   5.615 -0.7779  0.0373 -0.2185
12556TIP3   OH259082   1.963   1.903  15.987 -0.0961 -0.0615  0.6925
12556TIP3    H159083   1.972   1.828  16.047 -0.8928 -1.6585 -1.0724
12556TIP3    H259084   1.916   1.867  15.912  3.3100  1.0204 -2.2274
12557TIP3   OH259085   1.537   4.051  12.494  0.3734  0.5159  0.0268
12557TIP3    H159086   1.553   4.114  12.563  1.1090  0.4965 -0.1234
12557TIP3    H259087   1.593   4.079  12.422  1.0113 -0.5400  0.0990
12558TIP3   OH259088   1.704   2.209  11.861 -0.0467  0.0847 -0.3908
12558TIP3    H159089   1.702   2.167  11.947 -0.0390  0.7411 -0.0651
12558TIP3    H259090   1.680   2.139  11.800 -4.0618  0.4517  0.4898
12559TIP3   OH259091   1.851   4.375   1.588 -0.5775  0.3100 -0.2518
12559TIP3    H159092   1.919   4.442   1.577 -2.6596  3.1994  2.4614
12559TIP3    H259093   1.857   4.350   1.681 -2.3878 -0.2589 -0.2478
12560TIP3   OH259094   6.763   6.494   2.835  0.4193  0.1673 -0.4631
12560TIP3    H159095   6.715   6.488   2.752  0.7200  0.8429 -0.6891
12560TIP3    H259096   6.724   6.426   2.890 -1.8579  1.6573 -0.0934
12561TIP3   OH259097   3.957   3.684  12.636 -0.3424 -0.4187 -0.1045
12561TIP3    H159098   3.898   3.749  12.600 -0.9544 -0.5251  0.6628
12561TIP3    H259099   4.030   3.735  12.672 -0.0293 -0.2776 -0.9187
12562TIP3   OH259100   4.457   5.073   4.635 -0.1536  0.1582 -0.0461
12562TIP3    H159101   4.419   5.055   4.721 -1.6685 -0.5678 -0.8216
12562TIP3    H259102   4.458   4.988   4.591  2.0517  0.2329 -0.2210
12563TIP3   OH259103   6.239   2.772  12.490 -0.3989  0.6119  0.7676
12563TIP3    H159104   6.169   2.706  12.487 -1.9719  2.2367 -1.1336
12563TIP3    H259105   6.228   2.814  12.575  1.1979 -1.9981  2.4272
12564TIP3   OH259106   4.006   2.871  16.035  0.0012  0.4890  0.3736
12564TIP3    H159107   4.092   2.892  15.998  0.3590  0.2719  1.0599
12564TIP3    H259108   3.983   2.787  15.996 -0.0256  0.6819 -0.0268
12565TIP3   OH259109   5.211   1.883  14.927  0.8408  0.2611 -0.3637
12565TIP3    H159110   5.165   1.854  15.006  1.0533 -0.4656 -0.4947
12565TIP3    H259111   5.259   1.805  14.898  0.9234  0.5788 -1.0960
12566TIP3   OH259112   5.786   1.788   2.400 -0.0862 -0.1996 -1.4088
12566TIP3    H159113   5.774   1.694   2.387  1.1311 -0.4617 -0.7760
12566TIP3    H259114   5.834   1.795   2.483 -1.9000  1.0872 -0.3884
12567TIP3   OH259115   1.678   0.661  11.535 -0.0814  0.5979 -0.1016
12567TIP3    H159116   1.728   0.730  11.578  5.5490 -1.8100 -1.8622
12567TIP3    H259117   1.692   0.584  11.591  0.0641 -0.6800 -1.8264
12568TIP3   OH259118   4.229   0.717   1.888  0.4744  0.1971  0.2615
12568TIP3    H159119   4.264   0.741   1.802  1.2186  0.2505  0.5678
12568TIP3    H259120   4.248   0.623   1.896 -0.9194 -0.1437 -0.2357
12569TIP3   OH259121   6.661   4.852   4.618 -0.5678 -0.1364 -0.3081
12569TIP3    H159122   6.703   4.934   4.593 -0.8940 -0.1936 -1.0785
12569TIP3    H259123   6.570   4.876   4.636 -1.1361 -0.5955 -2.3430
12570TIP3   OH259124   1.182   0.559  16.286  0.0375 -0.4205 -0.4256
12570TIP3    H159125   1.277   0.556  16.274  0.1671 -1.7049  0.7345
12570TIP3    H259126   1.169   0.617  16.361 -0.1377  0.0251 -0.7902
12571TIP3   OH259127   4.487   2.622  10.225 -0.2811 -0.1948 -0.2371
12571TIP3    H159128   4.476   2.635  10.320  2.2842  0.3273  0.0529
12571TIP3    H259129   4.476   2.710  10.188  2.2441  0.3214  0.0502
12572TIP3   OH259130   0.997   1.209   1.950 -0.1330  0.0271  0.2517
12572TIP3    H159131   1.055   1.276   1.913 -1.2361  0.5287 -0.6599
12572TIP3    H259132   0.930   1.259   1.997 -1.8582 -0.2523 -1.7120
12573TIP3   OH259133   1.459   4.747  14.579 -0.3974 -0.0031 -0.2753
12573TIP3    H159134   1.451   4.652  14.590 -0.0764 -0.0270 -0.2318
12573TIP3    H259135   1.417   4.765  14.495  0.6456 -0.3555 -0.8970
12574TIP3   OH259136   4.178   5.769  14.026 -0.0216 -0.3983  0.2740
12574TIP3    H159137   4.273   5.772  14.014 -0.2684  2.4205 -2.1395
12574TIP3    H259138   4.154   5.859  14.049 -2.1656 -0.9763  0.5180
12575TIP3   OH259139   6.265   1.708  11.584  0.2536  0.0701  0.0527
12575TIP3    H159140   6.290   1.775  11.521  1.0238  0.4940  0.7818
12575TIP3    H259141   6.222   1.641  11.532  2.0383 -0.2251 -1.1530
12576TIP3   OH259142   1.954   6.682  13.298 -0.0273  0.2797  0.3232
12576TIP3    H159143   2.006   6.690  13.217  0.7767  0.4836  0.8491
12576TIP3    H259144   1.999   6.615  13.349 -0.4039  0.3116  0.6969
12577TIP3   OH259145   3.760   2.538   0.234 -0.3875  0.3748 -0.2618
12577TIP3    H159146   3.778   2.550   0.327 -1.5958  1.5842 -0.1484
12577TIP3    H259147   3.665   2.530   0.229 -0.2317 -1.5054 -1.2361
12578TIP3   OH259148   3.542   0.659  10.893 -0.1388 -0.0903  0.2486
12578TIP3    H159149   3.569   0.582  10.843 -0.1742  0.0825 -0.0394
12578TIP3    H259150   3.549   0.731  10.830 -1.2942 -0.0418  0.1594
12579TIP3   OH259151   2.870   4.504   0.620  0.0516  0.1193 -0.4099
12579TIP3    H159152   2.854   4.525   0.528  0.4352  0.4380 -0.4066
12579TIP3    H259153   2.882   4.410   0.621  2.0189  0.3164 -0.9982
12580TIP3   OH259154   0.309   1.271  16.754 -0.0449 -0.7554  0.6875
12580TIP3    H159155   0.381   1.334  16.749 -0.2549 -0.4420  1.4842
12580TIP3    H259156   0.258   1.287  16.674 -0.1340  0.1395  0.9084
12581TIP3   OH259157   0.293   1.474  15.698 -0.1735  0.2902  0.3215
12581TIP3    H159158   0.251   1.553  15.666 -0.0579  0.7450  1.2467
12581TIP3    H259159   0.384   1.500  15.716  0.4537 -0.5918 -1.3462
12582TIP3   OH259160   3.425   4.467  15.426  0.3557 -0.4664 -0.0706
12582TIP3    H159161   3.472   4.421  15.357 -0.9066 -0.2358 -1.1310
12582TIP3    H259162   3.493   4.495  15.488  1.4147 -1.4431 -0.7605
12583TIP3   OH259163   3.301   4.607  15.871 -0.2923 -0.7974  0.0652
12583TIP3    H159164   3.245   4.569  15.939  1.0234 -1.1160  1.0179
12583TIP3    H259165   3.332   4.689  15.910 -0.6135 -0.2953 -0.7206
12584TIP3   OH259166   2.289   2.679   3.889  0.4433 -0.5161  0.4952
12584TIP3    H159167   2.357   2.678   3.822  1.4104  1.4658  1.3464
12584TIP3    H259168   2.336   2.673   3.972 -0.4270  0.4491  1.0896
12585TIP3   OH259169   1.814   1.764   2.534  0.3925 -0.4767 -0.0033
12585TIP3    H159170   1.858   1.804   2.609 -0.3759 -0.4947  0.4704
12585TIP3    H259171   1.722   1.756   2.562 -0.3665  1.4357 -1.6882
12586TIP3   OH259172   4.957   4.060   1.716  0.3547  0.3446 -0.0952
12586TIP3    H159173   4.957   4.069   1.811  0.4794 -0.3052 -0.0286
12586TIP3    H259174   4.865   4.057   1.692  0.2923 -1.7141  0.2452
12587TIP3   OH259175   6.649   0.137   1.457 -0.0542 -0.2058  0.0100
12587TIP3    H159176   6.674   0.184   1.536 -0.5234  1.2743 -0.6817
12587TIP3    H259177   6.555   0.151   1.449 -0.2164 -1.3089 -0.2025
12588TIP3   OH259178   0.930   6.147   5.012 -0.3259 -0.2578 -0.4268
12588TIP3    H159179   0.902   6.172   4.924  1.8035 -0.3195 -1.1654
12588TIP3    H259180   0.880   6.068   5.031 -0.3594 -0.6053 -1.8463
12589TIP3   OH259181   3.773   1.499  11.231 -0.0059 -0.1164  0.1153
12589TIP3    H159182   3.690   1.537  11.260  0.0809  0.3253 -0.2076
12589TIP3    H259183   3.827   1.494  11.310  0.5968  2.0056 -0.1093
12590TIP3   OH259184   2.438   1.724   2.954  0.3180  0.3555  0.2266
12590TIP3    H159185   2.351   1.748   2.985  0.0856 -1.5934  1.2252
12590TIP3    H259186   2.493   1.798   2.979 -0.3993  0.1246  2.8529
12591TIP3   OH259187   4.509   6.251  14.603 -0.1515  0.4803  0.5785
12591TIP3    H159188   4.545   6.212  14.523 -0.4996  0.6192  0.3496
12591TIP3    H259189   4.467   6.178  14.649  1.7115  0.0043  1.6017
12592TIP3   OH259190   6.525   2.883  16.568  0.8788 -0.6296  0.6000
12592TIP3    H159191   6.439   2.923  16.582  0.9791 -0.5310  0.9161
12592TIP3    H259192   6.554   2.919  16.484  0.3707 -1.0824  0.2191
12593TIP3   OH259193   3.610   5.370   5.557 -0.2526 -0.4046  0.0769
12593TIP3    H159194   3.578   5.290   5.598  0.8941 -1.9514 -1.8883
12593TIP3    H259195   3.552   5.439   5.590 -2.7968 -2.3860  0.0148
12594TIP3   OH259196   1.357   0.088  12.372 -0.4809  0.1173  0.8167
12594TIP3    H159197   1.399   0.039  12.443  0.5331 -0.5973 -0.2324
12594TIP3    H259198   1.424   0.150  12.343 -0.8110  0.2616  0.3530
12595TIP3   OH259199   6.671   3.551  16.885 -0.2057 -0.0676  0.3276
12595TIP3    H159200   6.735   3.520  16.821 -0.7584  1.5948 -1.1301
12595TIP3    H259201   6.720   3.559  16.967  0.5991 -1.9560  0.0697
12596TIP3   OH259202   4.247   5.547   4.759 -0.2667  0.4915  0.4785
12596TIP3    H159203   4.166   5.591   4.734  0.9467  1.4862 -2.0473
12596TIP3    H259204   4.253   5.472   4.699  1.4625  1.4099 -0.5741
12597TIP3   OH259205   3.495   4.773  14.489 -0.4198  0.3189 -0.1884
12597TIP3    H159206   3.489   4.813  14.575 -0.0592  0.2951 -0.1495
12597TIP3    H259207   3.417   4.718  14.482 -0.3953  0.2371  0.1678
12598TIP3   OH259208   3.635   0.557  15.023 -0.7679  0.4990 -0.2678
12598TIP3    H159209   3.701   0.507  14.974  0.7326 -0.0234  2.1091
12598TIP3    H259210   3.686   0.605  15.089 -2.7878 -0.5605  2.2181
12599TIP3   OH259211   3.828   0.204  15.897  0.4433 -0.6447 -0.1503
12599TIP3    H159212   3.749   0.188  15.845 -0.6408 -1.9485  1.7865
12599TIP3    H259213   3.796   0.250  15.975  2.1326  2.0314 -0.8799
12600TIP3   OH259214   1.778   6.739  16.084  0.2444  0.0075 -0.1029
12600TIP3    H159215   1.744   6.659  16.046  0.6808  0.7765 -2.2516
12600TIP3    H259216   1.750   6.736  16.176 -1.1232 -1.8072 -0.5238
12601TIP3   OH259217   5.969   0.768   3.175  0.0769  0.3012 -0.2952
12601TIP3    H159218   5.952   0.723   3.258  2.0822  0.1213  0.0688
12601TIP3    H259219   5.909   0.726   3.113 -0.9747 -0.0280  0.9028
12602TIP3   OH259220   1.998   4.066  11.782  0.2531 -0.1717 -0.1257
12602TIP3    H159221   1.997   3.975  11.814 -0.8544  0.0707  0.5530
12602TIP3    H259222   2.084   4.075  11.740  0.8807 -1.1560  0.8971
12603TIP3   OH259223   5.063   3.643  15.301  0.2105  0.7156  0.8205
12603TIP3    H159224   5.091   3.569  15.247 -1.7285  0.4667  0.0533
12603TIP3    H259225   5.059   3.717  15.241 -1.3298  0.5880  0.7223
12604TIP3   OH259226   0.345   3.356   4.996 -0.0648  0.1765 -0.1082
12604TIP3    H159227   0.348   3.269   4.956  0.9100  1.1166 -2.2321
12604TIP3    H259228   0.252   3.379   4.995 -0.4974 -1.2520  1.5690
12605TIP3   OH259229   0.024   2.835  15.309 -0.5722 -0.3910 -0.2346
12605TIP3    H159230   0.074   2.856  15.387 -1.1314 -2.9036  0.8885
12605TIP3    H259231  -0.028   2.914  15.291  1.5950  1.2106  0.2403
12606TIP3   OH259232   6.445   0.829  16.509 -0.3263  0.3995  0.2369
12606TIP3    H159233   6.356   0.861  16.523 -0.4298  0.6637 -0.9418
12606TIP3    H259234   6.442   0.783  16.425  0.3279 -0.8295  0.8571
12607TIP3   OH259235   6.592   4.453  15.711  0.1433  0.3173 -0.2216
12607TIP3    H159236   6.518   4.397  15.686 -1.2997  1.0003  2.1195
12607TIP3    H259237   6.669   4.398  15.697 -0.9570 -1.1307 -0.9709
12608TIP3   OH259238   6.046   6.723  11.468 -0.2525  0.3268  0.0770
12608TIP3    H159239   5.959   6.695  11.438  0.9637 -1.9112 -1.6240
12608TIP3    H259240   6.064   6.803  11.418 -0.2097 -0.7718 -1.7677
12609TIP3   OH259241   5.017   6.034  15.386  0.5261  0.3209 -0.0296
12609TIP3    H159242   4.961   5.970  15.428  0.1508  1.8784  1.9833
12609TIP3    H259243   5.100   5.989  15.373 -0.4873 -1.3374 -1.0665
12610TIP3   OH259244   5.375   4.065  13.571  0.4119 -0.1352  0.1919
12610TIP3    H159245   5.325   4.121  13.629 -0.9203 -1.1738  0.1034
12610TIP3    H259246   5.401   3.991  13.626  1.4066  0.1291  0.0971
12611TIP3   OH259247   2.172   0.970   5.009  0.8805  0.0170  0.3651
12611TIP3    H159248   2.198   1.051   4.964  0.9433 -0.3443 -0.2628
12611TIP3    H259249   2.199   0.983   5.099  0.3722  0.9305  0.3906
12612TIP3   OH259250   1.072   0.940  15.470 -0.2392  0.0183 -0.4896
12612TIP3    H159251   1.057   0.845  15.477  0.2495  0.0349  1.5237
12612TIP3    H259252   0.990   0.974  15.435 -1.4565 -0.8992  1.2991
12613TIP3   OH259253   5.774   3.029  12.564 -0.0306 -0.3539 -0.0045
12613TIP3    H159254   5.792   2.961  12.628 -1.0144  0.0959  0.7702
12613TIP3    H259255   5.765   2.983  12.481  3.5048 -0.7555 -0.3281
12614TIP3   OH259256   4.978   4.605  12.034 -0.2441  0.3507  0.2269
12614TIP3    H159257   4.940   4.594  11.947 -2.6549 -1.7009  1.4157
12614TIP3    H259258   5.059   4.553  12.032  0.8052  1.9273 -1.2966
12615TIP3   OH259259   6.263   6.291  13.705  0.0321  0.4045 -0.5228
12615TIP3    H159260   6.248   6.219  13.766 -0.2540  1.3315  0.5427
12615TIP3    H259261   6.332   6.343  13.746 -0.0805  0.9858 -1.0484
12616TIP3   OH259262   4.956   4.569   5.128 -0.2544  0.3378 -0.0025
12616TIP3    H159263   5.000   4.547   5.210 -0.8202  1.2188  0.5556
12616TIP3    H259264   4.949   4.664   5.129 -1.9172  0.2508 -0.2048
12617TIP3   OH259265   4.741   4.577   6.397 -0.4529  0.4176  0.1694
12617TIP3    H159266   4.663   4.530   6.367 -1.6149  1.3253  1.6157
12617TIP3    H259267   4.815   4.524   6.367 -1.5922 -0.1999 -1.7009
12618TIP3   OH259268   1.654   1.099  12.147  0.2018 -0.1974  0.6111
12618TIP3    H159269   1.627   1.022  12.197 -1.4762  0.6253  1.0127
12618TIP3    H259270   1.592   1.167  12.170  1.1482  1.0692 -0.3782
12619TIP3   OH259271   5.954   0.808  14.846  0.3291 -0.1716  0.4500
12619TIP3    H159272   5.900   0.887  14.839  2.3404  1.2044 -0.9198
12619TIP3    H259273   5.923   0.751  14.776  0.1712  0.2888  0.1414
12620TIP3   OH259274   6.567   4.235  10.940 -0.0062  0.0014  0.0969
12620TIP3    H159275   6.591   4.207  10.852 -1.5938  0.5386 -0.5400
12620TIP3    H259276   6.514   4.313  10.926 -0.0783  0.2290  1.5518
12621TIP3   OH259277   5.652   4.203  16.722  0.5127 -0.2489  0.1024
12621TIP3    H159278   5.691   4.163  16.644 -0.2486  1.1999 -1.0831
12621TIP3    H259279   5.620   4.288  16.691  0.7912  0.6618  2.1655
12622TIP3   OH259280   2.811   1.359  14.189 -0.0721 -0.5725  0.0833
12622TIP3    H159281   2.860   1.356  14.107  1.4016  2.7843  0.6664
12622TIP3    H259282   2.877   1.344  14.257 -0.6596 -0.1942  0.7495
12623TIP3   OH259283   0.112   6.818  15.035 -0.4482 -0.4419  0.1481
12623TIP3    H159284   0.163   6.848  15.110 -0.2184  0.1877 -0.2486
12623TIP3    H259285   0.134   6.725  15.027  0.4764 -0.2320  0.1230
12624TIP3   OH259286   1.007   4.671   2.224 -0.7659 -0.0656 -0.0384
12624TIP3    H159287   0.989   4.652   2.316  2.1728  3.8297  1.6093
12624TIP3    H259288   1.084   4.618   2.203  1.2169  2.1113  1.2885
12625TIP3   OH259289   1.965   1.960  11.910 -0.0066  0.2678 -0.1731
12625TIP3    H159290   1.916   1.940  11.830 -0.1885 -0.4192  0.0993
12625TIP3    H259291   2.046   1.910  11.901 -0.1958 -0.1297  0.2378
12626TIP3   OH259292   6.632   2.718  11.988 -0.3386 -0.0153 -0.3257
12626TIP3    H159293   6.586   2.801  12.003 -1.5736 -0.8386  0.6610
12626TIP3    H259294   6.644   2.681  12.075  1.4190 -0.2654 -0.6496
12627TIP3   OH259295   0.314   2.130  16.361  0.0174  0.1099  0.4911
12627TIP3    H159296   0.278   2.109  16.274  1.6779  0.8679 -0.4246
12627TIP3    H259297   0.356   2.048  16.389  0.0319  0.0468  0.2910
12628TIP3   OH259298   3.842   5.074   4.075  0.1575 -0.5264  0.0976
12628TIP3    H159299   3.782   5.063   4.001  0.5440  0.6631 -0.4319
12628TIP3    H259300   3.868   5.166   4.070  2.2040 -1.0471  0.1492
12629TIP3   OH259301   2.514   2.523  15.022  0.1123  0.1282  0.2240
12629TIP3    H159302   2.562   2.525  15.105  0.0085  3.2434  0.3387
12629TIP3    H259303   2.582   2.524  14.955  0.2326  0.5926  0.3453
12630TIP3   OH259304   0.477   0.888   3.598 -0.5282 -0.3195  0.0262
12630TIP3    H159305   0.511   0.952   3.661 -1.6460  1.3419 -0.9632
12630TIP3    H259306   0.383   0.908   3.592 -0.3803 -0.0390 -2.5200
12631TIP3   OH259307   4.592   3.873  14.388 -0.1090  0.0338  0.2535
12631TIP3    H159308   4.549   3.935  14.446 -0.7550  0.2258 -0.4278
12631TIP3    H259309   4.527   3.851  14.322  0.1407 -1.2948  0.4171
12632TIP3   OH259310   1.658   1.755  11.933  0.6690  0.2801 -0.2598
12632TIP3    H159311   1.698   1.671  11.910 -0.9603 -0.2060 -1.5025
12632TIP3    H259312   1.642   1.749  12.027  2.1696 -0.0582  0.0035
12633TIP3   OH259313   0.273   5.881  11.547  0.4782  0.3932  0.0753
12633TIP3    H159314   0.328   5.922  11.480  0.5493 -0.3909 -0.3515
12633TIP3    H259315   0.238   5.803  11.505  0.2628  0.0610  0.8550
12634TIP3   OH259316   1.444   4.821  16.094 -0.3197  0.2310 -0.2314
12634TIP3    H159317   1.396   4.744  16.064  1.1093 -0.6573 -0.3714
12634TIP3    H259318   1.530   4.786  16.119 -0.0089  1.6286  0.7360
12635TIP3   OH259319   5.796   5.885   3.236  0.7811 -0.4602 -0.0294
12635TIP3    H159320   5.835   5.934   3.308 -1.4328  0.8930  0.3342
12635TIP3    H259321   5.816   5.936   3.158  1.2093 -0.7174 -0.0955
12636TIP3   OH259322   6.341   1.254   5.020  0.2392 -0.3399 -0.2796
12636TIP3    H159323   6.291   1.211   4.951  0.5279 -0.5762 -0.3411
12636TIP3    H259324   6.424   1.206   5.024 -0.1035 -0.8654  0.8046
12637TIP3   OH259325   0.113   6.107   4.041  0.0988  0.4960  0.1600
12637TIP3    H159326   0.059   6.117   4.119 -0.8467  4.2965 -0.7722
12637TIP3    H259327   0.200   6.138   4.067  0.4549 -0.5024  0.2390
12638TIP3   OH259328   0.804   4.762  15.576 -0.0760  0.5294 -0.0375
12638TIP3    H159329   0.711   4.748  15.593  0.3186 -0.8329  1.2156
12638TIP3    H259330   0.828   4.836  15.631 -0.2893  0.5175  0.0738
12639TIP3   OH259331   4.857   4.745   1.541  0.0463  0.3835 -0.5238
12639TIP3    H159332   4.826   4.665   1.498 -0.3528 -0.8333  1.8958
12639TIP3    H259333   4.798   4.757   1.615  0.7716  2.3346 -0.2134
12640TIP3   OH259334   5.712   0.512  10.483 -0.2028 -0.5446 -0.0773
12640TIP3    H159335   5.720   0.601  10.519  0.2603 -0.4297 -0.4413
12640TIP3    H259336   5.679   0.525  10.394  2.0904 -0.5193 -1.0183
12641TIP3   OH259337   0.802   4.806  12.432  0.2302 -0.2449 -0.0956
12641TIP3    H159338   0.792   4.748  12.356 -2.9315  0.6160 -0.4458
12641TIP3    H259339   0.886   4.849  12.417  0.9455 -2.0203 -1.6989
12642TIP3   OH259340   3.336   4.896   1.941 -0.1818 -0.1811 -0.5047
12642TIP3    H159341   3.364   4.982   1.970 -2.1980  1.2175 -2.4039
12642TIP3    H259342   3.319   4.907   1.847  0.4227 -2.9224 -1.0265
12643TIP3   OH259343   5.956   2.948  14.557 -0.1579 -0.0647 -0.0876
12643TIP3    H159344   5.918   2.873  14.512  1.1462  0.7363 -2.7432
12643TIP3    H259345   5.906   3.023  14.527  0.4449  0.4649  0.2048
12644TIP3   OH259346   5.602   1.929  12.062 -0.4377 -0.0838 -0.0111
12644TIP3    H159347   5.632   1.845  12.028  0.5579  0.6070 -0.9190
12644TIP3    H259348   5.510   1.915  12.085  0.1348 -1.8553  1.4231
12645TIP3   OH259349   4.825   3.626   5.354  0.4902 -0.2076  0.2323
12645TIP3    H159350   4.750   3.567   5.352  0.3879 -0.1133  0.9456
12645TIP3    H259351   4.892   3.578   5.402  0.6168  0.0196  0.2824
12646TIP3   OH259352   4.932   1.040  12.953  0.1192  0.0017  0.3671
12646TIP3    H159353   5.019   1.040  12.913 -0.2274 -0.0846 -0.4301
12646TIP3    H259354   4.892   0.959  12.921 -0.7972  0.7816 -0.5338
12647TIP3   OH259355   6.691   2.862  11.094  0.2073 -0.2111 -0.0585
12647TIP3    H159356   6.772   2.817  11.118 -0.1174 -1.2721 -0.8662
12647TIP3    H259357   6.633   2.849  11.169  0.6626  0.2407  0.3722
12648TIP3   OH259358   1.134   4.448  11.833  0.3692 -0.4463  0.5993
12648TIP3    H159359   1.175   4.520  11.785 -0.2251 -1.1766 -1.0714
12648TIP3    H259360   1.164   4.369  11.788 -3.1956 -1.0221 -1.1019
12649TIP3   OH259361   2.252   4.119   0.727  0.0665 -0.5973 -0.0538
12649TIP3    H159362   2.335   4.076   0.743  0.9965  1.2062  0.2344
12649TIP3    H259363   2.186   4.055   0.754  1.2401 -2.8251 -2.0517
12650TIP3   OH259364   5.675   0.834  16.439  0.1290  0.3483  0.0842
12650TIP3    H159365   5.592   0.882  16.446  0.4234  0.8630  0.0876
12650TIP3    H259366   5.649   0.742  16.440 -0.5101  0.5031 -0.6967
12651TIP3   OH259367   3.983   1.760  12.086  0.7047 -0.0612  0.5205
12651TIP3    H159368   4.048   1.782  12.152  1.2533  0.1084 -0.0700
12651TIP3    H259369   3.992   1.827  12.019  0.2978 -0.3469  0.1702
12652TIP3   OH259370   3.965   5.088   2.457 -1.0594  0.3371  0.3171
12652TIP3    H159371   4.046   5.079   2.507 -1.9036  1.0680  1.8870
12652TIP3    H259372   3.919   5.161   2.499 -0.6274  2.9168 -3.2259
12653TIP3   OH259373   2.959   3.109  10.703 -0.7423  0.3264  0.3944
12653TIP3    H159374   3.026   3.169  10.667 -1.1795  0.7784  0.3260
12653TIP3    H259375   2.940   3.144  10.790 -2.1929  1.2810 -0.2620
12654TIP3   OH259376   3.689   4.199  11.412 -0.9190  0.1214  0.1039
12654TIP3    H159377   3.640   4.266  11.365 -1.3845  0.3311  0.8740
12654TIP3    H259378   3.772   4.193  11.365 -1.6924 -0.2766 -1.2409
12655TIP3   OH259379   5.855   0.593   2.568 -0.1266  0.9149 -0.3474
12655TIP3    H159380   5.844   0.662   2.503  2.9990 -0.2275 -2.3138
12655TIP3    H259381   5.915   0.530   2.527 -1.6131 -2.2690  1.8962
12656TIP3   OH259382   3.557   3.931  16.582 -0.2296 -0.1690 -0.1835
12656TIP3    H159383   3.466   3.961  16.580 -0.0198  1.4863  3.7163
12656TIP3    H259384   3.554   3.847  16.627  0.1430  0.2931  0.7544
12657TIP3   OH259385   6.760   2.020   0.899 -0.1229  0.2810  0.3797
12657TIP3    H159386   6.782   1.984   0.985 -0.7485  1.2258  0.9534
12657TIP3    H259387   6.798   2.108   0.899  0.6934 -0.0477 -0.6944
12658TIP3   OH259388   6.288   1.987  16.242 -0.0739 -0.3486 -0.0528
12658TIP3    H159389   6.282   1.906  16.292 -0.2523 -0.3180 -0.0248
12658TIP3    H259390   6.352   2.041  16.290 -1.4586  0.3511  1.0790
12659TIP3   OH259391   4.012   6.738   6.124 -0.2229 -0.1882 -0.8701
12659TIP3    H159392   4.010   6.729   6.219  0.8891  1.5837 -0.6344
12659TIP3    H259393   3.956   6.667   6.092 -0.6808 -0.7706  1.0925
12660TIP3   OH259394   4.423   2.302  15.875 -0.0164 -0.5921  0.8053
12660TIP3    H159395   4.367   2.250  15.933  0.8136 -0.6096  1.6237
12660TIP3    H259396   4.375   2.383  15.861 -0.8540 -1.1508  0.3755
12661TIP3   OH259397   1.473   6.157   3.994 -0.5949  0.0295  0.0337
12661TIP3    H159398   1.537   6.175   3.925 -1.1163 -1.3541 -0.8525
12661TIP3    H259399   1.388   6.156   3.949 -0.8908 -1.4719  0.5621
12662TIP3   OH259400   4.253   5.175  14.690 -0.1383 -0.1309  0.1057
12662TIP3    H159401   4.254   5.269  14.712  1.1260 -0.1493  0.1683
12662TIP3    H259402   4.160   5.152  14.692 -0.4741  1.1235  0.0768
12663TIP3   OH259403   0.399   5.128  11.931  0.0341  0.0596  0.0778
12663TIP3    H159404   0.359   5.065  11.871 -0.6158  0.3155  0.2299
12663TIP3    H259405   0.412   5.206  11.878  0.8755 -0.2023 -0.1204
12664TIP3   OH259406   1.932   6.349   4.357  0.1877  0.4177 -0.3405
12664TIP3    H159407   2.000   6.334   4.423  0.1085 -0.1310 -0.3765
12664TIP3    H259408   1.973   6.408   4.294  0.5815  0.2083 -0.2862
12665TIP3   OH259409   1.458   1.664   0.660 -0.0836 -0.2945  0.1798
12665TIP3    H159410   1.478   1.655   0.753 -1.0745  0.5022  0.4896
12665TIP3    H259411   1.532   1.712   0.624 -0.6686  1.2866  0.9954
12666TIP3   OH259412   5.737   0.066   6.297 -0.2517 -0.4616  0.6857
12666TIP3    H159413   5.701  -0.008   6.346 -2.7635  1.2048  1.5463
12666TIP3    H259414   5.814   0.093   6.346 -0.2073 -1.5410  1.2330
12667TIP3   OH259415   4.199   6.772  11.181  0.1147  0.1982 -0.2230
12667TIP3    H159416   4.256   6.705  11.219  0.2631  0.4455 -0.0006
12667TIP3    H259417   4.112   6.751  11.214 -0.1350 -0.8616 -1.4833
12668TIP3   OH259418   0.982   4.464   1.245  0.3756 -0.5478 -0.4425
12668TIP3    H159419   1.066   4.424   1.270 -0.2399 -2.0611 -0.6431
12668TIP3    H259420   0.916   4.407   1.286 -0.5599  0.3837 -0.6171
12669TIP3   OH259421   4.039   5.879   3.934  0.2658 -0.4295  0.1453
12669TIP3    H159422   4.023   5.961   3.981 -1.4257  0.2492 -1.5081
12669TIP3    H259423   4.134   5.871   3.931  0.4864 -0.4437  3.4765
12670TIP3   OH259424   5.654   3.663   0.307 -0.0536 -0.1507  0.1350
12670TIP3    H159425   5.738   3.627   0.282  1.6560  2.4137  1.7136
12670TIP3    H259426   5.614   3.691   0.225  1.3108 -0.1208 -0.5385
12671TIP3   OH259427   4.488   6.077   0.253 -0.2242  0.0251 -0.3639
12671TIP3    H159428   4.544   6.154   0.263 -1.0276  0.6757 -0.7880
12671TIP3    H259429   4.475   6.069   0.158  0.2945 -0.9663 -0.3657
12672TIP3   OH259430   2.806   4.539   3.867 -0.0246  0.0609  0.0542
12672TIP3    H159431   2.753   4.604   3.913 -1.1047 -0.6172 -0.1846
12672TIP3    H259432   2.858   4.497   3.935  1.3530  1.7407  0.1025
12673TIP3   OH259433   6.760   3.009  17.040  0.1205  0.4856 -0.4382
12673TIP3    H159434   6.813   3.001  17.119 -1.8306  1.2879  1.0336
12673TIP3    H259435   6.756   2.920  17.004  0.0501 -0.1488  1.0642
12674TIP3   OH259436   1.658   2.850  10.345 -0.0547 -0.6299  0.2227
12674TIP3    H159437   1.667   2.893  10.260  0.2662 -0.4693  0.3383
12674TIP3    H259438   1.738   2.799  10.355 -0.1011 -0.6640  0.4233
12675TIP3   OH259439   6.114   3.385  16.691  0.5530  0.0784 -0.2887
12675TIP3    H159440   6.163   3.331  16.630 -0.5192 -3.0574  1.3910
12675TIP3    H259441   6.170   3.391  16.768  0.5265  1.1499 -0.3460
12676TIP3   OH259442   5.808   0.451  17.051 -0.0776  0.1768  0.0010
12676TIP3    H159443   5.831   0.535  17.011 -2.9121  0.9106 -0.3235
12676TIP3    H259444   5.713   0.445  17.041  0.1473 -4.4634 -2.7773
12677TIP3   OH259445   0.089   6.153  12.912  0.2826 -0.7594 -0.5607
12677TIP3    H159446   0.035   6.129  12.837 -0.6670  0.7994 -0.4156
12677TIP3    H259447   0.046   6.112  12.987 -0.4467  0.0902 -0.5073
12678TIP3   OH259448   4.929   1.515   0.674  0.4517 -0.1001  0.0065
12678TIP3    H159449   4.993   1.563   0.725 -0.1701 -0.0194  0.7291
12678TIP3    H259450   4.968   1.508   0.586  0.2515  2.3473 -0.3527
12679TIP3   OH259451   5.421   1.689  11.075  0.2449 -0.4732  0.2582
12679TIP3    H159452   5.492   1.750  11.095  0.3381 -0.8204  1.0269
12679TIP3    H259453   5.356   1.741  11.028  0.4883  0.1261  0.5876
12680TIP3   OH259454   4.976   5.803  16.927 -0.2455 -0.3063  0.6523
12680TIP3    H159455   5.005   5.839  16.844 -1.2103  1.5905  1.0804
12680TIP3    H259456   4.893   5.759  16.906  0.4228 -1.4234  0.3077
12681TIP3   OH259457   5.091   1.662  16.188  0.3065  0.4087  0.1737
12681TIP3    H159458   5.036   1.622  16.120  0.7604 -0.2140  0.1605
12681TIP3    H259459   5.051   1.636  16.270  0.8464 -0.4672  0.1761
12682TIP3   OH259460   0.055   5.060  13.780  0.0467 -0.4908 -0.0384
12682TIP3    H159461   0.107   4.980  13.771  1.0655  0.1939 -0.3076
12682TIP3    H259462   0.116   5.126  13.811 -0.8652  0.1192  0.5106
12683TIP3   OH259463   0.030   3.145  16.656 -0.1661 -0.1787 -0.2437
12683TIP3    H159464   0.067   3.057  16.663  4.2676  1.5953  3.6828
12683TIP3    H259465  -0.042   3.146  16.719 -0.3630 -1.0035 -0.4424
12684TIP3   OH259466   4.046   6.332  12.546  0.0787 -0.1843 -0.1835
12684TIP3    H159467   4.002   6.409  12.579  1.0052  0.1328  0.3537
12684TIP3    H259468   3.984   6.260  12.558 -0.4314  0.3193  0.1637
12685TIP3   OH259469   4.014   1.183   4.346 -0.0788 -0.0060 -0.2669
12685TIP3    H159470   3.918   1.185   4.350 -0.0537 -0.1156  2.7494
12685TIP3    H259471   4.041   1.252   4.407  1.7834  0.5022 -1.6134
12686TIP3   OH259472   0.315   3.595   4.592 -0.3336 -0.3730 -0.1506
12686TIP3    H159473   0.305   3.670   4.650 -0.4576 -1.7036  1.6493
12686TIP3    H259474   0.313   3.519   4.650  1.6669 -1.7017 -1.6609
12687TIP3   OH259475   0.283   4.781  11.443 -0.0722  0.0618 -0.2887
12687TIP3    H159476   0.240   4.696  11.440  0.0286  0.0290 -2.2525
12687TIP3    H259477   0.235   4.834  11.378  0.2501  1.3118  0.4588
12688TIP3   OH259478   4.715   6.072   5.204  0.0622 -0.9580  0.2684
12688TIP3    H159479   4.701   6.055   5.297  1.2431  0.7191  0.8164
12688TIP3    H259480   4.663   6.150   5.186  1.6932  0.1599  0.1730
12689TIP3   OH259481   3.568   0.785  11.351  0.0161  0.5128  0.2386
12689TIP3    H159482   3.640   0.746  11.300  1.7006  0.0242  2.8173
12689TIP3    H259483   3.568   0.878  11.324  1.3170  0.4263 -0.1389
12690TIP3   OH259484   1.713   0.796  15.776  0.3129  0.0264 -0.5725
12690TIP3    H159485   1.766   0.876  15.771 -0.4412  0.9199  2.9419
12690TIP3    H259486   1.722   0.766  15.866 -2.2477 -1.8476 -0.8130
12691TIP3   OH259487   1.261   1.637   1.466  0.1010  0.1499  0.1783
12691TIP3    H159488   1.207   1.611   1.541  1.1325  0.1546  0.9456
12691TIP3    H259489   1.219   1.596   1.390 -1.2159  0.5130  0.6887
12692TIP3   OH259490   2.625   4.369  10.638  0.0970  0.0298  0.0141
12692TIP3    H159491   2.709   4.405  10.666  0.6845  0.2202 -1.8508
12692TIP3    H259492   2.565   4.390  10.709  1.9067 -1.4229  2.0683
12693TIP3   OH259493   5.286   1.190  11.528 -0.8392  0.1887 -0.2164
12693TIP3    H159494   5.238   1.225  11.603  0.2127  1.7414 -0.2193
12693TIP3    H259495   5.342   1.262  11.500  0.1372 -0.9676 -1.3569
12694TIP3   OH259496   6.165   1.413  10.599  0.5294  0.0161 -0.2407
12694TIP3    H159497   6.089   1.441  10.548 -0.3498 -1.7000  0.0595
12694TIP3    H259498   6.148   1.321  10.619  0.4683  0.7018  3.7190
12695TIP3   OH259499   3.481   3.188   5.509  0.1060  0.7486 -0.2874
12695TIP3    H159500   3.421   3.210   5.581  0.9854  0.4363  0.5728
12695TIP3    H259501   3.446   3.106   5.474  1.0364 -0.4711  1.4500
12696TIP3   OH259502   3.516   0.450   1.840 -0.1103  0.3836 -0.4006
12696TIP3    H159503   3.611   0.453   1.831  0.0659 -0.8047  0.6578
12696TIP3    H259504   3.492   0.363   1.806 -0.9232  0.9469 -1.3277
12697TIP3   OH259505   2.380   2.920   0.823 -0.1632  0.4337  0.3241
12697TIP3    H159506   2.388   2.995   0.765 -0.3781  0.2252  0.0182
12697TIP3    H259507   2.382   2.844   0.764 -0.0629  0.2043  0.6172
12698TIP3   OH259508   4.740   3.567  14.757 -0.4522 -0.0220  0.5918
12698TIP3    H159509   4.659   3.552  14.806 -0.4227 -1.1804  0.3230
12698TIP3    H259510   4.739   3.660  14.736 -1.5453  0.0449  0.9006
12699TIP3   OH259511   2.207   5.912  13.394 -0.0774 -0.7241 -0.3997
12699TIP3    H159512   2.298   5.907  13.423 -0.0512 -0.9873 -0.5247
12699TIP3    H259513   2.212   5.943  13.304  0.0988 -3.6356 -1.5037
12700TIP3   OH259514   1.887   0.319   0.822  0.4780  0.7400  0.1448
12700TIP3    H159515   1.978   0.312   0.795  0.6926 -0.7691  1.0888
12700TIP3    H259516   1.886   0.385   0.891  0.5378  2.0055 -1.0412
12701TIP3   OH259517   2.394   4.174   5.460  0.3210  0.0924  0.2493
12701TIP3    H159518   2.365   4.259   5.492 -0.8432 -0.0727 -0.2814
12701TIP3    H259519   2.340   4.110   5.507 -0.7401 -0.1931 -1.2615
12702TIP3   OH259520   2.332   5.130  11.688 -0.2667  0.0352  0.2254
12702TIP3    H159521   2.253   5.110  11.639 -0.6939  0.6408  0.6644
12702TIP3    H259522   2.368   5.044  11.711 -0.5559 -0.2422 -0.3434
12703TIP3   OH259523   4.883   1.585  14.383  0.0010  0.0912  0.1771
12703TIP3    H159524   4.918   1.529  14.313  0.6625  1.6867 -0.8331
12703TIP3    H259525   4.923   1.551  14.463  0.3993 -0.8595 -0.4012
12704TIP3   OH259526   1.365   1.657  14.855  0.6474 -0.0827 -0.1749
12704TIP3    H159527   1.404   1.739  14.827 -0.4580  0.6568  0.3783
12704TIP3    H259528   1.275   1.661  14.822 -0.1278 -0.0062  1.8123
12705TIP3   OH259529   4.872   3.944  15.200 -0.2522 -0.6795  0.3811
12705TIP3    H159530   4.858   4.038  15.211 -0.6016 -0.6839  0.0121
12705TIP3    H259531   4.802   3.903  15.252 -0.0690 -0.7344  0.5833
12706TIP3   OH259532   5.352   3.460   0.845  0.0515  0.3292  0.3119
12706TIP3    H159533   5.309   3.545   0.847 -0.6677  0.0059 -0.3343
12706TIP3    H259534   5.440   3.478   0.813  0.5855  1.0643  2.0797
12707TIP3   OH259535   4.376   2.713   3.246 -0.2011  0.4110 -0.3743
12707TIP3    H159536   4.423   2.741   3.168 -0.7877  1.2370 -0.4347
12707TIP3    H259537   4.425   2.752   3.319 -0.1365  0.3231 -0.3695
12708TIP3   OH259538   5.342   2.385   4.739  0.9092  0.0081 -0.0378
12708TIP3    H159539   5.356   2.477   4.719  1.9299 -0.1740 -0.2187
12708TIP3    H259540   5.325   2.344   4.654 -1.7435  0.3511  0.2408
12709TIP3   OH259541   6.142   3.305   1.386 -0.1133  0.0873  0.1854
12709TIP3    H159542   6.096   3.346   1.459  0.5094  0.7796  0.1964
12709TIP3    H259543   6.189   3.377   1.344 -1.3944 -0.0777 -1.6345
12710TIP3   OH259544   0.939   1.649   4.848 -0.3495  0.3439 -0.0655
12710TIP3    H159545   0.867   1.586   4.856 -0.3993  0.6310  3.7551
12710TIP3    H259546   1.018   1.596   4.849 -0.4398  0.1975 -0.5020
12711TIP3   OH259547   5.420   5.875  14.626 -0.6760  0.0197  0.5066
12711TIP3    H159548   5.441   5.836  14.711  0.0802 -2.5587 -0.7472
12711TIP3    H259549   5.325   5.864  14.618 -0.4578 -2.0086  0.0706
12712TIP3   OH259550   3.005   2.444  14.544  0.0752 -0.2051  0.1242
12712TIP3    H159551   2.946   2.372  14.566  0.0247 -0.1813  0.0665
12712TIP3    H259552   2.963   2.487  14.469 -0.0402  0.0570  0.3363
12713TIP3   OH259553   2.617   6.198   2.738 -0.3108  0.5274 -0.1889
12713TIP3    H159554   2.600   6.210   2.831  0.0598 -0.9647  0.0975
12713TIP3    H259555   2.536   6.227   2.695 -1.9094 -1.9916  0.8386
12714TIP3   OH259556   2.692   1.686  14.965 -0.4183  0.1873  0.1902
12714TIP3    H159557   2.703   1.761  14.906 -1.1572  0.2076  0.0720
12714TIP3    H259558   2.769   1.690  15.022 -0.2074  0.7585 -0.1181
12715TIP3   OH259559   6.667   1.517   2.629  0.5814  0.0939 -0.0581
12715TIP3    H159560   6.750   1.515   2.580  0.4342 -0.7005 -0.2877
12715TIP3    H259561   6.655   1.609   2.652  1.3609  0.2680 -0.3143
12716TIP3   OH259562   2.770   5.488  12.159 -0.4375  0.0053  0.0454
12716TIP3    H159563   2.705   5.438  12.208  0.8318 -1.0128  0.7573
12716TIP3    H259564   2.816   5.422  12.106  0.2609  0.6361 -0.1518
12717TIP3   OH259565   0.412   0.450  15.706  0.5275 -0.1094  0.4786
12717TIP3    H159566   0.397   0.452  15.612 -3.8369 -1.2245  0.9322
12717TIP3    H259567   0.374   0.531  15.739  0.7325 -0.3654  1.3939
12718TIP3   OH259568   3.147   5.234  12.497 -0.1180 -0.4184 -0.0282
12718TIP3    H159569   3.134   5.314  12.548  2.6486 -0.8356  1.5327
12718TIP3    H259570   3.095   5.168  12.543  0.5780 -0.2934  0.9816
12719TIP3   OH259571   0.197   3.542  14.600 -0.2819  0.0120  0.1357
12719TIP3    H159572   0.234   3.467  14.647 -0.1507 -0.5119 -0.7688
12719TIP3    H259573   0.137   3.503  14.537 -0.4260  0.6936 -0.1579
12720TIP3   OH259574   2.978   3.717  13.893 -0.2418  0.2063 -0.2866
12720TIP3    H159575   3.000   3.671  13.812 -1.6215  0.7222 -0.9902
12720TIP3    H259576   2.893   3.757  13.876 -0.6114  0.2567  1.4666
12721TIP3   OH259577   4.586   4.147   1.000 -0.1729 -0.4794  0.2615
12721TIP3    H159578   4.615   4.168   1.088  1.1030 -0.0295 -0.2433
12721TIP3    H259579   4.548   4.229   0.967 -0.7243 -0.6685  0.4046
12722TIP3   OH259580   5.402   5.292  16.431  0.0816  0.5203  0.1282
12722TIP3    H159581   5.351   5.298  16.512  0.8436  0.6052  0.6052
12722TIP3    H259582   5.336   5.295  16.362 -0.6063  0.0801  0.7529
12723TIP3   OH259583   2.227   5.236   2.393  0.6909 -0.1000  0.3845
12723TIP3    H159584   2.235   5.142   2.406 -3.7104 -0.7456  0.0865
12723TIP3    H259585   2.175   5.266   2.468  0.3948  1.7086 -0.4847
12724TIP3   OH259586   3.730   4.110  14.219 -0.2500  0.0331  0.0422
12724TIP3    H159587   3.813   4.067  14.237 -0.9733 -1.2183  0.4758
12724TIP3    H259588   3.673   4.084  14.291 -0.8383  1.4261  0.1224
12725TIP3   OH259589   0.560   2.962   4.531  0.1352  0.1682  0.0265
12725TIP3    H159590   0.603   2.901   4.590  1.3349 -0.3514 -1.3108
12725TIP3    H259591   0.492   2.910   4.488  1.8118 -0.6037 -1.8547
12726TIP3   OH259592   4.187   4.887   5.998  0.2636  0.1230 -0.0259
12726TIP3    H159593   4.114   4.928   5.951  1.4040 -0.3852 -2.4036
12726TIP3    H259594   4.186   4.928   6.085 -2.1259  0.9377 -0.3595
12727TIP3   OH259595   0.733   4.726   0.810 -0.0285 -0.3930  0.2041
12727TIP3    H159596   0.823   4.717   0.778 -0.3074  1.6404 -1.3092
12727TIP3    H259597   0.698   4.637   0.807  1.2179 -0.8797 -1.4356
12728TIP3   OH259598   2.032   4.525   2.270 -0.2817 -0.6538  0.5289
12728TIP3    H159599   1.965   4.484   2.324 -1.9536  0.2627 -0.7409
12728TIP3    H259600   2.026   4.618   2.291  0.4887 -0.5423  0.2771
12729TIP3   OH259601   2.207   0.160   2.479 -0.1738  0.0599 -0.1091
12729TIP3    H159602   2.202   0.166   2.574 -0.1011 -2.0342  0.0546
12729TIP3    H259603   2.285   0.211   2.456  0.5837 -0.5103  1.0846
12730TIP3   OH259604   3.549   3.702   0.216 -0.6723 -0.1278 -0.3893
12730TIP3    H159605   3.637   3.723   0.250 -0.5639 -0.7580 -0.2791
12730TIP3    H259606   3.555   3.611   0.187 -0.7844  0.3762 -2.0857
12731TIP3   OH259607   6.433   0.411   4.746 -0.3203 -0.4992  0.1892
12731TIP3    H159608   6.479   0.493   4.761  0.5918 -0.4354 -2.3448
12731TIP3    H259609   6.387   0.393   4.827  1.2139  1.3829  1.5573
12732TIP3   OH259610   0.782   1.009   3.262 -0.1351  0.1511  0.3675
12732TIP3    H159611   0.847   0.972   3.322 -1.1513 -1.1043  0.7546
12732TIP3    H259612   0.826   1.011   3.177  1.4558  2.3023  1.1535
12733TIP3   OH259613   5.092   0.855  11.792  0.2815  0.0738  0.4511
12733TIP3    H159614   4.997   0.844  11.795  0.0149  2.0784  3.6974
12733TIP3    H259615   5.125   0.799  11.862  1.5368 -0.5468 -0.5963
12734TIP3   OH259616   0.556   1.712   4.260 -0.0326  0.0169 -0.1331
12734TIP3    H159617   0.640   1.721   4.216 -0.0027 -1.3431 -0.3932
12734TIP3    H259618   0.495   1.762   4.206  0.6708  1.4448  0.3355
12735TIP3   OH259619   1.317   1.184   1.088  0.2865  0.3765 -0.1089
12735TIP3    H159620   1.317   1.279   1.089  0.2403  0.3860  1.4544
12735TIP3    H259621   1.409   1.160   1.104 -0.1144  0.2097  2.2674
12736TIP3   OH259622   1.039   6.295  16.020 -0.4005  0.0289 -0.4054
12736TIP3    H159623   1.054   6.205  15.992 -1.9849 -0.8980  1.4732
12736TIP3    H259624   1.124   6.338  16.009  0.7161 -2.0029 -0.2964
12737TIP3   OH259625   4.711   1.299  12.309 -0.6921  0.1208 -0.2775
12737TIP3    H159626   4.720   1.216  12.356  1.8069  0.9500  0.9362
12737TIP3    H259627   4.705   1.364  12.379 -0.2067  1.1314 -1.1557
12738TIP3   OH259628   5.960   6.298   2.703  0.0100 -0.5726  0.6023
12738TIP3    H159629   5.987   6.294   2.611 -2.7956 -1.1675 -0.2977
12738TIP3    H259630   5.908   6.378   2.709  0.0179 -0.6303  1.6544
12739TIP3   OH259631   4.278   3.575   0.463  0.1793 -0.2458 -0.4862
12739TIP3    H159632   4.372   3.562   0.451  0.3137 -1.2470  1.2912
12739TIP3    H259633   4.269   3.668   0.482  1.1243 -0.5122  1.5105
12740TIP3   OH259634   3.962   3.607  16.096  0.2810  0.1532 -0.5502
12740TIP3    H159635   4.005   3.530  16.059 -2.5226 -1.6699 -0.3091
12740TIP3    H259636   3.998   3.614  16.184 -0.5594 -1.9647  0.0215
12741TIP3   OH259637   4.480   0.976   1.468 -0.6941  0.0494 -0.0854
12741TIP3    H159638   4.443   1.013   1.388  0.7761 -1.4068 -1.5320
12741TIP3    H259639   4.571   1.003   1.468 -0.5867 -0.2499  0.9347
12742TIP3   OH259640   1.583   0.794   5.828 -1.0912  0.3597 -0.2553
12742TIP3    H159641   1.670   0.753   5.826  0.0772  2.5701  0.8482
12742TIP3    H259642   1.538   0.751   5.900  0.2674  1.2580  1.1894
12743TIP3   OH259643   2.251   2.641   1.568 -0.3863  0.0246 -0.1852
12743TIP3    H159644   2.247   2.625   1.474  0.9104  0.1723 -0.2818
12743TIP3    H259645   2.183   2.708   1.584 -1.3456 -0.7698 -0.8127
12744TIP3   OH259646   2.934   1.931   4.182  0.4563 -0.3100  0.4209
12744TIP3    H159647   2.853   1.897   4.146 -0.2374  0.2704  1.3747
12744TIP3    H259648   2.910   2.017   4.217  1.8096  0.5100 -0.5671
12745TIP3   OH259649   3.233   6.281   4.969  0.1379 -0.0236 -0.0094
12745TIP3    H159650   3.244   6.188   4.947 -0.8353 -0.5787  1.6758
12745TIP3    H259651   3.273   6.290   5.055 -1.4660  0.6736  0.6957
12746TIP3   OH259652   0.906   0.576  13.375 -0.0283  0.6716 -0.2141
12746TIP3    H159653   0.965   0.642  13.340 -0.5818  0.7990 -0.9298
12746TIP3    H259654   0.862   0.620  13.448 -0.3376  1.0752 -0.6378
12747TIP3   OH259655   1.377   5.713  15.638 -0.2242  0.0316  0.0463
12747TIP3    H159656   1.352   5.778  15.572  0.5769 -0.1716 -0.4759
12747TIP3    H259657   1.466   5.738  15.662  0.6201 -1.6586 -1.1726
12748TIP3   OH259658   3.370   3.700  15.479  0.7911 -0.3480  0.3011
12748TIP3    H159659   3.441   3.732  15.422  0.1459  0.9161  0.1884
12748TIP3    H259660   3.412   3.688  15.564  0.9463  1.3388  0.4894
12749TIP3   OH259661   3.539   1.157  13.463 -0.0888  0.1084 -0.3184
12749TIP3    H159662   3.452   1.165  13.424 -0.6778  0.8238  1.0571
12749TIP3    H259663   3.577   1.244  13.453 -1.3933  1.2628  3.1237
12750TIP3   OH259664   0.600   5.783   3.413 -0.0868 -0.5146  0.0862
12750TIP3    H159665   0.628   5.846   3.479  1.0685  0.5534 -1.3586
12750TIP3    H259666   0.660   5.709   3.423 -1.4027 -1.4408  1.7414
12751TIP3   OH259667   1.688   1.942  14.917  0.5370  0.0545 -0.8153
12751TIP3    H159668   1.673   1.868  14.858 -1.0333 -1.1804  1.0295
12751TIP3    H259669   1.778   1.930  14.947  1.3321  0.6472 -2.7884
12752TIP3   OH259670   2.590   2.521  12.769 -0.3607 -0.3764 -0.9910
12752TIP3    H159671   2.674   2.530  12.725 -0.5539 -0.1405 -1.3215
12752TIP3    H259672   2.612   2.498  12.860  0.0627 -0.1245 -1.0277
12753TIP3   OH259673   4.178   6.180   5.833 -0.5016  0.0969 -0.6903
12753TIP3    H159674   4.230   6.256   5.806 -2.2675  1.8697  0.5508
12753TIP3    H259675   4.204   6.165   5.924 -2.1831  1.1523  0.0211
12754TIP3   OH259676   2.817   5.332   4.360 -0.5685 -0.4683  0.3708
12754TIP3    H159677   2.801   5.245   4.323  0.6578 -0.0631 -1.1998
12754TIP3    H259678   2.730   5.373   4.362 -1.3466 -2.0393  2.1060
12755TIP3   OH259679   3.215   6.305  15.592  0.0252 -0.1710 -0.1880
12755TIP3    H159680   3.255   6.364  15.656  0.4089 -0.2135 -0.3873
12755TIP3    H259681   3.155   6.251  15.644 -1.2664  1.2128 -0.1858
12756TIP3   OH259682   0.743   5.398   3.666 -0.0652  0.2847  0.1427
12756TIP3    H159683   0.800   5.330   3.702  0.2385  1.2703  1.6028
12756TIP3    H259684   0.687   5.352   3.603  2.4637 -0.6880 -1.5276
12757TIP3   OH259685   3.439   0.724  16.444  0.0107 -0.1621 -0.5778
12757TIP3    H159686   3.397   0.712  16.359 -1.6512  0.6879  0.0814
12757TIP3    H259687   3.405   0.808  16.476 -1.7112 -1.7548  2.1675
12758TIP3   OH259688   2.321   6.526  16.660 -0.2851 -0.1292  0.5052
12758TIP3    H159689   2.353   6.600  16.712 -2.0316  0.7353  0.3947
12758TIP3    H259690   2.226   6.527  16.672 -0.3584 -2.4086  0.5481
12759TIP3   OH259691   6.017   2.905   2.880  0.3208  0.0431  0.8457
12759TIP3    H159692   6.030   2.908   2.975  0.6713 -0.2734  0.8100
12759TIP3    H259693   5.929   2.939   2.867  0.1333 -0.2477  1.3142
12760TIP3   OH259694   0.890   6.478   5.576 -0.0939 -0.2426 -0.3719
12760TIP3    H159695   0.979   6.459   5.546 -0.2848  0.9133 -1.8029
12760TIP3    H259696   0.859   6.545   5.515 -1.2986  0.6965  1.2018
12761TIP3   OH259697   2.112   1.794   0.495  0.5191  0.0300  0.0007
12761TIP3    H159698   2.120   1.762   0.585  0.8732  0.1019 -0.0014
12761TIP3    H259699   2.157   1.728   0.442 -0.6646 -0.5971 -0.2619
12762TIP3   OH259700   0.986   2.824  12.493  0.0971  0.7133  0.7697
12762TIP3    H159701   0.981   2.734  12.526 -1.1864  0.2868 -0.5175
12762TIP3    H259702   1.063   2.824  12.436  0.1014  0.4321  0.7758
12763TIP3   OH259703   4.878   2.279   5.645 -0.2953 -0.1251  0.3702
12763TIP3    H159704   4.944   2.284   5.715 -0.3212 -0.3707  0.4132
12763TIP3    H259705   4.883   2.364   5.602  2.6173 -1.2993 -1.9531
12764TIP3   OH259706   2.629   5.836  16.415  0.5318  0.0806  0.6146
12764TIP3    H159707   2.655   5.817  16.325 -0.1096  1.5417  0.1062
12764TIP3    H259708   2.576   5.760  16.441 -1.4241  0.7713 -1.1394
12765TIP3   OH259709   1.020   3.741  15.531  0.3490  0.1319 -0.5371
12765TIP3    H159710   1.115   3.737  15.519  0.6304  2.1846  0.4895
12765TIP3    H259711   0.997   3.832  15.515 -0.7246  0.7670  3.3804
12766TIP3   OH259712   6.375   6.794  11.938 -0.4064  0.3491  0.0615
12766TIP3    H159713   6.347   6.796  12.030  0.9161  1.2983  0.4726
12766TIP3    H259714   6.456   6.844  11.937  0.3259 -0.8036 -1.3946
12767TIP3   OH259715   0.758   3.325   1.840  0.4698 -0.0901 -0.5405
12767TIP3    H159716   0.662   3.333   1.844  0.6442  2.1260  1.4636
12767TIP3    H259717   0.776   3.234   1.862 -1.1495 -0.3298 -0.0620
12768TIP3   OH259718   2.595   0.556  13.463  0.1059 -0.3480 -0.1806
12768TIP3    H159719   2.639   0.586  13.543 -0.6365  1.9762 -0.5594
12768TIP3    H259720   2.661   0.503  13.419  1.9706  1.5117  0.1405
12769TIP3   OH259721   3.068   0.138   3.815  0.6670  0.2588  0.0630
12769TIP3    H159722   3.101   0.062   3.862  1.1160  0.9027  0.8308
12769TIP3    H259723   3.037   0.197   3.884  0.8493  1.0054 -0.4777
12770TIP3   OH259724   1.005   0.976  14.292 -0.3512  0.3666 -0.3797
12770TIP3    H159725   0.951   0.968  14.371  1.2760  1.2737  0.8932
12770TIP3    H259726   0.951   1.026  14.231 -2.2545 -1.6443 -0.5001
12771TIP3   OH259727   2.827   4.252   5.131 -0.1152  0.6680 -0.3310
12771TIP3    H159728   2.756   4.304   5.169 -0.9331 -0.0962 -0.7715
12771TIP3    H259729   2.906   4.289   5.169 -0.8719 -0.2664  2.3726
12772TIP3   OH259730   3.207   5.216   2.586  0.0668 -0.2657 -0.5912
12772TIP3    H159731   3.145   5.272   2.539 -0.6576 -0.9832 -0.4932
12772TIP3    H259732   3.196   5.240   2.678 -0.1544 -0.4913 -0.5607
12773TIP3   OH259733   4.787   3.346  12.125 -0.0581  0.1115  0.3345
12773TIP3    H159734   4.777   3.397  12.205 -0.6244  0.2761  0.1714
12773TIP3    H259735   4.753   3.404  12.056  1.3142  0.3558 -0.1715
12774TIP3   OH259736   6.382   3.668   0.530 -0.1961 -0.1214 -0.9215
12774TIP3    H159737   6.340   3.748   0.500  1.0849  0.2006 -1.9324
12774TIP3    H259738   6.459   3.697   0.579 -1.2686 -0.6966  1.2460
12775TIP3   OH259739   5.688   5.645   1.279 -0.3478 -0.2830 -0.1991
12775TIP3    H159740   5.660   5.642   1.187  0.7679 -1.3219 -0.5283
12775TIP3    H259741   5.693   5.738   1.299 -1.8320 -0.0392 -0.7795
12776TIP3   OH259742   0.583   2.389   2.609  0.1021 -0.5720  0.3667
12776TIP3    H159743   0.668   2.349   2.590 -0.0660 -0.0934 -1.5524
12776TIP3    H259744   0.590   2.419   2.700  2.3814  0.4936 -0.1176
12777TIP3   OH259745   1.435   2.232  15.348  0.4004 -0.0214 -0.2858
12777TIP3    H159746   1.511   2.241  15.290  0.1073 -0.2028 -0.7012
12777TIP3    H259747   1.373   2.180  15.298 -0.0873  0.3065 -0.0241
12778TIP3   OH259748   0.397   4.419  13.784 -0.2206  0.0781  0.0424
12778TIP3    H159749   0.455   4.357  13.738  1.4110 -0.2978  2.4269
12778TIP3    H259750   0.377   4.376  13.867  0.1753  2.3226  1.3595
12779TIP3   OH259751   6.507   3.876  16.128  0.1817 -0.4895  0.1423
12779TIP3    H159752   6.461   3.955  16.156  1.1774 -0.3315  1.3942
12779TIP3    H259753   6.500   3.878  16.032 -0.0867  0.9359  0.1661
12780TIP3   OH259754   2.451   0.989  12.094  0.0023 -0.2672  0.0343
12780TIP3    H159755   2.369   1.038  12.088 -0.7037 -1.5088 -0.9899
12780TIP3    H259756   2.514   1.041  12.044  0.1054  1.1465  1.5568
12781TIP3   OH259757   0.118   2.318   0.743 -0.1664  0.1458  0.5365
12781TIP3    H159758   0.172   2.397   0.752  0.6205 -0.3647  0.4447
12781TIP3    H259759   0.170   2.249   0.785 -1.0346 -0.2465  1.0002
12782TIP3   OH259760   3.729   5.226  15.652  0.4355  0.2245  0.6022
12782TIP3    H159761   3.681   5.207  15.733 -0.1375 -0.0292  0.2108
12782TIP3    H259762   3.739   5.140  15.610 -0.3655  0.5093 -0.1934
12783TIP3   OH259763   4.837   4.663  11.068 -0.2372  0.5884  0.3426
12783TIP3    H159764   4.928   4.643  11.085 -0.0813 -1.0926 -1.8998
12783TIP3    H259765   4.802   4.584  11.026 -3.2191  0.5022  2.5957
12784TIP3   OH259766   3.841   3.795   4.522 -0.2840 -0.1469 -0.1431
12784TIP3    H159767   3.911   3.738   4.490 -0.3553 -1.1204  1.3304
12784TIP3    H259768   3.764   3.738   4.527 -0.9749  0.6841 -0.8823
12785TIP3   OH259769   3.602   1.342  14.928 -0.6030  0.5718 -0.7025
12785TIP3    H159770   3.691   1.351  14.961 -0.2841 -1.6909 -0.7931
12785TIP3    H259771   3.549   1.328  15.006 -0.5734 -0.0088 -0.7828
12786TIP3   OH259772   1.134   1.742  13.308  0.2742 -0.2933  0.4388
12786TIP3    H159773   1.143   1.680  13.380 -2.1006 -0.0199  1.0468
12786TIP3    H259774   1.219   1.787  13.304  0.7832 -0.9966  2.3997
12787TIP3   OH259775   1.525   0.771   1.494  0.1220  0.5971 -0.0836
12787TIP3    H159776   1.434   0.770   1.464  0.6581  2.1159 -1.9479
12787TIP3    H259777   1.529   0.845   1.555 -0.0841 -0.0646  0.7493
12788TIP3   OH259778   2.505   3.861  14.114 -0.0032  0.3784  0.7162
12788TIP3    H159779   2.450   3.815  14.050 -2.1248  2.4076  0.9349
12788TIP3    H259780   2.519   3.947  14.077 -0.6160  1.3409  2.5557
12789TIP3   OH259781   4.049   1.064  14.026 -0.4739  0.0216 -0.2200
12789TIP3    H159782   4.092   0.980  14.039 -1.4090 -0.3282  0.7340
12789TIP3    H259783   3.998   1.053  13.945 -1.7407 -0.8582  0.6429
12790TIP3   OH259784   3.926   1.446  12.762 -0.2976 -0.1214  0.0834
12790TIP3    H159785   3.932   1.398  12.845 -0.2884 -0.5935 -0.1903
12790TIP3    H259786   3.832   1.446  12.741 -0.3856  0.6089  0.4491
12791TIP3   OH259787   4.580   1.143   2.657 -0.2786 -0.3472 -0.3384
12791TIP3    H159788   4.544   1.125   2.570 -1.0054  0.9321 -0.3169
12791TIP3    H259789   4.527   1.091   2.716 -0.4322 -0.4412 -0.5583
12792TIP3   OH259790   3.563   2.173  10.965  0.3015 -0.0844  0.2013
12792TIP3    H159791   3.484   2.213  10.928  0.4659 -2.4512 -3.1966
12792TIP3    H259792   3.634   2.206  10.911  1.5941  1.0559  2.4485
12793TIP3   OH259793   4.938   6.605  12.100 -0.1455 -0.1572 -0.2579
12793TIP3    H159794   4.963   6.515  12.079 -0.4937 -0.4267  0.4627
12793TIP3    H259795   4.928   6.606  12.195 -0.4420  0.5674 -0.2883
12794TIP3   OH259796   2.286   2.770   4.969 -0.0388 -0.3945  0.2218
12794TIP3    H159797   2.238   2.791   4.889  2.6184  0.0645 -1.3927
12794TIP3    H259798   2.223   2.785   5.040 -2.3534 -0.3303 -1.7132
12795TIP3   OH259799   0.369   5.930  16.417  0.2747  0.3937 -0.6703
12795TIP3    H159800   0.430   5.904  16.485  0.6806  3.0058  0.0556
12795TIP3    H259801   0.349   5.849  16.370  0.8637 -1.2848  1.8110
12796TIP3   OH259802   2.935   0.534   4.099 -0.1886 -0.0896 -0.3834
12796TIP3    H159803   2.845   0.505   4.109 -0.0049 -0.6374 -0.2599
12796TIP3    H259804   2.957   0.572   4.184 -0.9202  1.8743 -1.0130
12797TIP3   OH259805   3.566   6.184  11.556 -0.3516  0.2045 -0.0845
12797TIP3    H159806   3.493   6.123  11.564  0.4497 -0.6775  0.7259
12797TIP3    H259807   3.577   6.220  11.644  0.1439  0.3783 -0.2136
12798TIP3   OH259808   4.196   1.347   6.507 -0.0438  0.4809  0.1523
12798TIP3    H159809   4.276   1.305   6.538  0.2386  0.8242 -0.1077
12798TIP3    H259810   4.208   1.440   6.527 -0.5624  0.4766  0.5046
12799TIP3   OH259811   1.923   5.820  11.473 -0.7698 -0.8959  0.2926
12799TIP3    H159812   1.912   5.885  11.542  3.0639 -0.0324  0.3011
12799TIP3    H259813   1.883   5.740  11.509 -2.1822  0.4377  1.8784
12800TIP3   OH259814   0.002   1.026  16.965 -0.1561 -0.0050 -0.3330
12800TIP3    H159815   0.085   1.068  16.942  0.7792 -2.1942 -1.3055
12800TIP3    H259816   0.015   0.995  17.054 -0.9530  1.8944  0.4932
12801TIP3   OH259817   4.140   1.219  15.844 -1.0320 -0.0040  0.8897
12801TIP3    H159818   4.226   1.180  15.829 -1.4447 -0.1206 -1.7074
12801TIP3    H259819   4.078   1.157  15.804 -2.0761  1.2080  0.5487
12802TIP3   OH259820   2.971   6.702   5.233  0.2570  0.0778  0.1424
12802TIP3    H159821   2.910   6.712   5.307  0.7513 -0.3191  0.6133
12802TIP3    H259822   3.035   6.638   5.263  0.2064 -0.4362 -0.8109
12803TIP3   OH259823   0.749   3.246  12.420  0.1862 -0.4262  0.0455
12803TIP3    H159824   0.712   3.282  12.339  0.5607  1.2927  0.5851
12803TIP3    H259825   0.797   3.168  12.392  2.2287  1.3628 -1.8074
12804TIP3   OH259826   1.086   6.037  12.518  0.6594  0.1700 -0.3880
12804TIP3    H159827   1.073   5.943  12.534  0.9406  0.1395 -0.3453
12804TIP3    H259828   1.146   6.065  12.587 -1.2167  0.8679  1.0438
12805TIP3   OH259829   0.636   3.056   4.274 -0.2968  0.2942  0.0289
12805TIP3    H159830   0.588   3.137   4.258 -0.5814  0.1108 -0.0536
12805TIP3    H259831   0.590   3.014   4.346 -0.3396  0.0568 -0.1336
12806TIP3   OH259832   3.516   1.469  15.714  0.1960 -0.1352  0.5484
12806TIP3    H159833   3.433   1.500  15.678 -0.3729 -2.7614 -0.6292
12806TIP3    H259834   3.500   1.463  15.808 -1.0588 -0.7919  0.3168
12807TIP3   OH259835   4.038   3.628  15.393 -0.1743 -0.4571 -0.3666
12807TIP3    H159836   4.041   3.542  15.436  0.6424 -0.1709  0.1583
12807TIP3    H259837   4.064   3.611  15.303  2.3633 -0.4349  0.2939
12808TIP3   OH259838   5.497   6.732   4.508 -0.0593  0.6249  0.5998
12808TIP3    H159839   5.445   6.750   4.429  0.4330  1.8031  0.5260
12808TIP3    H259840   5.550   6.656   4.485 -1.6161 -0.5036  0.6236
12809TIP3   OH259841   1.157   4.732   0.601 -0.0552  0.2910  0.5309
12809TIP3    H159842   1.103   4.749   0.679  1.0884  0.8634  1.2319
12809TIP3    H259843   1.189   4.643   0.613 -1.7061 -0.4839 -0.4541
12810TIP3   OH259844   3.118   4.583  13.458  0.2710 -0.6716 -0.3519
12810TIP3    H159845   3.047   4.577  13.521 -0.4236 -1.2955 -1.1748
12810TIP3    H259846   3.081   4.550  13.376  1.0445  0.4268 -1.1816
12811TIP3   OH259847   2.874   0.794  10.623 -0.1442 -0.4921 -0.2809
12811TIP3    H159848   2.794   0.817  10.671  0.1706 -0.9722  0.4905
12811TIP3    H259849   2.931   0.756  10.690 -0.2359 -2.5337 -1.3119
12812TIP3   OH259850   0.407   3.955   1.820  0.2439  0.1204 -0.7349
12812TIP3    H159851   0.441   3.953   1.731 -2.0135  2.1868 -1.7665
12812TIP3    H259852   0.438   4.037   1.857  0.5855 -0.3938  0.1598
12813TIP3   OH259853   2.120   6.286  12.469  0.5482 -0.4730  0.0040
12813TIP3    H159854   2.194   6.344  12.448  0.5814 -0.5805 -0.1741
12813TIP3    H259855   2.160   6.199  12.478  0.2834 -0.7348 -1.2088
12814TIP3   OH259856   5.903   2.121   0.097 -0.3530 -0.3592 -0.3352
12814TIP3    H159857   5.960   2.045   0.086  0.9889  0.6304 -0.4753
12814TIP3    H259858   5.814   2.086   0.091  0.2353 -1.9163 -0.3044
12815TIP3   OH259859   1.436   3.744  11.956 -0.3860  0.1688  0.6179
12815TIP3    H159860   1.452   3.760  12.049 -0.3752  3.0229  0.2190
12815TIP3    H259861   1.345   3.768  11.942 -0.5249 -0.6835 -0.0629
12816TIP3   OH259862   5.860   1.641  13.929  0.3656  0.2709 -0.1061
12816TIP3    H159863   5.904   1.718  13.892 -1.9145  2.0472  0.6274
12816TIP3    H259864   5.914   1.616  14.004  0.7272  1.7073  0.1451
12817TIP3   OH259865   3.684   3.291   2.363 -0.1736  0.2248  0.3284
12817TIP3    H159866   3.775   3.276   2.337  0.1451  1.3709  0.7014
12817TIP3    H259867   3.690   3.337   2.447 -1.0583  1.4011 -0.2265
12818TIP3   OH259868   0.824   4.472   4.431 -0.5838 -0.0480 -0.2500
12818TIP3    H159869   0.749   4.504   4.382 -0.9855  0.2902  0.5631
12818TIP3    H259870   0.895   4.468   4.367 -0.1438  3.6335 -0.2306
12819TIP3   OH259871   1.783   4.088   3.087 -0.7474  0.2386 -0.6279
12819TIP3    H159872   1.734   4.152   3.036 -2.6626 -2.7864 -2.9121
12819TIP3    H259873   1.805   4.018   3.025 -0.0319 -2.0158  1.9363
12820TIP3   OH259874   3.650   0.348   4.060  0.7273  0.1644  0.3242
12820TIP3    H159875   3.651   0.254   4.040 -1.2373  0.3831 -1.1754
12820TIP3    H259876   3.704   0.388   3.992 -0.0301  0.2623 -0.2370
12821TIP3   OH259877   0.566   0.644   2.653  0.4071  0.2234 -0.2520
12821TIP3    H159878   0.645   0.674   2.698  1.0326 -0.4903 -0.8344
12821TIP3    H259879   0.526   0.723   2.619  0.5586  0.6532  0.5366
12822TIP3   OH259880   5.566   2.047  12.795 -0.2219  0.3973 -0.1857
12822TIP3    H159881   5.622   2.035  12.717 -0.1051  1.7222 -0.3286
12822TIP3    H259882   5.548   2.141  12.797  1.6525  0.8299  2.6534
12823TIP3   OH259883   4.725   1.967   4.405 -0.0608  0.0497 -0.3496
12823TIP3    H159884   4.772   1.896   4.449 -0.0433 -0.7273 -1.5843
12823TIP3    H259885   4.641   1.973   4.451  0.4050  0.0331  0.5149
12824TIP3   OH259886   2.076   5.892  14.306  0.5366  0.0508 -0.1894
12824TIP3    H159887   2.013   5.956  14.340 -1.0573 -1.1486 -0.7433
12824TIP3    H259888   2.055   5.886  14.212 -0.2931 -2.2372  0.0874
12825TIP3   OH259889   6.507   4.754  13.033  0.0880  0.9933  0.0446
12825TIP3    H159890   6.548   4.749  12.946  0.5308 -0.0017  0.2905
12825TIP3    H259891   6.537   4.837  13.069 -0.6924  1.7742 -1.0395
12826TIP3   OH259892   3.648   6.738   3.445 -0.8221  0.3354  0.1459
12826TIP3    H159893   3.567   6.739   3.497 -1.0860 -0.4748 -0.2241
12826TIP3    H259894   3.709   6.790   3.496 -2.0424  2.3890 -0.3739
12827TIP3   OH259895   0.080   5.354  14.281 -0.6157  0.3958  0.4033
12827TIP3    H159896   0.070   5.448  14.298  3.6895  0.9827  0.6129
12827TIP3    H259897   0.077   5.313  14.367  1.2479  0.8920  0.7470
12828TIP3   OH259898   1.143   2.860   6.063  0.2440  0.2886  0.7148
12828TIP3    H159899   1.180   2.942   6.096  0.2750  1.3120 -1.6409
12828TIP3    H259900   1.070   2.888   6.007 -0.5430 -1.3870  0.8488
12829TIP3   OH259901   2.559   5.017  12.926  0.1671  0.0767  0.2353
12829TIP3    H159902   2.541   5.103  12.962  1.4387  0.4153  0.1166
12829TIP3    H259903   2.640   4.989  12.969  1.2069  0.0786 -1.6024
12830TIP3   OH259904   0.009   5.662  15.209 -0.2203  0.1961 -0.3945
12830TIP3    H159905  -0.048   5.673  15.285  1.1879  0.5466  0.6643
12830TIP3    H259906   0.097   5.682  15.242  0.7736 -1.9067 -1.5108
12831TIP3   OH259907   4.297   2.057   5.881  0.4379  0.4521 -0.4026
12831TIP3    H159908   4.294   2.151   5.864 -0.2007  0.4380 -0.4007
12831TIP3    H259909   4.327   2.050   5.971 -0.8806  0.7200  0.0851
12832TIP3   OH259910   1.981   2.238  11.900 -0.1066 -0.5029  0.0173
12832TIP3    H159911   1.886   2.231  11.891 -0.1662  0.6709 -0.3953
12832TIP3    H259912   2.009   2.150  11.925 -1.1459 -1.2133 -1.1950
12833TIP3   OH259913   5.337   1.420   3.048 -0.1502 -0.1436 -0.0123
12833TIP3    H159914   5.365   1.421   2.956 -1.0637  1.4645 -0.3023
12833TIP3    H259915   5.386   1.492   3.089  0.5876 -1.1281  0.8905
12834TIP3   OH259916   4.547   0.631  10.435 -0.2477  0.0660  0.0106
12834TIP3    H159917   4.540   0.549  10.484 -0.1349  0.2122  0.2717
12834TIP3    H259918   4.636   0.629  10.398 -0.2613  0.0494 -0.0222
12835TIP3   OH259919   5.191   3.426   4.482  0.1601  0.1900  0.3163
12835TIP3    H159920   5.230   3.473   4.408  2.2848 -0.3262  1.0294
12835TIP3    H259921   5.112   3.385   4.446  1.1801 -0.1122 -1.6914
12836TIP3   OH259922   0.344   5.699   3.457  0.0742  0.2698 -0.0026
12836TIP3    H159923   0.312   5.720   3.545  0.0214  1.0921 -0.2136
12836TIP3    H259924   0.425   5.748   3.448 -0.2947  0.7714 -0.6806
12837TIP3   OH259925   6.685   4.759  15.822  0.5317  0.0021 -0.3249
12837TIP3    H159926   6.688   4.708  15.903  0.1723 -1.7554 -1.3436
12837TIP3    H259927   6.625   4.710  15.766  2.5718 -0.2366 -2.4973
12838TIP3   OH259928   6.737   0.382   2.946  0.1311 -0.2864  0.8175
12838TIP3    H159929   6.745   0.395   3.041 -1.2427 -0.8962  1.0342
12838TIP3    H259930   6.756   0.289   2.933  0.1478 -0.2392  0.5175
12839TIP3   OH259931   2.851   6.350  11.313  0.0636  0.8057  0.0396
12839TIP3    H159932   2.898   6.375  11.233  1.8977 -0.5612  0.6195
12839TIP3    H259933   2.847   6.255  11.309  2.2742  0.4961  2.6176
12840TIP3   OH259934   6.768   3.761   5.366 -0.0925  0.0808 -0.1858
12840TIP3    H159935   6.710   3.770   5.441 -1.0727  1.6397 -1.0687
12840TIP3    H259936   6.769   3.849   5.327 -0.2940 -0.8744 -2.4698
12841TIP3   OH259937   6.455   2.107   1.869 -0.0470  0.0004  0.2412
12841TIP3    H159938   6.369   2.067   1.883 -0.8876  1.2747 -0.9702
12841TIP3    H259939   6.463   2.112   1.774  0.4489  1.7478  0.3349
12842TIP3   OH259940   1.312   4.009   0.796 -0.1254 -0.2049  0.0801
12842TIP3    H159941   1.268   3.942   0.849  3.2668 -0.9423  2.2979
12842TIP3    H259942   1.303   4.090   0.846  0.8846 -0.3496  0.5218
12843TIP3   OH259943   5.740   4.768   3.445 -0.3362 -0.1300  0.1221
12843TIP3    H159944   5.825   4.724   3.455 -0.6265 -0.3512  2.0267
12843TIP3    H259945   5.751   4.823   3.368  1.3320 -0.6400 -0.0562
12844TIP3   OH259946   0.636   6.763  12.391  0.1301 -0.4537 -0.2816
12844TIP3    H159947   0.659   6.842  12.440  0.7424 -0.4629 -0.5459
12844TIP3    H259948   0.630   6.792  12.300 -3.2985  0.0828 -0.0395
12845TIP3   OH259949   3.811   4.951   2.268  0.5643 -0.6399 -0.3268
12845TIP3    H159950   3.774   5.035   2.239  1.3324 -1.0851 -2.7368
12845TIP3    H259951   3.871   4.975   2.338  0.2734  0.7465 -0.5159
12846TIP3   OH259952   5.287   4.505  12.805 -0.0999  0.7097  0.2967
12846TIP3    H159953   5.245   4.591  12.811 -1.8850 -0.1768  1.1924
12846TIP3    H259954   5.224   4.450  12.760  1.9690  0.3503 -2.4113
12847TIP3   OH259955   3.383   2.316   5.467 -0.0463  0.1997 -0.3233
12847TIP3    H159956   3.329   2.237   5.472  1.0251 -0.5293 -0.1045
12847TIP3    H259957   3.394   2.342   5.558  0.5375 -0.0454 -0.3228
12848TIP3   OH259958   5.768   6.040   3.611 -0.1703 -0.2254  0.1311
12848TIP3    H159959   5.831   5.971   3.630  1.2363  1.2086  0.9977
12848TIP3    H259960   5.712   6.005   3.542  1.1358 -1.8107 -0.1610
12849TIP3   OH259961   0.889   3.359  16.758 -0.3375 -0.1245 -0.3954
12849TIP3    H159962   0.959   3.422  16.774 -0.4254  0.3097 -1.6306
12849TIP3    H259963   0.923   3.303  16.688 -1.0068 -0.2466 -0.6331
12850TIP3   OH259964   3.741   0.769  11.057 -0.0649 -0.1863 -0.4619
12850TIP3    H159965   3.684   0.845  11.045  1.4156  1.2739  1.2389
12850TIP3    H259966   3.693   0.697  11.016 -1.7946  1.5232 -1.6249
12851TIP3   OH259967   6.171   4.945   1.778 -0.3861  0.0588 -0.3310
12851TIP3    H159968   6.247   4.892   1.753  0.2549  1.6753 -1.9574
12851TIP3    H259969   6.096   4.902   1.736 -0.0641 -0.2816 -0.5572
12852TIP3   OH259970   0.646   5.816  12.800 -0.6723 -0.0458 -0.3274
12852TIP3    H159971   0.730   5.833  12.757 -0.2891  1.6366  1.0024
12852TIP3    H259972   0.665   5.746  12.862  0.3970  1.8457  1.6080
12853TIP3   OH259973   0.208   5.156  10.296 -0.1078 -0.4738 -0.2847
12853TIP3    H159974   0.237   5.091  10.359  0.0612 -0.9417 -0.8306
12853TIP3    H259975   0.284   5.213  10.284  0.5147 -1.4873 -1.4422
12854TIP3   OH259976   3.363   2.780  14.663 -0.6232  0.1173  0.5337
12854TIP3    H159977   3.312   2.705  14.695  0.0268 -0.6919 -0.2369
12854TIP3    H259978   3.454   2.753  14.677 -0.3909  0.9359  0.5988
12855TIP3   OH259979   1.933   2.972   0.321  0.1092  0.3032 -0.1060
12855TIP3    H159980   1.980   2.925   0.391  0.0755 -0.8943 -0.8635
12855TIP3    H259981   1.950   3.064   0.339  2.6448 -0.0559 -0.2502
12856TIP3   OH259982   6.442   5.397   4.368  0.2821  0.3204 -0.0071
12856TIP3    H159983   6.442   5.309   4.406 -2.8488 -1.2362 -3.0715
12856TIP3    H259984   6.533   5.412   4.343  1.1209 -1.4764  1.6856
12857TIP3   OH259985   6.285   5.731  15.482  0.2090  0.1930  0.4900
12857TIP3    H159986   6.205   5.712  15.432  0.4920  2.7065 -1.0977
12857TIP3    H259987   6.306   5.649  15.526 -3.6351 -0.4153  1.5747
12858TIP3   OH259988   1.508   5.396  13.437 -0.4094 -0.2792  0.7304
12858TIP3    H159989   1.570   5.330  13.468 -0.3485 -0.1328  0.9175
12858TIP3    H259990   1.483   5.445  13.516  0.4341  0.6873  0.4119
12859TIP3   OH259991   0.576   0.416   3.603  0.0354  0.3958  0.3783
12859TIP3    H159992   0.533   0.502   3.608  1.7718  1.3441  0.0095
12859TIP3    H259993   0.569   0.391   3.511  1.8022  1.4668 -0.1207
12860TIP3   OH259994   1.407   6.424  15.005  0.1609 -0.0149  0.1443
12860TIP3    H159995   1.469   6.411  15.077  0.2677  1.5865  0.3771
12860TIP3    H259996   1.415   6.517  14.984 -1.9693  0.1616 -0.0209
12861TIP3   OH259997   2.355   1.052  15.169  0.2180 -0.2234  0.6921
12861TIP3    H159998   2.330   1.004  15.248  1.5723  0.4719  1.5932
12861TIP3    H259999   2.324   1.141  15.185  0.0008 -0.2083  0.1904
12862TIP3   OH260000   6.290   3.964  10.584  0.1968 -0.2754  0.5455
12862TIP3    H160001   6.237   3.885  10.599 -2.6518  1.3003 -0.5145
12862TIP3    H260002   6.279   4.015  10.664 -1.7112  0.9456 -0.4071
12863TIP3   OH260003   3.458   1.412  15.987  0.1920  0.0327 -0.1359
12863TIP3    H160004   3.382   1.379  16.034  0.2790  0.8957  0.6369
12863TIP3    H260005   3.522   1.340  15.990 -0.7732 -0.9171 -1.2994
12864TIP3   OH260006   5.731   0.239   1.608 -0.3455 -0.4693 -0.2135
12864TIP3    H160007   5.661   0.272   1.664  0.1456  0.2394 -0.0155
12864TIP3    H260008   5.793   0.311   1.600 -1.2662  0.1034 -3.1725
12865TIP3   OH260009   0.428   1.498   5.873  0.9100  0.0800 -0.3411
12865TIP3    H160010   0.424   1.592   5.852  2.4033  0.2598  0.0334
12865TIP3    H260011   0.479   1.494   5.954  2.7236 -1.1700 -1.4778
12866TIP3   OH260012   5.278   4.855  11.824 -0.2451  0.0721  0.6990
12866TIP3    H160013   5.271   4.904  11.742 -0.6919 -0.8705  0.1510
12866TIP3    H260014   5.372   4.839  11.835 -0.1158  0.8728  0.7834
12867TIP3   OH260015   0.717   3.879   0.231 -0.1049 -0.3432  0.4551
12867TIP3    H160016   0.713   3.842   0.143  2.0324  1.2778 -0.4251
12867TIP3    H260017   0.744   3.807   0.287  0.7349 -0.8939 -0.6286
12868TIP3   OH260018   2.434   3.900   0.406 -0.0875 -0.2049 -0.4136
12868TIP3    H160019   2.443   3.946   0.489  1.6594  0.4260 -0.9006
12868TIP3    H260020   2.384   3.821   0.427 -3.2091  1.8419  0.4496
12869TIP3   OH260021   2.238   6.170   1.126  0.3230  0.2926  0.0824
12869TIP3    H160022   2.185   6.133   1.197 -1.0831 -2.0385 -2.0455
12869TIP3    H260023   2.193   6.251   1.103 -0.3940  0.0269  0.4978
12870TIP3   OH260024   1.009   2.227  10.893  0.1206  0.0261 -0.1487
12870TIP3    H160025   1.072   2.297  10.878 -0.1996  0.1752 -0.8641
12870TIP3    H260026   1.058   2.146  10.880  0.5668  0.1042  0.9916
12871TIP3   OH260027   0.516   4.164  11.266  0.3724 -0.5480 -0.2279
12871TIP3    H160028   0.609   4.171  11.290  0.2689  1.7842 -0.2060
12871TIP3    H260029   0.514   4.186  11.173 -0.0956 -1.2711 -0.3935
12872TIP3   OH260030   0.621   1.499   2.811 -0.0868  0.5453 -0.7884
12872TIP3    H160031   0.528   1.513   2.828 -0.4675 -2.4758  0.1274
12872TIP3    H260032   0.628   1.405   2.793  2.5439  1.0100 -2.6776
12873TIP3   OH260033   0.013   5.226   3.656 -0.7083 -0.3335  0.2687
12873TIP3    H160034  -0.027   5.193   3.737 -1.9622  3.4626  1.4096
12873TIP3    H260035   0.106   5.233   3.677 -0.9342  0.0571  1.1950
12874TIP3   OH260036   1.162   0.446   6.669  0.4366 -0.4211 -0.2066
12874TIP3    H160037   1.172   0.510   6.739 -2.4086 -0.6276  0.5328
12874TIP3    H260038   1.094   0.484   6.612  0.0393 -1.9293 -0.7772
12875TIP3   OH260039   2.976   1.204  15.046  0.3542 -0.5164  0.0292
12875TIP3    H160040   3.004   1.272  14.984 -0.6161 -0.4781 -0.3898
12875TIP3    H260041   2.959   1.252  15.127  0.2589 -0.3449 -0.0895
12876TIP3   OH260042   2.832   1.144   6.609 -0.1388 -0.0678  0.6247
12876TIP3    H160043   2.885   1.082   6.658  0.8231 -1.2309 -1.7354
12876TIP3    H260044   2.742   1.119   6.628  0.2208 -0.8858  1.3051
12877TIP3   OH260045   1.852   6.721  12.572 -0.4085 -0.3547  0.3646
12877TIP3    H160046   1.901   6.801  12.550  0.2234 -1.4100 -2.4520
12877TIP3    H260047   1.876   6.703  12.663  2.3277  0.6597 -0.0665
12878TIP3   OH260048   3.356   1.689   1.604  0.4378 -0.2358 -0.1750
12878TIP3    H160049   3.284   1.630   1.626  0.2798  0.7870  2.4150
12878TIP3    H260050   3.429   1.660   1.659  0.8562  0.9406 -0.0669
12879TIP3   OH260051   3.895   0.443  12.223  0.1128 -0.5143  0.3831
12879TIP3    H160052   3.837   0.422  12.150  0.7053  1.2082 -0.6476
12879TIP3    H260053   3.885   0.537  12.235  0.4344 -0.6631  2.2146
12880TIP3   OH260054   4.916   4.619  12.378  0.9407  0.3422 -0.1552
12880TIP3    H160055   4.904   4.661  12.464  2.5784  0.8710 -0.1596
12880TIP3    H260056   4.922   4.692  12.317  1.7597  0.0375 -0.4452
12881TIP3   OH260057   1.169   3.062   0.601 -0.0480 -0.1775 -0.4939
12881TIP3    H160058   1.189   2.969   0.595 -1.6096 -0.5263 -0.5498
12881TIP3    H260059   1.215   3.102   0.527  1.1318 -0.7951 -0.1155
12882TIP3   OH260060   3.867   3.771  16.668  0.5364 -0.1502 -0.6603
12882TIP3    H160061   3.923   3.761  16.745  0.8991  2.5898 -0.4609
12882TIP3    H260062   3.778   3.767  16.703  0.6976  0.7762 -0.0945
12883TIP3   OH260063   5.187   3.397   5.710  0.4309 -1.0610  0.4057
12883TIP3    H160064   5.219   3.471   5.762 -0.8772 -0.2925  0.1519
12883TIP3    H260065   5.229   3.321   5.749 -0.2074 -0.4675  2.3329
12884TIP3   OH260066   0.538   5.562   5.148  0.2150 -0.0959  0.5018
12884TIP3    H160067   0.550   5.651   5.181 -0.8692 -0.0809  0.8976
12884TIP3    H260068   0.547   5.507   5.226 -1.6283 -0.1170  0.7419
12885TIP3   OH260069   2.461   1.329   4.110 -0.1843 -0.0395  0.1577
12885TIP3    H160070   2.451   1.363   4.021 -1.8892  2.2066  1.1405
12885TIP3    H260071   2.395   1.260   4.117  1.7141 -2.1609 -1.0611
12886TIP3   OH260072   0.800   4.473  15.848 -0.2993 -0.2282 -0.7160
12886TIP3    H160073   0.818   4.557  15.890 -1.6139 -1.0565  1.7046
12886TIP3    H260074   0.704   4.470  15.841 -0.3152 -1.7926 -0.1152
12887TIP3   OH260075   3.048   3.033  15.255  0.4532 -0.1092  0.1821
12887TIP3    H160076   3.002   2.962  15.211 -0.5175  1.3858 -1.3324
12887TIP3    H260077   3.097   3.077  15.185 -1.5224  2.6546  0.3846
12888TIP3   OH260078   3.997   6.641   4.417 -0.0742 -0.4559  0.0261
12888TIP3    H160079   3.965   6.706   4.480  1.2137 -0.3254  0.5830
12888TIP3    H260080   4.048   6.692   4.354 -0.5227 -0.7176 -0.5574
12889TIP3   OH260081   2.310   3.879  16.397  0.5621 -0.6409 -0.2601
12889TIP3    H160082   2.336   3.894  16.488  0.0589  0.6656 -0.3090
12889TIP3    H260083   2.306   3.967  16.359 -1.1883 -1.0055 -0.9887
12890TIP3   OH260084   1.320   3.863  15.550 -0.6511 -0.1346  0.1692
12890TIP3    H160085   1.373   3.924  15.601 -0.7050 -0.6719  0.8851
12890TIP3    H260086   1.364   3.778  15.561 -0.1082 -0.0989 -1.4787
12891TIP3   OH260087   2.963   1.255  16.005 -0.2781 -0.1978 -0.0846
12891TIP3    H160088   3.037   1.196  15.992 -0.5862 -0.5155 -0.4408
12891TIP3    H260089   2.887   1.204  15.977 -0.4968  0.5379 -0.8587
12892TIP3   OH260090   0.739   1.776  15.120 -0.1665  0.2672 -0.4986
12892TIP3    H160091   0.781   1.743  15.041  0.6992  1.4301 -0.5553
12892TIP3    H260092   0.694   1.855  15.092 -0.6350  0.1751 -0.0094
12893TIP3   OH260093   1.523   2.287  13.795  0.2827 -0.0560  0.6991
12893TIP3    H160094   1.616   2.263  13.796  0.6438  0.8860 -2.2892
12893TIP3    H260095   1.483   2.228  13.859  2.8874 -0.5440  2.0217
12894TIP3   OH260096   6.601   5.205   2.564 -0.1794 -0.2618  0.4435
12894TIP3    H160097   6.605   5.236   2.473 -1.1223 -0.3571  0.3623
12894TIP3    H260098   6.635   5.115   2.560  1.3930  0.3091  0.4792
12895TIP3   OH260099   0.757   6.371   0.633  0.1341 -0.1122 -0.1090
12895TIP3    H160100   0.682   6.315   0.612 -0.6463  1.0623 -0.5474
12895TIP3    H260101   0.757   6.377   0.728  0.9362 -1.7760  0.0309
12896TIP3   OH260102   3.280   6.209  11.101  0.3745 -0.4983 -0.1031
12896TIP3    H160103   3.301   6.230  11.010  1.2384 -1.5993 -0.1786
12896TIP3    H260104   3.185   6.207  11.105  0.2857  1.2441 -0.5713
12897TIP3   OH260105   6.496   3.777  13.374 -0.4031  0.2731 -0.1587
12897TIP3    H160106   6.439   3.704  13.351 -1.8805  0.0338  3.5342
12897TIP3    H260107   6.518   3.818  13.291 -2.7563 -2.0141 -2.0645
12898TIP3   OH260108   2.750   4.659   1.393 -0.6030 -0.7946  0.4224
12898TIP3    H160109   2.807   4.582   1.385  0.7694  0.3108 -1.1531
12898TIP3    H260110   2.662   4.626   1.376  0.1922 -1.7074 -2.4625
12899TIP3   OH260111   6.683   3.414   3.990  0.1137  0.1842  0.9245
12899TIP3    H160112   6.764   3.407   4.040  1.5713 -0.6219 -1.4047
12899TIP3    H260113   6.637   3.332   4.007  0.8397 -0.3090  0.5609
12900TIP3   OH260114   2.431   2.031   0.856  0.0603  0.4782  0.0716
12900TIP3    H160115   2.460   2.045   0.947  1.0789  0.1934 -0.1951
12900TIP3    H260116   2.506   1.989   0.814 -0.6585 -0.0080 -0.7374
12901TIP3   OH260117   0.853   6.199   3.240  0.3639 -0.5683  0.3810
12901TIP3    H160118   0.931   6.169   3.286  0.7256 -0.1366  0.0510
12901TIP3    H260119   0.780   6.176   3.298  0.6570 -1.8071  0.2741
12902TIP3   OH260120   6.193   1.138  12.440 -0.3467 -0.1509  0.1203
12902TIP3    H160121   6.258   1.195  12.400  0.1718 -1.4617 -0.9797
12902TIP3    H260122   6.111   1.159  12.396 -0.6337  1.2521  1.2589
12903TIP3   OH260123   0.368   5.244   3.125  0.4336  0.3802  0.2292
12903TIP3    H160124   0.381   5.158   3.085 -1.5577  0.2194 -0.1962
12903TIP3    H260125   0.357   5.225   3.218  1.7153  0.3965  0.4077
12904TIP3   OH260126   6.660   4.310  13.583  0.1315  0.5846 -0.5755
12904TIP3    H160127   6.700   4.359  13.511  0.7450  1.3069  0.2376
12904TIP3    H260128   6.711   4.334  13.660 -0.1847 -0.5795  0.0245
12905TIP3   OH260129   3.583   5.270   1.115  0.1051 -0.1640  0.4234
12905TIP3    H160130   3.611   5.179   1.127 -0.2316  0.0477  3.4215
12905TIP3    H260131   3.664   5.320   1.121  0.0788 -0.1483  0.6680
12906TIP3   OH260132   3.006   3.783   0.304  0.7592  0.0853  0.3870
12906TIP3    H160133   2.923   3.739   0.287  1.0999 -0.0732 -0.9890
12906TIP3    H260134   2.982   3.874   0.320  0.2540 -0.1410  1.0044
12907TIP3   OH260135   1.530   2.151  14.212 -0.1089  0.6032  0.2734
12907TIP3    H160136   1.528   2.223  14.149  2.0332 -1.3819 -2.3005
12907TIP3    H260137   1.536   2.072  14.159  0.2829 -1.3448  2.9793
12908TIP3   OH260138   0.279   4.765   5.792 -0.3443 -0.0701  0.7105
12908TIP3    H160139   0.340   4.697   5.764  0.7597  1.4407 -0.7427
12908TIP3    H260140   0.307   4.843   5.744 -2.4384  1.0706  1.2510
12909TIP3   OH260141   1.369   1.631  11.621 -0.4171  0.4185  0.4149
12909TIP3    H160142   1.328   1.593  11.544 -0.3903 -0.2630  0.7258
12909TIP3    H260143   1.326   1.716  11.632  0.2116  0.9315 -0.8594
12910TIP3   OH260144   2.801   3.998  11.564 -0.3432  0.2872  0.0201
12910TIP3    H160145   2.798   3.912  11.604  0.5445  1.3372  2.5385
12910TIP3    H260146   2.885   4.001  11.518 -0.5998 -0.3328 -0.5052
12911TIP3   OH260147   5.624   5.400  15.618 -0.0325  0.8553  1.0258
12911TIP3    H160148   5.576   5.337  15.672  0.4284 -0.3295  0.0959
12911TIP3    H260149   5.557   5.459  15.585 -1.0156 -1.1023 -0.7119
12912TIP3   OH260150   6.285   4.829  11.470  0.5315 -0.1356 -0.1437
12912TIP3    H160151   6.261   4.738  11.453  0.8280 -0.7654  2.4446
12912TIP3    H260152   6.204   4.868  11.505  0.3624  0.6684 -1.3815
12913TIP3   OH260153   1.404   4.335   2.122  0.4112  0.2350 -0.1239
12913TIP3    H160154   1.366   4.266   2.068 -0.1997 -0.6055  1.3161
12913TIP3    H260155   1.482   4.364   2.074 -0.1296 -0.4509 -1.4366
12914TIP3   OH260156   3.807   3.178   3.632  0.4375  0.4888 -0.3866
12914TIP3    H160157   3.845   3.106   3.683  1.5272  1.7603  0.6826
12914TIP3    H260158   3.759   3.230   3.697  0.7638  1.4354 -0.8789
12915TIP3   OH260159   1.473   5.919   3.678 -0.0412  0.3684  0.5504
12915TIP3    H160160   1.385   5.956   3.670  0.4640  1.9479  1.7183
12915TIP3    H260161   1.463   5.845   3.737 -0.4549  1.1625  1.5113
12916TIP3   OH260162   2.872   3.902   5.501 -0.3105 -0.0650  0.1289
12916TIP3    H160163   2.780   3.882   5.519 -0.6494  0.3381 -1.0720
12916TIP3    H260164   2.871   3.945   5.415  0.8073  1.5884  0.8998
12917TIP3   OH260165   3.089   1.562  12.554  0.4205  0.5885  0.2808
12917TIP3    H160166   3.025   1.491  12.545  0.2639  0.9015 -1.2396
12917TIP3    H260167   3.037   1.641  12.562  0.5890  0.8749 -1.2149
12918TIP3   OH260168   4.158   1.179   3.865  0.2673 -0.5032 -0.6801
12918TIP3    H160169   4.182   1.164   3.956  1.3768  1.4317 -0.5893
12918TIP3    H260170   4.242   1.180   3.818 -0.1180  0.4606 -1.3878
12919TIP3   OH260171   5.684   1.897   6.524  0.1379 -0.7129  0.4709
12919TIP3    H160172   5.627   1.964   6.486  2.6289  1.5650  0.4470
12919TIP3    H260173   5.725   1.856   6.448  1.2562  0.2557  0.5259
12920TIP3   OH260174   5.539   4.753   5.463 -0.3523 -0.0854  0.1006
12920TIP3    H160175   5.620   4.804   5.464  0.9575 -1.9737 -0.9228
12920TIP3    H260176   5.517   4.740   5.555  1.3448 -0.7146  0.4552
12921TIP3   OH260177   1.383   5.400  16.150  0.3944  0.1387  0.0271
12921TIP3    H160178   1.449   5.352  16.201  0.9214  0.1142 -0.6676
12921TIP3    H260179   1.299   5.369  16.185  0.7296  1.1435  1.8386
12922TIP3   OH260180   1.626   1.702   4.837 -0.7016 -0.4613 -0.3318
12922TIP3    H160181   1.544   1.751   4.824 -0.8415 -0.6793 -0.2651
12922TIP3    H260182   1.600   1.610   4.835 -0.5325 -0.5218  0.2226
12923TIP3   OH260183   1.591   1.056   4.527  0.8118 -0.3980 -0.3767
12923TIP3    H160184   1.527   0.985   4.516 -0.6403  0.9213 -0.8345
12923TIP3    H260185   1.626   1.070   4.439  2.6508 -1.8774  0.0605
12924TIP3   OH260186   0.805   2.631   2.123  0.3405  0.8642 -0.1996
12924TIP3    H160187   0.813   2.628   2.028 -0.2871 -1.3190 -0.2297
12924TIP3    H260188   0.717   2.599   2.142 -0.1044  2.6455  1.1045
12925TIP3   OH260189   3.750   6.002  15.697  0.6495  0.0735  0.2425
12925TIP3    H160190   3.678   6.057  15.727  0.5333 -0.0542  0.2005
12925TIP3    H260191   3.826   6.060  15.694  0.5372  0.2200  0.2398
12926TIP3   OH260192   6.589   3.786   4.563  0.0685  0.1625  0.3477
12926TIP3    H160193   6.644   3.711   4.587 -2.3171 -1.4347  1.2112
12926TIP3    H260194   6.594   3.845   4.638  1.1107  0.3703  0.1257
12927TIP3   OH260195   3.361   6.764  13.389  0.4568  0.2017  0.1383
12927TIP3    H160196   3.400   6.676  13.390  1.4068  0.6014  1.4827
12927TIP3    H260197   3.304   6.764  13.312  1.7933 -0.9977 -0.8992
12928TIP3   OH260198   5.271   2.259   2.020  0.1649 -0.1083 -0.0584
12928TIP3    H160199   5.275   2.355   2.018  1.6365 -0.0967  1.3598
12928TIP3    H260200   5.239   2.235   1.933 -0.8006  1.6798 -0.2465
12929TIP3   OH260201   1.414   0.713  12.736  0.3088 -0.1190  0.1177
12929TIP3    H160202   1.341   0.694  12.794  0.0681 -0.4723 -0.2950
12929TIP3    H260203   1.463   0.782  12.781  0.0765 -0.3199  0.6913
12930TIP3   OH260204   3.664   3.310   0.780  0.0792 -0.3719  0.4645
12930TIP3    H160205   3.663   3.286   0.688 -0.2121 -1.4490  0.7400
12930TIP3    H260206   3.697   3.400   0.781 -0.5875 -0.0921 -0.7437
12931TIP3   OH260207   0.423   2.890  15.311 -0.2587  0.1243  0.6369
12931TIP3    H160208   0.445   2.873  15.219  0.4670  1.6529  0.5013
12931TIP3    H260209   0.342   2.941  15.307 -1.0644 -1.0775  0.9369
12932TIP3   OH260210   4.870   6.033  16.723  0.5172  0.1966  0.3674
12932TIP3    H160211   4.924   5.989  16.657 -0.5461 -1.3726  0.4929
12932TIP3    H260212   4.793   5.976  16.733 -1.2139  2.3603  0.1346
12933TIP3   OH260213   5.917   4.075   1.839 -0.0248 -0.3836  0.2164
12933TIP3    H160214   5.941   4.014   1.769  1.9706  0.8358 -0.2692
12933TIP3    H260215   6.001   4.114   1.865 -0.8427 -0.1058  2.6502
12934TIP3   OH260216   6.398   2.383   5.505 -0.5626  0.2588 -0.0122
12934TIP3    H160217   6.447   2.317   5.555 -0.4232  0.6210  0.3355
12934TIP3    H260218   6.402   2.352   5.414 -3.4799 -2.1338  0.5037
12935TIP3   OH260219   4.285   2.441   3.203  0.2905  0.1088  0.6386
12935TIP3    H160220   4.240   2.443   3.118 -1.3638  0.1313  1.4592
12935TIP3    H260221   4.318   2.530   3.215 -2.7544  1.2291  1.6225
12936TIP3   OH260222   0.465   2.228   2.113 -0.1158 -0.0670 -0.2779
12936TIP3    H160223   0.443   2.295   2.049  1.1474 -0.5095 -1.2084
12936TIP3    H260224   0.463   2.146   2.064 -0.2357 -0.5519  0.5171
12937TIP3   OH260225   2.275   1.789   0.860  0.2229 -0.2809  0.2351
12937TIP3    H160226   2.288   1.757   0.949 -0.0250  0.2818  0.4776
12937TIP3    H260227   2.330   1.867   0.854 -0.1139 -0.0522  0.0486
12938TIP3   OH260228   0.151   3.561   0.780  0.1686 -0.5175 -0.0990
12938TIP3    H160229   0.211   3.596   0.714  0.8833 -0.6801  0.4570
12938TIP3    H260230   0.189   3.478   0.806 -0.1312 -0.4717  0.4961
12939TIP3   OH260231   0.549   4.100   4.474  0.2270  0.1425  0.2649
12939TIP3    H160232   0.600   4.130   4.399 -0.0721 -0.9228 -0.3833
12939TIP3    H260233   0.460   4.130   4.457  0.2835  0.4630  0.5218
12940TIP3   OH260234   0.034   5.173  13.080 -0.0658  0.4027  0.4900
12940TIP3    H160235   0.090   5.188  13.156 -0.6270  1.3569  0.7350
12940TIP3    H260236   0.021   5.260  13.042 -2.1203  0.3862  0.9905
12941TIP3   OH260237   3.320   3.102   1.542  0.4589 -0.5092  0.4081
12941TIP3    H160238   3.367   3.185   1.542 -0.9846  0.6418 -4.5821
12941TIP3    H260239   3.385   3.037   1.515  0.7957 -0.3781  0.8903
12942TIP3   OH260240   6.624   3.002  15.422 -0.4133  0.6786  0.4115
12942TIP3    H160241   6.533   3.008  15.451 -0.8617  1.1415 -1.0224
12942TIP3    H260242   6.628   3.054  15.342  0.4487 -1.5069 -1.0729
12943TIP3   OH260243   6.555   1.141  13.469 -0.2480 -0.4531 -0.1084
12943TIP3    H160244   6.541   1.230  13.437  0.3206 -0.3703 -0.1310
12943TIP3    H260245   6.608   1.151  13.547  0.3953 -0.8152 -0.4885
12944TIP3   OH260246   0.733   6.164  15.646  0.0539 -0.0500  0.1364
12944TIP3    H160247   0.780   6.214  15.712  0.3481  0.4927 -0.4748
12944TIP3    H260248   0.686   6.229  15.595  0.7439 -0.3372 -0.9130
12945TIP3   OH260249   2.701   5.043  11.819  0.2937  0.0779  0.1299
12945TIP3    H160250   2.681   5.129  11.854 -0.3918 -0.0115 -0.0210
12945TIP3    H260251   2.698   4.984  11.895 -0.3121  0.0226  0.0689
12946TIP3   OH260252   5.906   3.347   0.807 -0.0985  0.2665  0.3247
12946TIP3    H160253   5.870   3.418   0.861 -1.5150  0.2863 -0.5753
12946TIP3    H260254   5.919   3.387   0.721 -0.3470 -0.4099 -0.0359
12947TIP3   OH260255   5.568   1.663   0.998  0.1740  0.1441  0.1264
12947TIP3    H160256   5.614   1.590   1.040  2.6505  0.6543 -1.5157
12947TIP3    H260257   5.629   1.737   1.005 -1.6975  1.7510  0.5222
12948TIP3   OH260258   6.386   3.847  11.814 -0.2967 -0.3256  0.0846
12948TIP3    H160259   6.396   3.755  11.836  2.7490 -0.5681 -1.7465
12948TIP3    H260260   6.379   3.849  11.719 -0.4912  1.3192  0.1010
12949TIP3   OH260261   4.498   3.476   3.612 -0.0091 -0.0366 -0.2886
12949TIP3    H160262   4.434   3.438   3.552 -0.0719  0.4000 -0.5048
12949TIP3    H260263   4.580   3.430   3.592  0.4475  1.4232 -2.0945
12950TIP3   OH260264   1.710   4.768   4.674  0.7057  0.1517  0.8340
12950TIP3    H160265   1.736   4.860   4.669  3.3312 -0.4998  0.6552
12950TIP3    H260266   1.793   4.720   4.669 -0.6954 -2.3107 -1.2975
12951TIP3   OH260267   2.651   0.766  11.900  0.1848 -0.0054 -1.1143
12951TIP3    H160268   2.670   0.779  11.807 -1.0534  0.9976 -1.2566
12951TIP3    H260269   2.638   0.855  11.934  2.1042 -0.2468  0.3736
12952TIP3   OH260270   3.422   4.237  13.076  0.3200  0.6508  0.3558
12952TIP3    H160271   3.492   4.192  13.029  0.7861  1.9639 -0.2245
12952TIP3    H260272   3.444   4.225  13.168  0.1890 -0.6809  0.2356
12953TIP3   OH260273   3.907   0.118  15.479 -0.3912  0.0134 -0.0959
12953TIP3    H160274   3.837   0.168  15.439 -2.0197 -0.2195  2.2488
12953TIP3    H260275   3.862   0.053  15.533  1.6536 -2.4641 -1.2007
12954TIP3   OH260276   0.630   1.592  13.542  0.3030 -0.6341  0.3546
12954TIP3    H160277   0.653   1.638  13.623  0.4177 -0.6316  0.3220
12954TIP3    H260278   0.545   1.552  13.560 -0.4821  0.7588 -0.0973
12955TIP3   OH260279   5.912   6.071  10.348 -0.3815  0.1338 -0.0998
12955TIP3    H160280   5.942   5.988  10.311  2.6214  0.5045  1.1963
12955TIP3    H260281   5.937   6.067  10.440 -0.4032  2.3547  0.0581
12956TIP3   OH260282   3.860   4.936   4.897 -0.2520 -0.8199  0.2351
12956TIP3    H160283   3.795   4.890   4.845 -1.1124 -0.7276  1.1976
12956TIP3    H260284   3.814   4.961   4.977  0.2091  1.5682 -0.1690
12957TIP3   OH260285   6.267   5.254   3.455 -0.6093  0.3563 -0.4080
12957TIP3    H160286   6.289   5.196   3.528 -1.4466  0.4129 -0.0963
12957TIP3    H260287   6.351   5.279   3.418 -0.1427  0.6253  0.7849
12958TIP3   OH260288   2.251   4.313   1.076  0.7744  0.3533 -0.4086
12958TIP3    H160289   2.195   4.245   1.112  1.6222 -1.0945 -1.7168
12958TIP3    H260290   2.199   4.353   1.006  0.4663  0.7296  0.0275
12959TIP3   OH260291   5.640   4.650  14.708  0.9100  0.7195 -0.0497
12959TIP3    H160292   5.603   4.635  14.795 -1.6743  0.2173 -1.1551
12959TIP3    H260293   5.729   4.680  14.725  0.4119  0.8689  2.7647
12960TIP3   OH260294   2.163   2.509  10.603  0.0467 -0.5645  0.2611
12960TIP3    H160295   2.079   2.524  10.645 -0.4300  1.6967 -1.3200
12960TIP3    H260296   2.152   2.425  10.557 -0.9255 -0.8463  0.9840
12961TIP3   OH260297   5.146   0.663   6.641 -0.2948  0.3027 -0.1299
12961TIP3    H160298   5.135   0.568   6.643  1.6550 -0.1614 -3.4206
12961TIP3    H260299   5.225   0.676   6.589  0.6407  3.7317  1.8892
12962TIP3   OH260300   2.211   5.169  13.936 -0.1847  0.1610  0.0081
12962TIP3    H160301   2.234   5.140  13.848  2.3030  0.3029  0.5153
12962TIP3    H260302   2.217   5.265  13.932 -0.2173  0.1763  0.2941
12963TIP3   OH260303   2.431   1.752  15.709  0.1641  0.0872 -0.2422
12963TIP3    H160304   2.395   1.832  15.671 -1.3464 -1.0967 -1.4190
12963TIP3    H260305   2.500   1.783  15.768 -0.4224  2.2465 -0.5957
12964TIP3   OH260306   3.284   2.389   3.447  0.2301  0.3913  0.2700
12964TIP3    H160307   3.193   2.406   3.424 -0.0370 -3.4420 -2.3691
12964TIP3    H260308   3.281   2.362   3.539 -1.1426  1.0395  0.4426
12965TIP3   OH260309   6.465   5.373   5.707  0.8124 -0.5766 -0.3355
12965TIP3    H160310   6.459   5.467   5.721  0.1141 -0.8750  1.6440
12965TIP3    H260311   6.543   5.346   5.755  0.5578 -1.1264 -0.2263
12966TIP3   OH260312   6.696   0.813  10.511  0.0590 -0.1831  0.1249
12966TIP3    H160313   6.764   0.835  10.574 -1.1082  0.3516  1.2302
12966TIP3    H260314   6.622   0.868  10.535 -1.3621 -1.9618  0.0533
12967TIP3   OH260315   6.057   3.393  16.300 -0.5728  0.4819  0.2998
12967TIP3    H160316   5.978   3.438  16.269  0.3954  2.2336  0.2197
12967TIP3    H260317   6.083   3.338  16.226 -1.2035  0.5924 -0.0215
12968TIP3   OH260318   4.952   2.792   0.780  0.1871 -0.0688 -0.2373
12968TIP3    H160319   5.027   2.748   0.819  1.1644  1.1790 -0.6203
12968TIP3    H260320   4.969   2.885   0.795 -0.7297  0.2918 -1.3078
12969TIP3   OH260321   3.046   4.079  13.826  0.3450 -0.1187 -0.2599
12969TIP3    H160322   3.093   4.081  13.909  1.1388 -0.5786 -0.6728
12969TIP3    H260323   3.063   3.991  13.791 -0.4187 -0.1196 -0.6600
12970TIP3   OH260324   6.278   1.302   0.814  0.5947  0.1718 -0.1656
12970TIP3    H160325   6.321   1.246   0.750  0.0975 -1.2521  0.7111
12970TIP3    H260326   6.338   1.305   0.889  1.5351  2.4513 -0.9128
12971TIP3   OH260327   0.510   1.172  11.216  0.3291 -0.3904  0.3945
12971TIP3    H160328   0.455   1.192  11.140 -0.5832 -1.5801  0.7129
12971TIP3    H260329   0.539   1.082  11.203 -0.3449 -0.8376  1.7115
12972TIP3   OH260330   4.164   6.055  11.945 -0.1576 -0.4174  0.2553
12972TIP3    H160331   4.108   6.041  12.021 -1.4591 -0.4545 -0.6678
12972TIP3    H260332   4.187   6.148  11.949 -2.6230  0.3274 -0.8009
12973TIP3   OH260333   3.154   6.152  15.276  0.4412  0.6457  0.0767
12973TIP3    H160334   3.245   6.135  15.298  0.3993  1.7488  1.1927
12973TIP3    H260335   3.145   6.248  15.280 -0.8730  0.5292  0.4667
12974TIP3   OH260336   0.659   2.437   1.285 -0.7267 -0.9151  0.2117
12974TIP3    H160337   0.602   2.451   1.210 -1.1223  0.4914  0.7551
12974TIP3    H260338   0.616   2.482   1.358  1.8192  1.7200  0.2901
12975TIP3   OH260339   0.433   3.161  15.594  0.2246 -0.3129  0.2099
12975TIP3    H160340   0.356   3.105  15.607 -0.8344  0.7631 -1.1327
12975TIP3    H260341   0.500   3.101  15.560 -0.1927 -1.1649  0.8671
12976TIP3   OH260342   0.318   3.136  11.907  0.7638 -0.1711  0.5144
12976TIP3    H160343   0.300   3.054  11.953  0.4149 -0.8226 -0.7221
12976TIP3    H260344   0.240   3.151  11.854  1.2161  0.4676  0.0079
12977TIP3   OH260345   0.140   4.007   0.809  0.2553  0.1338  0.5816
12977TIP3    H160346   0.213   3.980   0.754 -0.2474 -0.1453  0.0356
12977TIP3    H260347   0.064   3.962   0.772 -0.1390  0.1420  1.3513
12978TIP3   OH260348   5.338   5.786   2.738 -0.6974  0.2779  0.0391
12978TIP3    H160349   5.394   5.780   2.660 -0.6858 -0.8795  0.1231
12978TIP3    H260350   5.390   5.837   2.800 -1.1181  2.1362 -1.0368
12979TIP3   OH260351   1.117   3.360   0.490  0.2732 -1.0699 -0.3706
12979TIP3    H160352   1.194   3.372   0.546  0.0609 -0.4828 -0.2000
12979TIP3    H260353   1.115   3.266   0.472  0.8788 -1.1269 -0.1599
12980TIP3   OH260354   2.306   4.943   4.346  0.0393 -0.4631  0.9504
12980TIP3    H160355   2.377   5.003   4.370 -0.0894 -0.5213  1.4667
12980TIP3    H260356   2.239   4.956   4.412 -0.4511 -0.3875  0.4447
12981TIP3   OH260357   6.730   6.581  14.529  0.2200  0.0709  0.2750
12981TIP3    H160358   6.823   6.587  14.552 -0.0717  0.2704  1.4819
12981TIP3    H260359   6.725   6.618  14.441  1.0791  1.4335  0.7601
12982TIP3   OH260360   3.772   3.642  15.130 -0.3225 -0.4278 -0.0725
12982TIP3    H160361   3.852   3.592  15.144 -0.3343 -0.9657 -1.7422
12982TIP3    H260362   3.725   3.594  15.062 -2.9179 -1.0791  2.0100
12983TIP3   OH260363   0.037   6.531  16.436  0.3275  0.1781 -0.5001
12983TIP3    H160364   0.122   6.487  16.436 -0.5102 -1.5598  0.7261
12983TIP3    H260365   0.049   6.606  16.378  2.8963  0.3836  0.1689
12984TIP3   OH260366   1.282   6.797  13.514 -0.3933 -0.0088 -0.3072
12984TIP3    H160367   1.205   6.813  13.459 -0.8255  0.7510  0.5097
12984TIP3    H260368   1.354   6.836  13.465 -0.4895 -0.8174 -1.1292
12985TIP3   OH260369   6.573   1.703  16.463  0.1071  0.0431 -0.4838
12985TIP3    H160370   6.573   1.787  16.510  0.6425 -0.7593  1.0015
12985TIP3    H260371   6.519   1.719  16.386  0.6376  1.9112 -0.5174
12986TIP3   OH260372   1.877   3.884  12.306 -0.2552 -0.1353  0.2846
12986TIP3    H160373   1.923   3.950  12.358  0.4472 -1.5346  1.5229
12986TIP3    H260374   1.848   3.819  12.370 -1.9800 -0.4506 -0.7529
12987TIP3   OH260375   3.818   6.140   5.282  0.4690 -0.4617 -0.2456
12987TIP3    H160376   3.871   6.130   5.203 -0.6471 -3.0669 -0.7994
12987TIP3    H260377   3.728   6.128   5.251 -0.2431  1.2555  1.0439
12988TIP3   OH260378   6.785   3.630  15.893 -0.0213 -0.0975 -0.0539
12988TIP3    H160379   6.694   3.620  15.864 -0.0015  0.8253 -0.4494
12988TIP3    H260380   6.804   3.548  15.939 -1.1588 -0.1648  0.3310
12989TIP3   OH260381   3.922   4.208  13.747  0.3034 -0.5570  0.1043
12989TIP3    H160382   3.896   4.297  13.723 -1.2952 -0.9761  0.1471
12989TIP3    H260383   3.861   4.183  13.817  0.7999 -1.6478  0.1797
12990TIP3   OH260384   0.619   4.853   6.183  0.2643  0.1133 -0.1468
12990TIP3    H160385   0.539   4.900   6.207  0.6043  1.5044 -1.5509
12990TIP3    H260386   0.589   4.765   6.161 -1.0791  0.9041 -1.6671
12991TIP3   OH260387   1.825   5.228   5.785  0.5326 -0.7923 -0.3880
12991TIP3    H160388   1.825   5.136   5.814  0.8745 -0.2122  1.6437
12991TIP3    H260389   1.902   5.266   5.827 -0.7474  0.9069  0.5505
12992TIP3   OH260390   3.937   5.055  16.497  0.3477 -0.3299 -0.1199
12992TIP3    H160391   3.987   5.120  16.545 -0.3749  0.5278 -0.5159
12992TIP3    H260392   3.962   4.971  16.536  2.4402  0.0245 -0.6202
12993TIP3   OH260393   4.606   1.540   1.203  0.1108  0.0064  0.6062
12993TIP3    H160394   4.575   1.591   1.129  1.1111  1.2148  0.9726
12993TIP3    H260395   4.674   1.595   1.243  3.6581 -2.8417 -0.8510
12994TIP3   OH260396   5.862   2.399  13.426  0.3147  0.1310  0.1636
12994TIP3    H160397   5.879   2.306  13.443  1.2501  0.0015 -1.3217
12994TIP3    H260398   5.795   2.423  13.490 -1.1923 -2.0009 -0.4863
12995TIP3   OH260399   2.444   6.029  11.084  0.4261  0.4930  0.1961
12995TIP3    H160400   2.474   6.016  10.994 -2.1772 -1.9942 -0.4704
12995TIP3    H260401   2.379   6.099  11.078  0.2279  0.3042  0.0923
12996TIP3   OH260402   2.462   5.168   4.404 -0.2757  1.0539  0.0490
12996TIP3    H160403   2.404   5.242   4.384 -0.0911  1.4851  1.0480
12996TIP3    H260404   2.532   5.175   4.338 -2.1045 -0.4035 -2.1961
12997TIP3   OH260405   1.776   3.620  16.485  0.6083  0.0485 -0.4151
12997TIP3    H160406   1.753   3.679  16.557  0.1676  1.1536 -1.4245
12997TIP3    H260407   1.804   3.539  16.528  2.1438  1.2911  1.0548
12998TIP3   OH260408   5.416   1.797   4.273  0.1080  0.0738  0.2842
12998TIP3    H160409   5.355   1.787   4.346 -0.5090  2.4772  0.1780
12998TIP3    H260410   5.464   1.878   4.293 -0.2175  0.9012 -2.0287
12999TIP3   OH260411   4.514   2.894   3.531 -0.0099  0.4653  0.1614
12999TIP3    H160412   4.455   2.835   3.577 -0.6762  0.0662 -1.1354
12999TIP3    H260413   4.594   2.843   3.517  0.0998  0.5045  0.6284
13000TIP3   OH260414   2.893   3.507   3.053  0.3948  0.4566  0.3101
13000TIP3    H160415   2.809   3.486   3.092  0.5367 -0.8227 -0.0278
13000TIP3    H260416   2.872   3.559   2.976 -0.1348 -0.2572 -0.0417
13001TIP3   OH260417   6.557   5.340  12.829  0.3707 -0.3485  0.3653
13001TIP3    H160418   6.590   5.411  12.883  0.5212 -0.1300 -0.0092
13001TIP3    H260419   6.475   5.373  12.792  0.0565 -0.6496  0.7798
13002TIP3   OH260420   3.368   5.783  16.210  0.2891 -0.3710 -0.5134
13002TIP3    H160421   3.459   5.770  16.182  0.9062  0.8823  0.7914
13002TIP3    H260422   3.337   5.855  16.156  0.1181 -0.6585 -0.8083
13003TIP3   OH260423   3.120   4.055  14.948 -0.0136 -0.1474  0.2332
13003TIP3    H160424   3.172   4.034  14.871 -0.5955  0.3277 -0.2901
13003TIP3    H260425   3.107   3.970  14.992  0.3386 -0.4133 -0.1730
13004TIP3   OH260426   1.656   2.581   2.804 -0.0407 -0.3750  0.1395
13004TIP3    H160427   1.592   2.623   2.746 -2.7931 -0.1499  3.0400
13004TIP3    H260428   1.614   2.499   2.831  1.5372 -0.9227  1.0863
13005TIP3   OH260429   0.528   4.771   3.336  0.2573  0.3810  0.8039
13005TIP3    H160430   0.533   4.747   3.428 -0.3299  0.1411  0.7733
13005TIP3    H260431   0.439   4.803   3.323  0.1996  0.0138  0.2272
13006TIP3   OH260432   5.389   4.154  14.756  0.3514 -0.1634  0.9100
13006TIP3    H160433   5.445   4.082  14.729  1.6770  1.4313 -0.7852
13006TIP3    H260434   5.445   4.231  14.754 -1.2364  1.0895  1.8119
13007TIP3   OH260435   1.757   3.935   6.536  0.1577 -0.2741 -0.0239
13007TIP3    H160436   1.777   3.870   6.603 -0.4423  0.6194  1.0651
13007TIP3    H260437   1.681   3.900   6.490  1.9450 -1.9960 -1.8366
13008TIP3   OH260438   1.682   6.332  12.889  0.4508 -0.6319 -0.1367
13008TIP3    H160439   1.696   6.240  12.867  0.0291 -0.2729 -2.0853
13008TIP3    H260440   1.596   6.353  12.854 -0.6646 -0.1230  2.6195
13009TIP3   OH260441   4.402   2.085  13.068  0.2732 -0.1220 -0.7713
13009TIP3    H160442   4.459   2.092  13.145  0.6264 -2.6073 -0.7268
13009TIP3    H260443   4.348   2.164  13.071  0.9889  0.3611  1.4357
13010TIP3   OH260444   4.649   5.431   5.657 -0.1290  0.4369 -0.2895
13010TIP3    H160445   4.655   5.345   5.698  0.2059  1.2299  1.4172
13010TIP3    H260446   4.729   5.439   5.606  2.0436  1.3234  2.9239
13011TIP3   OH260447   0.075   3.919  13.200  0.0045 -0.2497  0.7818
13011TIP3    H160448   0.032   4.001  13.176 -0.0019 -0.0736  1.3752
13011TIP3    H260449   0.051   3.905  13.291 -0.4423 -1.2002  0.5290
13012TIP3   OH260450   3.330   2.117   3.481  0.2091  0.2458  0.3764
13012TIP3    H160451   3.326   2.205   3.442 -0.4668  0.0014 -0.1171
13012TIP3    H260452   3.272   2.122   3.557  0.5784  0.3744  0.6509
13013TIP3   OH260453   6.143   6.134  13.488  0.3188 -0.0816 -0.3232
13013TIP3    H160454   6.155   6.065  13.553 -0.1614  0.3460  0.2382
13013TIP3    H260455   6.193   6.208  13.522  0.6241 -0.0730 -0.7898
13014TIP3   OH260456   3.017   4.141   4.494  0.0753 -0.0134 -1.0004
13014TIP3    H160457   3.029   4.235   4.486 -0.8777  0.3266  0.9399
13014TIP3    H260458   2.923   4.130   4.512  0.1320 -1.3569 -1.4077
13015TIP3   OH260459   0.135   2.401  12.880  0.0032 -0.2814  0.0052
13015TIP3    H160460   0.148   2.336  12.811  1.1251  1.8251 -1.9158
13015TIP3    H260461   0.126   2.350  12.960 -0.2445 -2.8083 -1.5294
13016TIP3   OH260462   6.212   6.597   5.949 -0.5593 -0.7577  0.1350
13016TIP3    H160463   6.298   6.555   5.947 -0.1729 -0.0014  0.5186
13016TIP3    H260464   6.227   6.685   5.916 -1.0078 -0.3097  1.0878
13017TIP3   OH260465   0.120   5.619   5.803 -0.3063  0.0808  0.3429
13017TIP3    H160466   0.203   5.666   5.799  0.8121 -1.6109  1.8534
13017TIP3    H260467   0.082   5.644   5.888 -0.0639 -1.0953  0.8178
13018TIP3   OH260468   5.930   4.116  13.223  0.4174  0.0440  0.3633
13018TIP3    H160469   5.984   4.180  13.177  0.7434 -0.6457 -0.2296
13018TIP3    H260470   5.859   4.095  13.162 -0.3559  0.6954  1.0075
13019TIP3   OH260471   0.492   3.210   2.998  0.1725  0.4776  0.0958
13019TIP3    H160472   0.529   3.212   3.086 -1.4992  2.5707  0.8216
13019TIP3    H260473   0.510   3.296   2.962  0.4666 -0.2069 -1.4974
13020TIP3   OH260474   3.421   5.225   5.757  0.0348 -0.3941 -0.8405
13020TIP3    H160475   3.385   5.307   5.722 -1.8146 -0.3781  0.8621
13020TIP3    H260476   3.353   5.160   5.740  0.4099 -1.0243 -0.0318
13021TIP3   OH260477   0.315   5.389   1.626  0.1259 -0.1726  0.0879
13021TIP3    H160478   0.306   5.484   1.636 -0.9727 -0.2684  0.0620
13021TIP3    H260479   0.410   5.375   1.619  0.2476  1.0473 -1.1227
13022TIP3   OH260480   4.816   0.394  13.449  0.2590 -0.6621  0.9036
13022TIP3    H160481   4.850   0.461  13.390 -0.4360 -0.7414  0.4095
13022TIP3    H260482   4.749   0.349  13.399  0.8431 -1.8580  1.1789
13023TIP3   OH260483   3.997   2.313   2.748 -0.4619 -0.1063  0.1214
13023TIP3    H160484   3.917   2.324   2.697 -0.6083 -1.3392  0.0400
13023TIP3    H260485   4.065   2.295   2.683 -0.2175  0.4245  0.2246
13024TIP3   OH260486   3.549   1.355   5.591  0.1470  0.0427 -0.2477
13024TIP3    H160487   3.520   1.374   5.680 -0.4628  0.0414 -0.4386
13024TIP3    H260488   3.644   1.361   5.595  0.0623  1.6282  0.0509
13025TIP3   OH260489   0.782   0.359  12.256 -0.4893 -0.2187 -0.1154
13025TIP3    H160490   0.866   0.401  12.238  0.4031 -1.6536  0.5203
13025TIP3    H260491   0.723   0.431  12.278  0.3712  0.8783 -1.2929
13026TIP3   OH260492   4.538   6.137   1.914  0.1366 -0.1074 -0.4742
13026TIP3    H160493   4.473   6.112   1.848 -0.4496 -1.6420  0.6312
13026TIP3    H260494   4.610   6.074   1.902  0.2525 -0.0749  0.0266
13027TIP3   OH260495   2.505   2.223  15.049  0.0510 -0.1015  0.1438
13027TIP3    H160496   2.449   2.148  15.070 -0.6479  1.1165  3.0735
13027TIP3    H260497   2.487   2.287  15.118  2.1831  1.9432 -1.0436
13028TIP3   OH260498   0.116   5.976   4.847 -0.6696 -0.3422 -0.4878
13028TIP3    H160499   0.155   5.949   4.765  1.2890  1.3550 -0.2079
13028TIP3    H260500   0.047   6.038   4.822  0.3019  0.6075 -0.8640
13029TIP3   OH260501   6.747   0.978   4.622  0.3574 -0.2374  0.3001
13029TIP3    H160502   6.760   0.891   4.587  1.6503 -0.7798  1.9689
13029TIP3    H260503   6.794   0.977   4.706 -0.9420  1.5476  1.1164
13030TIP3   OH260504   5.475   6.114   3.185  0.0608  0.7065 -0.0559
13030TIP3    H160505   5.559   6.099   3.229  0.7978  2.1344 -0.9135
13030TIP3    H260506   5.413   6.128   3.257  0.5652 -0.2469  0.5854
13031TIP3   OH260507   3.112   2.348   2.539  0.0078  0.2834  0.5567
13031TIP3    H160508   3.077   2.262   2.517  0.5066  0.5756 -1.5341
13031TIP3    H260509   3.118   2.394   2.456  1.2490  1.7891  1.4226
13032TIP3   OH260510   4.980   3.165  12.038 -0.3046 -0.5464 -0.1112
13032TIP3    H160511   5.069   3.198  12.052 -0.2428  1.1099 -3.5064
13032TIP3    H260512   4.924   3.241  12.052 -1.1768 -1.3885  1.2042
13033TIP3   OH260513   5.443   5.084   5.966 -0.0583  0.4483  0.3945
13033TIP3    H160514   5.408   5.068   5.879  0.7116 -0.1589  0.1842
13033TIP3    H260515   5.408   5.169   5.992 -0.4206  0.5525 -0.4371
13034TIP3   OH260516   2.266   0.964   0.578 -0.9310 -0.9992  0.4319
13034TIP3    H160517   2.174   0.987   0.564 -0.6562 -0.1817 -0.0948
13034TIP3    H260518   2.297   1.026   0.644  0.0674  0.8760 -1.6726
13035TIP3   OH260519   2.049   2.892   5.831  0.2763 -0.1902 -0.2688
13035TIP3    H160520   2.011   2.809   5.801  0.3768 -0.3305 -0.0172
13035TIP3    H260521   2.008   2.907   5.916 -0.6185  0.6199 -0.8195
13036TIP3   OH260522   5.693   1.330   5.381 -0.0684 -0.1800 -0.5266
13036TIP3    H160523   5.782   1.322   5.414 -0.1407  1.4996  0.1727
13036TIP3    H260524   5.658   1.241   5.384  0.4366 -0.3779  2.5730
13037TIP3   OH260525   3.383   3.557  12.732 -0.1120  0.8162 -0.0340
13037TIP3    H160526   3.416   3.487  12.675  0.5646  1.0043  0.1135
13037TIP3    H260527   3.395   3.522  12.821  0.4914  1.2239  0.0513
13038TIP3   OH260528   1.331   5.073  16.929  0.0294  0.2944 -0.4709
13038TIP3    H160529   1.350   4.979  16.927  0.3868  0.2290  2.3552
13038TIP3    H260530   1.416   5.115  16.928 -0.0380  0.4737  0.6591
13039TIP3   OH260531   0.940   1.543   1.466  0.2536  0.3855  0.1933
13039TIP3    H160532   0.991   1.545   1.547 -0.0360  0.5289  0.3743
13039TIP3    H260533   0.971   1.466   1.419  0.9843  0.7411  0.0766
13040TIP3   OH260534   3.315   1.846   4.536  0.5613  0.3426  0.2190
13040TIP3    H160535   3.221   1.863   4.527  0.5665  1.5036  1.8495
13040TIP3    H260536   3.335   1.783   4.467 -1.3269  0.3886 -0.4267
13041TIP3   OH260537   5.056   4.047   3.564 -0.1556 -0.0415 -0.4557
13041TIP3    H160538   5.094   4.121   3.610  0.0811 -0.4240 -0.0236
13041TIP3    H260539   5.042   4.078   3.474 -2.2575  1.2900  0.2562
13042TIP3   OH260540   3.321   3.629   4.262  0.6998 -0.3409  0.8509
13042TIP3    H160541   3.365   3.712   4.280 -1.2603  1.2212 -1.1509
13042TIP3    H260542   3.333   3.578   4.343  1.6667  1.9734  2.2645
13043TIP3   OH260543   2.353   5.020  11.988 -0.8808  0.4293 -0.5287
13043TIP3    H160544   2.314   4.933  11.998 -1.6337  0.6055 -1.6881
13043TIP3    H260545   2.313   5.072  12.059 -1.2721  0.1103 -0.5094
13044TIP3   OH260546   4.954   1.573   0.193 -0.1534 -0.1723  0.0292
13044TIP3    H160547   4.866   1.569   0.232 -0.2724 -0.7790 -0.2822
13044TIP3    H260548   5.014   1.556   0.265 -0.0330  3.5363  1.0248
13045TIP3   OH260549   2.986   6.541  13.369  0.1940 -0.4705  0.0893
13045TIP3    H160550   2.995   6.616  13.309  0.8664 -0.7528 -0.1727
13045TIP3    H260551   2.999   6.464  13.313 -0.7411 -0.8030  0.3139
13046TIP3   OH260552   6.709   1.366  13.028  0.4469  0.2712 -0.6022
13046TIP3    H160553   6.623   1.386  12.992  0.5877  0.2180 -0.9686
13046TIP3    H260554   6.742   1.295  12.973  0.5878  0.0673 -0.2582
13047TIP3   OH260555   5.820   5.533  16.398 -0.5829 -0.4221  0.2121
13047TIP3    H160556   5.884   5.497  16.336 -0.5511 -0.9141  0.5267
13047TIP3    H260557   5.735   5.515  16.357 -0.5234  0.1930 -0.1856
13048TIP3   OH260558   2.781   5.787   4.995  0.1684 -0.3764 -0.3201
13048TIP3    H160559   2.849   5.851   5.017 -1.6694  0.9480  1.9176
13048TIP3    H260560   2.715   5.838   4.949 -0.8543 -0.8536  0.5748
13049TIP3   OH260561   1.101   3.831  12.324 -0.2268  0.1387 -0.1221
13049TIP3    H160562   1.160   3.902  12.350 -1.8317  1.1849  0.8587
13049TIP3    H260563   1.135   3.754  12.370  0.2874  0.7405  0.5277
13050TIP3   OH260564   5.161   5.076   0.617 -0.2400 -0.3677  0.0395
13050TIP3    H160565   5.199   5.125   0.544 -1.6810 -2.6921 -2.4666
13050TIP3    H260566   5.094   5.134   0.652  0.3400  0.7267 -0.6113
13051TIP3   OH260567   3.900   4.634  16.372 -0.0910  0.4034  0.4822
13051TIP3    H160568   3.948   4.570  16.319 -0.5281  0.1248  0.4158
13051TIP3    H260569   3.829   4.583  16.411 -0.4971  0.8722  0.3586
13052TIP3   OH260570   2.493   2.335   6.600 -0.7148 -0.1025  0.1214
13052TIP3    H160571   2.399   2.318   6.595 -0.8354  0.8695 -1.9720
13052TIP3    H260572   2.533   2.249   6.585 -1.3120 -0.1568 -1.4392
13053TIP3   OH260573   0.218   0.098   0.092  0.0313 -0.0551  0.2387
13053TIP3    H160574   0.136   0.115   0.044  0.2832  0.5225 -0.0091
13053TIP3    H260575   0.270   0.045   0.031  0.2129  0.3831  0.0052
13054TIP3   OH260576   3.786   4.986   3.269  0.0580  0.3857 -0.4362
13054TIP3    H160577   3.722   5.028   3.212 -0.3159 -0.1596 -0.4279
13054TIP3    H260578   3.765   4.893   3.265 -0.7492  0.4297  1.5094
13055TIP3   OH260579   4.690   0.390  11.736  0.1200 -0.4868  0.0822
13055TIP3    H160580   4.619   0.362  11.794  1.4557 -1.9733  1.0996
13055TIP3    H260581   4.651   0.457  11.680 -2.2126 -1.6379  0.2322
13056TIP3   OH260582   0.497   4.399   4.337  0.1330 -0.7919  0.3240
13056TIP3    H160583   0.545   4.324   4.304  0.6389 -0.2154 -0.2885
13056TIP3    H260584   0.477   4.378   4.428  2.0014 -0.8299  0.7644
13057TIP3   OH260585   4.864   2.726  11.761  0.2075 -0.5348  0.1518
13057TIP3    H160586   4.794   2.791  11.764  0.4950 -0.2466  0.6484
13057TIP3    H260587   4.915   2.742  11.840 -0.2287 -1.9472  0.7595
13058TIP3   OH260588   5.169   5.004  11.621  0.1190  0.0812 -0.6094
13058TIP3    H160589   5.115   5.049  11.686  0.3778 -1.1185  0.4766
13058TIP3    H260590   5.119   5.011  11.540 -0.5107  1.0781 -0.1594
13059TIP3   OH260591   4.148   0.870   3.167 -0.1811  0.1737  0.0287
13059TIP3    H160592   4.178   0.949   3.210  1.0080  0.5842 -1.4491
13059TIP3    H260593   4.059   0.891   3.137  0.3833  1.2672 -0.9937
13060TIP3   OH260594   5.264   0.858  12.081  0.6126  0.0537 -0.0613
13060TIP3    H160595   5.281   0.849  11.987  1.0411  0.9548 -0.0854
13060TIP3    H260596   5.169   0.850  12.089  0.1965  2.8591 -0.9829
13061TIP3   OH260597   6.125   2.529  14.532 -0.1816 -0.4599  0.8067
13061TIP3    H160598   6.175   2.474  14.470 -2.1623  0.7290 -2.0445
13061TIP3    H260599   6.041   2.485  14.540 -2.2974  2.4452 -2.5113
13062TIP3   OH260600   6.300   1.302  14.561  0.4427 -0.4129  0.0434
13062TIP3    H160601   6.392   1.322  14.580  0.6511 -0.3869 -0.9520
13062TIP3    H260602   6.267   1.265  14.643  0.7598  1.4891  1.0988
13063TIP3   OH260603   5.309   1.936  12.864  0.0267 -0.2134  0.4000
13063TIP3    H160604   5.401   1.943  12.841 -0.1308  0.3909 -0.0839
13063TIP3    H260605   5.266   2.006  12.814 -1.0147 -1.8132 -1.0791
13064TIP3   OH260606   2.428   4.495  14.717 -0.2358 -0.9465  0.3332
13064TIP3    H160607   2.481   4.504  14.638 -0.6994  0.5843  0.1703
13064TIP3    H260608   2.421   4.400  14.731 -0.1383 -1.2359 -1.4350
13065TIP3   OH260609   0.087   2.202   4.860 -0.2781  0.1315 -0.4660
13065TIP3    H160610   0.015   2.247   4.905  0.2070  0.9794 -0.5171
13065TIP3    H260611   0.051   2.177   4.775 -0.9990 -0.8865  0.1191
13066TIP3   OH260612   3.283   2.008   2.518  0.4712  0.5209 -0.1890
13066TIP3    H160613   3.324   1.932   2.477  1.2053  0.1042  1.2318
13066TIP3    H260614   3.257   1.977   2.605 -0.3336  1.5683 -0.0360
13067TIP3   OH260615   4.226   0.694   4.254 -0.1052 -0.4307  0.1357
13067TIP3    H160616   4.315   0.665   4.232 -0.0229  0.1465 -0.3176
13067TIP3    H260617   4.232   0.789   4.255 -0.3198 -0.4069  1.8075
13068TIP3   OH260618   3.091   2.865  14.674  0.1318  0.0803  0.2768
13068TIP3    H160619   3.109   2.771  14.671 -0.7993 -0.0808 -2.0634
13068TIP3    H260620   3.177   2.906  14.683  0.7820 -0.9358 -1.0692
13069TIP3   OH260621   1.267   3.780  12.962 -0.4659  0.6014 -0.1803
13069TIP3    H160622   1.334   3.744  12.905 -2.2157 -1.3642 -1.1019
13069TIP3    H260623   1.256   3.715  13.032 -0.7142  1.3841  0.5406
13070TIP3   OH260624   5.816   6.355   5.995  0.2282 -0.6548 -0.5448
13070TIP3    H160625   5.795   6.314   6.079  2.3353  1.6230  1.2228
13070TIP3    H260626   5.898   6.313   5.968  1.3669  0.9204  0.3147
13071TIP3   OH260627   3.718   2.472   0.503  0.0992  0.7851 -0.1457
13071TIP3    H160628   3.657   2.398   0.498  0.2360  0.5785  0.9377
13071TIP3    H260629   3.662   2.548   0.518  0.1319  0.4672  1.8122
13072TIP3   OH260630   2.313   6.337   1.407  0.0496 -0.1107 -0.9772
13072TIP3    H160631   2.263   6.379   1.477  0.2679  2.0314 -2.0378
13072TIP3    H260632   2.253   6.271   1.371 -0.5686 -0.2668  0.2830
13073TIP3   OH260633   1.077   1.934  10.987 -0.0890  0.0675 -0.4422
13073TIP3    H160634   1.081   1.839  10.996  1.1191  0.1481  0.0695
13073TIP3    H260635   1.138   1.955  10.916  1.2802  0.5980  0.8297
13074TIP3   OH260636   0.720   3.963  11.651  0.5955 -0.3784  0.4498
13074TIP3    H160637   0.739   3.886  11.597 -1.3245 -0.7994  0.3304
13074TIP3    H260638   0.744   3.936  11.740 -1.5771 -1.7416  0.6772
13075TIP3   OH260639   5.678   2.531  14.706 -0.6250  0.5935  0.4589
13075TIP3    H160640   5.613   2.596  14.677 -0.1570  0.7458 -0.2933
13075TIP3    H260641   5.639   2.447  14.684 -0.8105  0.6617  0.5260
13076TIP3   OH260642   6.446   0.196  10.395 -0.3195  0.1618  0.0193
13076TIP3    H160643   6.389   0.273  10.392  1.1767  1.2902 -2.2517
13076TIP3    H260644   6.534   0.231  10.380  0.3717 -1.9959 -1.4122
13077TIP3   OH260645   5.299   5.558  14.829 -0.0499  0.2229 -0.1595
13077TIP3    H160646   5.219   5.611  14.824 -0.2729 -0.2058 -2.5883
13077TIP3    H260647   5.370   5.622  14.839 -0.4751  0.8668 -1.0624
13078TIP3   OH260648   6.615   5.569  12.277  0.3366  0.1118 -0.0425
13078TIP3    H160649   6.580   5.526  12.355  0.1653 -1.2963 -0.8646
13078TIP3    H260650   6.673   5.504  12.238  1.0377  1.0937 -0.6637
13079TIP3   OH260651   5.870   6.664   3.052  0.0425  0.6907  0.2026
13079TIP3    H160652   5.935   6.606   3.013  1.3666  1.2800  1.4285
13079TIP3    H260653   5.911   6.751   3.051 -1.1514  1.2751  0.0629
13080TIP3   OH260654   1.824   5.835   3.582 -0.3022  0.2901 -0.2606
13080TIP3    H160655   1.888   5.818   3.650 -0.1300 -0.3626 -0.5788
13080TIP3    H260656   1.791   5.923   3.601  0.2444  0.3869  0.2534
13081TIP3   OH260657   5.490   0.526   2.498  0.2115  0.2337  0.1366
13081TIP3    H160658   5.435   0.602   2.481  0.5319  0.7665  1.3185
13081TIP3    H260659   5.524   0.541   2.587  2.1211 -0.1451 -0.4856
13082TIP3   OH260660   1.811   2.719  12.533 -0.6606  0.3972 -0.1739
13082TIP3    H160661   1.794   2.656  12.603 -0.9420  0.6293 -0.0333
13082TIP3    H260662   1.877   2.779  12.570 -1.7247  1.2692  0.3485
13083TIP3   OH260663   5.112   6.606   0.076  0.2542  0.3470 -0.0698
13083TIP3    H160664   5.146   6.548   0.008  0.4886  0.4538 -0.0473
13083TIP3    H260665   5.045   6.658   0.032 -0.3783 -0.3471  0.0583
13084TIP3   OH260666   4.302   0.878  15.550  0.4276 -0.5588  0.1505
13084TIP3    H160667   4.285   0.860  15.642  0.6432 -3.2483 -0.2651
13084TIP3    H260668   4.216   0.891  15.511 -0.0016 -3.1024  0.1051
13085TIP3   OH260669   6.551   2.912   5.432 -1.1506  0.5365  0.1638
13085TIP3    H160670   6.490   2.950   5.369 -0.8086 -0.0159 -0.5138
13085TIP3    H260671   6.599   2.845   5.382 -2.6251 -1.7429  1.5927
13086TIP3   OH260672   2.415   0.202  12.654 -0.2934  0.3789 -0.2181
13086TIP3    H160673   2.504   0.166  12.648 -0.8728 -1.2200  0.2307
13086TIP3    H260674   2.358   0.126  12.642 -1.5954  1.2308  0.3942
13087TIP3   OH260675   3.360   2.582  11.521  0.0258 -0.4372 -0.3704
13087TIP3    H160676   3.455   2.566  11.520 -0.0424 -0.8691 -1.3482
13087TIP3    H260677   3.322   2.496  11.503 -0.4524  0.1992 -2.7835
13088TIP3   OH260678   1.027   1.733  12.697  0.4183 -0.1330  0.4206
13088TIP3    H160679   1.021   1.662  12.761  0.3951 -1.9695 -1.5145
13088TIP3    H260680   0.945   1.782  12.709  0.5036 -0.2939  1.8951
13089TIP3   OH260681   0.322   2.901  13.383  0.7025  0.7037  0.2084
13089TIP3    H160682   0.310   2.806  13.382 -2.5165  1.0110  0.1901
13089TIP3    H260683   0.381   2.918  13.310 -1.2326 -1.0763 -1.9098
13090TIP3   OH260684   0.907   2.612   4.784  0.0189  0.2789  0.4551
13090TIP3    H160685   0.918   2.561   4.865 -0.7847 -1.2701 -0.3615
13090TIP3    H260686   0.856   2.688   4.811  1.3377  0.7598  1.7329
13091TIP3   OH260687   1.860   5.024  13.033 -0.0696  0.1678 -0.2449
13091TIP3    H160688   1.908   5.050  13.112 -0.2771 -1.1910  0.3539
13091TIP3    H260689   1.916   5.051  12.961 -0.3374  2.3834  0.2831
13092TIP3   OH260690   1.964   5.802   0.844  0.1286 -0.1625 -0.1202
13092TIP3    H160691   1.978   5.778   0.936  0.4545 -1.8875 -0.5718
13092TIP3    H260692   2.046   5.845   0.819  1.1042 -1.9831 -0.2538
13093TIP3   OH260693   0.741   3.112   3.774 -0.1102  0.2168 -0.5584
13093TIP3    H160694   0.745   3.162   3.693 -1.3791  0.9199 -0.2223
13093TIP3    H260695   0.766   3.023   3.749  1.8300  0.9054 -1.2415
13094TIP3   OH260696   0.887   4.140   0.442 -0.3565 -0.2715  0.1941
13094TIP3    H160697   0.969   4.161   0.396  0.0957  0.2194  1.2095
13094TIP3    H260698   0.914   4.119   0.531 -1.3180 -0.3362  0.4778
13095TIP3   OH260699   6.815   1.341   0.330 -0.1354 -0.6598 -0.5688
13095TIP3    H160700   6.886   1.278   0.324  0.5663  0.2368 -2.2984
13095TIP3    H260701   6.776   1.325   0.416  2.0194 -1.3038  0.3513
13096TIP3   OH260702   1.349   4.679   2.490  0.1634 -0.6950  0.0233
13096TIP3    H160703   1.413   4.608   2.479  0.7298 -0.5306  1.9667
13096TIP3    H260704   1.377   4.725   2.569 -2.9256 -1.2702  1.6258
13097TIP3   OH260705   3.815   4.445  13.673 -0.1073 -0.3512  0.1438
13097TIP3    H160706   3.738   4.479  13.627  0.1082  1.2154  0.8871
13097TIP3    H260707   3.889   4.479  13.624  0.1166  0.7765  1.2215
13098TIP3   OH260708   1.936   4.268  15.480  0.3781 -1.1031  0.3093
13098TIP3    H160709   1.996   4.195  15.465  1.4461  0.1935 -2.5097
13098TIP3    H260710   1.853   4.240  15.441  0.2611 -1.4500  0.8000
13099TIP3   OH260711   2.190   6.133  13.593  0.4607 -0.4275 -0.2634
13099TIP3    H160712   2.173   6.043  13.565 -1.2006 -0.3464  0.3817
13099TIP3    H260713   2.168   6.134  13.686  1.3067  0.4576 -0.0506
13100TIP3   OH260714   0.977   1.708  14.988  0.4579 -0.0927 -0.2280
13100TIP3    H160715   0.973   1.749  14.901  0.4579 -0.1339 -0.2476
13100TIP3    H260716   0.977   1.614  14.970 -1.3472 -0.1506 -0.1221
13101TIP3   OH260717   5.566   2.943   0.437 -0.1660  0.1673 -0.1202
13101TIP3    H160718   5.618   2.872   0.400  0.1175 -1.1599  2.6481
13101TIP3    H260719   5.500   2.900   0.491 -1.0955  1.9881  0.2779
13102TIP3   OH260720   0.772   3.060   5.300 -0.4014  0.5884  0.1026
13102TIP3    H160721   0.802   3.087   5.213  1.1407  0.7871  0.6643
13102TIP3    H260722   0.820   2.980   5.319 -0.7953  0.4923  0.7388
13103TIP3   OH260723   6.168   6.115  15.653  0.6447 -0.4513  0.6003
13103TIP3    H160724   6.233   6.116  15.723  1.7527 -0.7657 -0.3735
13103TIP3    H260725   6.220   6.124  15.573 -0.4351 -1.5892 -0.2653
13104TIP3   OH260726   1.256   1.770  15.341 -0.0902 -0.2062 -0.3087
13104TIP3    H160727   1.218   1.832  15.404 -0.6577 -1.3082  0.4663
13104TIP3    H260728   1.181   1.717  15.313  0.7874 -2.2634  1.0585
13105TIP3   OH260729   5.279   1.032   0.801 -0.5645 -0.2688  0.0098
13105TIP3    H160730   5.284   1.048   0.707  0.6154 -0.2995  0.0473
13105TIP3    H260731   5.301   0.940   0.812 -0.6036 -0.2446  0.3217
13106TIP3   OH260732   1.596   5.483  13.740 -0.0834 -0.6665 -0.3679
13106TIP3    H160733   1.575   5.550  13.805  1.8985 -0.4046  0.0764
13106TIP3    H260734   1.511   5.447  13.714 -1.0004 -0.0940  1.6306
13107TIP3   OH260735   3.016   0.155  11.172  0.0926 -0.5454 -0.1627
13107TIP3    H160736   2.987   0.064  11.165 -0.4195 -0.3265 -1.0097
13107TIP3    H260737   3.050   0.176  11.085  1.1437 -0.2278  0.3102
13108TIP3   OH260738   0.116   6.796   1.619  0.3700  0.7692  0.1246
13108TIP3    H160739   0.054   6.723   1.621  0.4428  0.7188  0.8344
13108TIP3    H260740   0.069   6.865   1.573  0.4518  0.1499 -0.9265
13109TIP3   OH260741   3.745   3.874   3.157 -0.1153 -0.0610 -0.1561
13109TIP3    H160742   3.832   3.876   3.198 -0.3410 -0.9807  0.3898
13109TIP3    H260743   3.738   3.787   3.120 -1.2697 -0.4246  0.8425
13110TIP3   OH260744   3.473   2.632  16.348  0.4922  0.1579 -0.0536
13110TIP3    H160745   3.394   2.601  16.304 -0.0646 -0.8729  1.5500
13110TIP3    H260746   3.484   2.722  16.318 -0.7218 -0.0081 -1.0746
13111TIP3   OH260747   1.555   1.393   1.879  0.0508  0.3578  0.3893
13111TIP3    H160748   1.503   1.367   1.803 -0.7066 -0.0532  1.0398
13111TIP3    H260749   1.603   1.314   1.905 -0.2058  0.3157  0.7425
13112TIP3   OH260750   3.240   4.936  12.650 -0.5375  0.3289 -0.1972
13112TIP3    H160751   3.293   5.011  12.680 -0.3351  1.0809 -2.2712
13112TIP3    H260752   3.194   4.907  12.729 -1.3106  3.1969  0.5439
13113TIP3   OH260753   1.655   5.863  13.665  0.1282 -0.0504  0.0692
13113TIP3    H160754   1.617   5.794  13.720  0.6316 -1.4309 -1.2577
13113TIP3    H260755   1.587   5.930  13.659  0.0177  0.1149  2.2496
13114TIP3   OH260756   5.382   5.309   5.320 -0.3667  0.2850 -0.9244
13114TIP3    H160757   5.318   5.358   5.269 -1.4361 -0.7540 -0.6175
13114TIP3    H260758   5.408   5.237   5.262 -1.0557 -0.4918 -0.2998
13115TIP3   OH260759   2.147   2.678  15.319  0.7089  0.0184  0.8214
13115TIP3    H160760   2.160   2.637  15.405  2.1713  1.5255  1.3802
13115TIP3    H260761   2.062   2.721  15.326  0.4421 -0.5545  1.2129
13116TIP3   OH260762   0.736   3.886  14.992  0.5432  0.6299  0.0583
13116TIP3    H160763   0.804   3.855  15.052  1.4261  0.6146 -0.9238
13116TIP3    H260764   0.655   3.878  15.042  1.1026 -0.5100  0.8286
13117TIP3   OH260765   4.549   5.989  12.539 -0.1578 -0.1093 -0.0127
13117TIP3    H160766   4.525   6.081  12.526 -1.0157 -0.1954  0.9185
13117TIP3    H260767   4.635   5.992  12.582 -0.9780  0.3026  1.6490
13118TIP3   OH260768   2.940   2.369  13.618 -0.4894  0.1134  0.2133
13118TIP3    H160769   2.960   2.294  13.674  0.0788  1.5173  2.0138
13118TIP3    H260770   2.997   2.358  13.542  1.3537 -0.1101  1.5416
13119TIP3   OH260771   3.374   3.365  13.698  0.3303  0.0072 -0.3803
13119TIP3    H160772   3.445   3.378  13.635 -0.4744  1.5586 -1.0088
13119TIP3    H260773   3.329   3.286  13.668  0.2999  0.4060 -1.4142
13120TIP3   OH260774   2.625   4.434   4.639 -0.0422 -0.3368 -0.1204
13120TIP3    H160775   2.544   4.483   4.623 -0.2912 -0.3254  1.0908
13120TIP3    H260776   2.679   4.492   4.692 -0.0554 -1.0744  0.7348
13121TIP3   OH260777   3.849   6.009   0.258 -0.0428 -0.8448  0.2434
13121TIP3    H160778   3.890   5.934   0.216  1.9693 -0.5441  1.5060
13121TIP3    H260779   3.899   6.084   0.226 -0.4925 -0.2976  0.7977
13122TIP3   OH260780   1.743   4.534  12.253 -0.4362  0.7053  0.4641
13122TIP3    H160781   1.835   4.556  12.238 -0.4693  0.6933  0.2341
13122TIP3    H260782   1.721   4.476  12.181 -0.2499 -0.3898  1.2755
13123TIP3   OH260783   0.338   1.222  15.200  0.0383 -0.4308 -0.2503
13123TIP3    H160784   0.380   1.283  15.261 -0.0240 -0.5713 -0.0641
13123TIP3    H260785   0.300   1.278  15.132 -0.9650 -0.1697  0.4951
13124TIP3   OH260786   0.650   3.531  14.021  0.4232 -0.7091  0.1682
13124TIP3    H160787   0.614   3.578  14.097  0.7241  0.1143 -0.1840
13124TIP3    H260788   0.714   3.591  13.984  3.0960 -2.5886  1.4508
13125TIP3   OH260789   2.934   2.237  11.885 -0.8191  0.4774 -0.2890
13125TIP3    H160790   2.954   2.176  11.957 -0.0489  1.9049  0.7560
13125TIP3    H260791   2.980   2.318  11.909  2.7039 -0.0356 -4.2640
13126TIP3   OH260792   5.901   3.476  11.854  0.2759 -0.1478 -0.3153
13126TIP3    H160793   5.868   3.410  11.915  2.3959 -1.5168 -0.5360
13126TIP3    H260794   5.881   3.560  11.896  1.8899 -1.0114  2.4762
13127TIP3   OH260795   2.176   5.347  13.065 -0.0630 -0.9217 -0.6277
13127TIP3    H160796   2.174   5.343  13.161 -1.3706 -1.0103 -0.6481
13127TIP3    H260797   2.113   5.415  13.043  0.9813 -0.1723 -1.4067
13128TIP3   OH260798   6.168   4.227   3.374 -0.5067  0.0863  0.3720
13128TIP3    H160799   6.123   4.301   3.333 -0.0686 -0.7216 -1.6935
13128TIP3    H260800   6.221   4.267   3.444 -2.5525  1.3254  1.2996
13129TIP3   OH260801   3.090   5.914   1.780  0.4175 -0.2467 -0.1909
13129TIP3    H160802   3.055   5.907   1.691 -1.3274  1.9435  0.2334
13129TIP3    H260803   3.018   5.888   1.837  0.6560  0.8446  0.6429
13130TIP3   OH260804   2.357   4.673   0.869 -0.0407  0.3973  0.6053
13130TIP3    H160805   2.444   4.692   0.832 -1.1227  0.8805 -1.9108
13130TIP3    H260806   2.352   4.578   0.872  0.7316  0.3669  1.1969
13131TIP3   OH260807   0.880   5.972   0.519 -0.3008 -0.2527 -0.1976
13131TIP3    H160808   0.953   5.935   0.470 -1.3118 -0.4772 -1.5972
13131TIP3    H260809   0.875   6.063   0.490  1.2701  0.6821  2.1614
13132TIP3   OH260810   5.193   3.331   2.330 -0.1157  0.2112 -0.5527
13132TIP3    H160811   5.159   3.256   2.281 -1.6310  1.7343 -1.9889
13132TIP3    H260812   5.162   3.407   2.281  4.5033  1.8725 -1.3591
13133TIP3   OH260813   2.903   6.628   6.521 -0.1707 -0.1371  0.0462
13133TIP3    H160814   2.818   6.638   6.564  0.2774 -0.0515  0.9366
13133TIP3    H260815   2.902   6.539   6.486 -0.6113 -0.1532  0.1034
13134TIP3   OH260816   1.475   5.895   0.434  0.0518 -0.2589  0.2651
13134TIP3    H160817   1.484   5.908   0.340 -1.5194  0.1108  0.1423
13134TIP3    H260818   1.437   5.808   0.444 -0.1045 -0.1634  0.5397
13135TIP3   OH260819   3.532   0.073  13.821  0.0138  0.1766 -0.3731
13135TIP3    H160820   3.562   0.074  13.730  0.2790  0.1492 -0.2881
13135TIP3    H260821   3.468   0.002  13.825  1.4643 -1.1636 -0.0859
13136TIP3   OH260822   0.714   4.948   2.985  0.7999 -0.1858 -0.1501
13136TIP3    H160823   0.711   4.987   3.073  0.5911  0.6510 -0.5161
13136TIP3    H260824   0.722   5.023   2.926 -1.6726 -0.5399 -1.0345
13137TIP3   OH260825   6.682   4.645  12.796  0.0348  0.1876  0.7917
13137TIP3    H160826   6.722   4.559  12.811  1.3314  0.6472  0.1932
13137TIP3    H260827   6.754   4.707  12.808 -0.4348  1.0464 -0.6017
13138TIP3   OH260828   0.526   3.731  15.950 -0.3521 -0.8400  0.3816
13138TIP3    H160829   0.433   3.717  15.936 -0.8574  1.3873  1.1540
13138TIP3    H260830   0.567   3.649  15.922 -2.3555 -1.2281 -1.6913
13139TIP3   OH260831   4.497   5.452  14.066 -0.1894  0.1351 -0.0349
13139TIP3    H160832   4.506   5.499  13.983  0.1604  2.2350  1.1286
13139TIP3    H260833   4.585   5.451  14.103 -0.1440 -1.6739 -0.1007
13140TIP3   OH260834   1.915   0.553  14.239  0.1007 -0.3489  0.7753
13140TIP3    H160835   1.978   0.619  14.267  0.3513 -0.4791  0.5195
13140TIP3    H260836   1.910   0.564  14.144 -1.9594  1.1924  0.9839
13141TIP3   OH260837   2.423   2.000   0.505  0.1160  0.4594 -0.3085
13141TIP3    H160838   2.422   1.905   0.495 -0.7557  0.5780 -1.7532
13141TIP3    H260839   2.515   2.024   0.509  0.3765 -0.3540 -1.2147
13142TIP3   OH260840   0.684   1.397   3.755  0.5057  0.1960 -0.0000
13142TIP3    H160841   0.677   1.479   3.706  0.0832 -0.8345 -1.7832
13142TIP3    H260842   0.778   1.381   3.762  0.5762  0.3561 -0.5289
13143TIP3   OH260843   5.194   2.455   1.674  0.4858 -0.2422  0.2572
13143TIP3    H160844   5.285   2.481   1.692  0.5900  0.7933 -1.5871
13143TIP3    H260845   5.193   2.361   1.692  2.1730 -0.4472 -0.4945
13144TIP3   OH260846   5.176   1.930   1.489  0.1558  0.1867 -0.5949
13144TIP3    H160847   5.237   1.885   1.432 -0.0804 -0.7911 -0.0994
13144TIP3    H260848   5.226   2.003   1.526  1.0929 -0.7020 -0.0611
13145TIP3   OH260849   2.268   0.767  12.529  0.3918 -0.2908  0.6042
13145TIP3    H160850   2.182   0.806  12.511 -0.5626 -2.7514 -0.6277
13145TIP3    H260851   2.249   0.676  12.549  2.8404 -1.4930 -1.8751
13146TIP3   OH260852   2.942   6.702  11.211 -0.1949 -0.6488 -0.2394
13146TIP3    H160853   2.847   6.712  11.221 -0.3690  0.0956 -2.2180
13146TIP3    H260854   2.953   6.616  11.170  0.0417 -1.0027  0.5560
13147TIP3   OH260855   0.201   0.868   5.105  0.0656 -0.0180  0.3460
13147TIP3    H160856   0.234   0.915   5.182 -0.2711  1.0474 -0.1402
13147TIP3    H260857   0.214   0.775   5.126  1.1182  0.2961  1.1698
13148TIP3   OH260858   1.208   5.587   5.298  0.0748 -0.1637  0.1365
13148TIP3    H160859   1.156   5.506   5.299 -1.2831  0.6777  1.6417
13148TIP3    H260860   1.237   5.597   5.388 -0.1468  1.2478  0.0611
13149TIP3   OH260861   3.249   1.026  11.345 -0.2059  0.3248 -0.2652
13149TIP3    H160862   3.303   0.967  11.399 -0.7713  0.4222  0.4253
13149TIP3    H260863   3.284   1.113  11.364  0.7307  0.2149 -1.4037
13150TIP3   OH260864   5.963   0.396  12.967  0.0974 -0.5073  0.0865
13150TIP3    H160865   6.008   0.333  13.023  0.5467 -0.4420 -0.2031
13150TIP3    H260866   5.951   0.473  13.023 -0.3785 -0.8121  0.4130
13151TIP3   OH260867   5.996   2.656  14.219  0.3417  0.0109 -0.3275
13151TIP3    H160868   6.003   2.601  14.297 -1.9496  0.3012  0.1688
13151TIP3    H260869   6.030   2.741  14.247  1.1162 -0.3464 -0.1748
13152TIP3   OH260870   5.474   4.220   4.404  0.0445 -0.5014 -0.6164
13152TIP3    H160871   5.386   4.209   4.441  0.2350 -1.4723 -0.4360
13152TIP3    H260872   5.461   4.210   4.309 -0.2044  0.4625 -0.6928
13153TIP3   OH260873   0.371   4.616   3.865  0.4980  0.2998  0.4316
13153TIP3    H160874   0.334   4.644   3.781 -1.3543 -0.4399  0.9353
13153TIP3    H260875   0.420   4.692   3.896  0.2576  0.9891 -0.7889
13154TIP3   OH260876   2.706   3.918   3.546  0.9054 -0.1948  0.1584
13154TIP3    H160877   2.762   3.854   3.590  3.1742  1.1854 -0.5315
13154TIP3    H260878   2.721   3.904   3.453 -0.7265 -0.4317 -0.1006
13155TIP3   OH260879   4.774   4.307  13.450  0.1049  0.2792 -0.0825
13155TIP3    H160880   4.696   4.261  13.481  0.8568 -1.0621 -0.0644
13155TIP3    H260881   4.806   4.253  13.378 -0.6325  2.4167 -2.1005
13156TIP3   OH260882   4.880   5.401   0.983  0.1594 -0.2724 -0.2043
13156TIP3    H160883   4.920   5.382   1.068 -0.0082 -0.6240 -0.2024
13156TIP3    H260884   4.920   5.484   0.956 -0.8039  0.5860  0.8485
13157TIP3   OH260885   6.084   2.443   3.010  0.7383 -0.1326 -0.0670
13157TIP3    H160886   6.007   2.494   3.035 -0.0502 -2.5342  3.1002
13157TIP3    H260887   6.049   2.362   2.972  1.6645 -0.9904  0.8246
13158TIP3   OH260888   2.100   0.457   0.343 -0.3794  0.4321 -0.5116
13158TIP3    H160889   2.006   0.472   0.353 -0.3283  0.2074  0.5094
13158TIP3    H260890   2.137   0.544   0.329 -0.6790  0.5903 -0.3375
13159TIP3   OH260891   2.699   1.254  14.985  0.4156  0.1487 -0.8804
13159TIP3    H160892   2.708   1.183  15.049 -1.1677 -0.5183 -1.3423
13159TIP3    H260893   2.650   1.322  15.032 -2.0919 -0.9456 -1.7389
13160TIP3   OH260894   6.288   4.285   1.404 -0.1801  0.4083  0.3527
13160TIP3    H160895   6.300   4.328   1.320 -0.5561  0.7100  0.4506
13160TIP3    H260896   6.209   4.326   1.441  0.1876  0.5356  1.0090
13161TIP3   OH260897   5.759   2.063  13.914 -0.3378  0.6467  0.0958
13161TIP3    H160898   5.732   2.093  13.828 -0.9209 -0.8392 -0.2618
13161TIP3    H260899   5.722   2.128  13.975 -1.4817  0.7109 -0.6461
13162TIP3   OH260900   1.423   5.002  11.517 -0.0467  0.0040  0.1507
13162TIP3    H160901   1.502   4.967  11.475  1.3513  1.8176  1.1017
13162TIP3    H260902   1.418   5.093  11.486 -2.2385 -0.2798 -0.4822
13163TIP3   OH260903   3.193   6.017   3.672 -0.1919 -0.0147 -0.3772
13163TIP3    H160904   3.263   6.081   3.680 -0.4668  0.1266  1.0660
13163TIP3    H260905   3.220   5.944   3.728 -0.7521 -0.3605 -0.5410
13164TIP3   OH260906   0.979   2.897   4.451  0.4817  0.2501 -0.0699
13164TIP3    H160907   0.908   2.854   4.404  1.1734  0.0623 -0.9675
13164TIP3    H260908   1.057   2.847   4.428  1.3134  1.9401 -1.1462
13165TIP3   OH260909   0.203   4.771   4.627 -0.0829 -0.0420 -0.0288
13165TIP3    H160910   0.252   4.736   4.553  0.4725 -1.1871  0.8570
13165TIP3    H260911   0.223   4.865   4.627  2.3910 -0.5079  0.4708
13166TIP3   OH260912   5.685   2.886  17.004 -0.3799  0.1713 -0.3244
13166TIP3    H160913   5.680   2.790  17.005 -1.5370  0.2186 -0.1410
13166TIP3    H260914   5.744   2.907  17.076 -0.9936 -0.3703  0.3521
13167TIP3   OH260915   1.467   4.559  16.245 -0.2593 -0.3464 -0.1209
13167TIP3    H160916   1.398   4.604  16.294 -0.0004 -1.9415  1.8354
13167TIP3    H260917   1.420   4.512  16.176 -1.0328 -0.4964  0.4860
13168TIP3   OH260918   6.365   2.346  11.683 -0.0530 -0.2101 -0.3480
13168TIP3    H160919   6.420   2.333  11.607  0.8051 -2.1702  0.5139
13168TIP3    H260920   6.426   2.357  11.756 -0.8448  0.9462  0.1768
13169TIP3   OH260921   2.469   3.939  15.787  0.0822  0.3332  0.3566
13169TIP3    H160922   2.537   4.007  15.792 -1.3302  1.7187  1.5958
13169TIP3    H260923   2.448   3.919  15.878 -0.4665 -0.8232 -0.0056
13170TIP3   OH260924   1.874   2.180   4.887  0.1526  0.8462  0.1853
13170TIP3    H160925   1.852   2.178   4.980 -1.3217 -0.1097 -0.1489
13170TIP3    H260926   1.790   2.193   4.843  0.4449 -1.1810 -1.1161
13171TIP3   OH260927   1.778   5.228  15.804 -0.3638  0.2091 -0.1189
13171TIP3    H160928   1.758   5.189  15.889 -0.8669 -0.9995 -0.7744
13171TIP3    H260929   1.709   5.196  15.746  0.3781  0.4356 -1.1460
13172TIP3   OH260930   0.549   6.180  12.463 -0.2316 -0.5246  0.3507
13172TIP3    H160931   0.606   6.178  12.540 -0.2677 -2.1004  0.3630
13172TIP3    H260932   0.597   6.232  12.399  0.1551  0.1336  1.1544
13173TIP3   OH260933   6.660   2.259   6.282  0.0759  0.6316  0.0610
13173TIP3    H160934   6.687   2.274   6.373 -0.2010  1.6263 -0.0168
13173TIP3    H260935   6.701   2.175   6.259  0.6097  0.6440  0.9192
13174TIP3   OH260936   2.472   1.683   2.674  0.2800 -0.0530  0.2868
13174TIP3    H160937   2.406   1.748   2.651  2.2689  2.3176  0.8794
13174TIP3    H260938   2.483   1.692   2.769 -0.1974 -2.0959  0.5731
13175TIP3   OH260939   5.699   2.184   5.392 -0.2636  0.2046  0.1605
13175TIP3    H160940   5.743   2.119   5.337  1.3158 -0.1051  1.6815
13175TIP3    H260941   5.743   2.267   5.370 -0.5691  0.3221 -0.0088
13176TIP3   OH260942   0.498   3.481  11.797 -0.5423  0.4604  0.2112
13176TIP3    H160943   0.539   3.503  11.713 -0.7867 -0.5986 -0.2031
13176TIP3    H260944   0.529   3.392  11.816  1.1692  1.3952  2.2766
13177TIP3   OH260945   1.253   5.756  10.627 -0.6138  0.1148 -0.0033
13177TIP3    H160946   1.301   5.769  10.545 -1.2933 -0.8154 -0.5686
13177TIP3    H260947   1.166   5.727  10.600 -0.7755 -0.4414  1.0522
13178TIP3   OH260948   0.206   2.037   1.514 -0.2656 -0.3973  0.0004
13178TIP3    H160949   0.198   2.128   1.484 -1.0164 -0.1360  0.9106
13178TIP3    H260950   0.169   2.039   1.602 -1.1721 -1.7861 -0.3295
13179TIP3   OH260951   2.866   3.628  16.564  0.1086  0.1589  0.0412
13179TIP3    H160952   2.860   3.698  16.499  1.7751  0.3449  0.0380
13179TIP3    H260953   2.834   3.551  16.519  0.6773  0.4097 -0.8197
13180TIP3   OH260954   1.500   0.575  13.104  0.3363  0.0609 -0.9488
13180TIP3    H160955   1.440   0.503  13.121  0.5608 -0.5505 -2.5375
13180TIP3    H260956   1.583   0.533  13.084  0.2656  0.6785 -2.7094
13181TIP3   OH260957   2.265   4.074  14.099  0.3184 -0.2258  0.0688
13181TIP3    H160958   2.198   4.100  14.035  0.7726 -1.5731 -0.9918
13181TIP3    H260959   2.347   4.101  14.060  0.7822 -2.8250 -0.9183
13182TIP3   OH260960   6.118   0.321   2.916  0.0179 -0.0295 -0.5124
13182TIP3    H160961   6.212   0.319   2.935  0.2560  2.8578 -0.9748
13182TIP3    H260962   6.083   0.390   2.973 -1.2983  0.8495 -2.2815
13183TIP3   OH260963   4.182   5.742   4.991  0.2859 -0.3305  0.2222
13183TIP3    H160964   4.180   5.653   4.956 -0.7671 -0.5859  0.8859
13183TIP3    H260965   4.136   5.795   4.925  2.3638  0.0606 -0.9839
13184TIP3   OH260966   4.295   5.128  12.076  0.5705 -0.5559 -0.2610
13184TIP3    H160967   4.274   5.112  12.168  2.3822 -0.2906  0.2339
13184TIP3    H260968   4.245   5.207  12.054  1.9845  0.8485  1.2614
13185TIP3   OH260969   5.966   5.538  12.849 -0.1418 -0.4858  0.0335
13185TIP3    H160970   5.988   5.450  12.820 -0.6941 -0.1737 -1.3915
13185TIP3    H260971   5.871   5.544  12.840 -0.2626 -0.1336  1.2851
13186TIP3   OH260972   2.400   3.555  16.093 -1.2305  0.8975  0.4515
13186TIP3    H160973   2.423   3.587  16.180  1.1974  1.5827 -0.3559
13186TIP3    H260974   2.419   3.461  16.097  1.4000  1.3245  0.0204
13187TIP3   OH260975   3.606   3.756   1.948 -0.2993  0.0368  0.2290
13187TIP3    H160976   3.524   3.789   1.911 -1.1780 -0.7580  1.4029
13187TIP3    H260977   3.622   3.674   1.899 -0.8115 -0.3827  0.7501
13188TIP3   OH260978   5.483   0.418   2.218  0.2108  0.1703 -0.0749
13188TIP3    H160979   5.427   0.469   2.276 -0.1669 -0.9651  0.5920
13188TIP3    H260980   5.433   0.339   2.199  0.7608  0.0463 -1.1127
13189TIP3   OH260981   1.651   3.264   5.451  0.4202  0.0455  0.1647
13189TIP3    H160982   1.676   3.194   5.511  1.9495  0.9490  0.6156
13189TIP3    H260983   1.704   3.339   5.477 -0.3036  1.0334 -1.0816
13190TIP3   OH260984   3.552   2.374   4.155  0.5125  0.7229  0.3397
13190TIP3    H160985   3.553   2.447   4.216  0.3140  0.2085  0.9705
13190TIP3    H260986   3.479   2.393   4.096  1.3767  1.7609 -0.4162
13191TIP3   OH260987   1.359   3.201  11.353  0.6491  0.2907  0.7966
13191TIP3    H160988   1.265   3.202  11.369  0.6359  0.1090  0.7316
13191TIP3    H260989   1.375   3.274  11.294  0.3910 -0.3455 -0.0791
13192TIP3   OH260990   1.466   0.676   2.843  0.0889  0.1224 -0.0704
13192TIP3    H160991   1.402   0.605   2.851  0.5503 -0.1851  1.0800
13192TIP3    H260992   1.546   0.633   2.815 -0.1490  0.4942 -1.4001
13193TIP3   OH260993   5.324   3.557   1.623 -0.0773 -0.6252  0.0882
13193TIP3    H160994   5.381   3.496   1.670  0.3966 -0.1353  0.1615
13193TIP3    H260995   5.327   3.637   1.675 -0.2652 -0.3659 -0.2973
13194TIP3   OH260996   2.054   1.006  16.184  0.1348  0.3971 -0.2733
13194TIP3    H160997   2.117   1.010  16.112  0.0805  1.7308 -0.2624
13194TIP3    H260998   1.974   1.043  16.147 -0.9415 -2.0288 -0.5483
13195TIP3   OH260999   5.002   5.837   1.800 -0.6045  0.2062  0.2418
13195TIP3    H161000   5.078   5.782   1.782 -0.5692  0.0047  0.9561
13195TIP3    H261001   5.007   5.907   1.735 -0.2935 -0.2791 -0.2686
13196TIP3   OH261002   0.858   4.304   3.895  0.1350  0.9501  0.7571
13196TIP3    H161003   0.926   4.244   3.926 -1.1851 -0.4804  1.0398
13196TIP3    H261004   0.776   4.261   3.920 -0.8790  2.7812  0.7331
13197TIP3   OH261005   4.797   5.982  16.301 -0.2901  0.0561 -0.1895
13197TIP3    H161006   4.747   6.006  16.379  1.4157  2.5708  0.2513
13197TIP3    H261007   4.770   6.046  16.235  0.2544 -0.3735 -0.8362
13198TIP3   OH261008   1.661   0.863  12.282 -0.0488  0.2524  0.2564
13198TIP3    H161009   1.751   0.840  12.301 -0.5765 -1.6080  0.6977
13198TIP3    H261010   1.616   0.857  12.366 -0.0725  4.2229  0.7145
13199TIP3   OH261011   6.442   4.496   0.095 -0.1592  0.3010  0.8109
13199TIP3    H161012   6.478   4.513   0.008  1.5767 -1.0535  1.2070
13199TIP3    H261013   6.426   4.401   0.096 -3.9318  0.8042  0.6565
13200TIP3   OH261014   2.967   0.008   4.911 -0.2795  0.3353 -0.3125
13200TIP3    H161015   2.965   0.049   4.998 -0.3118 -1.2809  0.4783
13200TIP3    H261016   3.051  -0.037   4.907 -1.2835 -1.6873 -0.0840
13201TIP3   OH261017   4.331   0.599  10.211  0.6034 -0.1716  0.3934
13201TIP3    H161018   4.409   0.586  10.265  1.1387  1.3030  0.0450
13201TIP3    H261019   4.330   0.524  10.152  2.2873  0.1933 -0.1747
13202TIP3   OH261020   6.715   0.803  15.880 -0.1326  0.0033 -0.3904
13202TIP3    H161021   6.732   0.846  15.796 -0.3659 -0.0741 -0.4780
13202TIP3    H261022   6.642   0.743  15.862 -0.0250 -0.1908 -0.1908
13203TIP3   OH261023   5.956   2.284   2.812 -0.3837  0.1710 -0.3219
13203TIP3    H161024   5.860   2.277   2.813 -0.3276 -0.7709  0.8636
13203TIP3    H261025   5.973   2.368   2.769 -1.6328 -0.7883 -2.9161
13204TIP3   OH261026   0.718   5.388  11.317 -0.3599 -0.1522 -0.0054
13204TIP3    H161027   0.765   5.373  11.399 -0.6113 -0.8002  0.0209
13204TIP3    H261028   0.772   5.344  11.251 -1.5673 -2.0121  0.1981
13205TIP3   OH261029   1.739   6.343  15.447  0.1684 -0.4705 -0.1867
13205TIP3    H161030   1.715   6.356  15.356 -1.0045  2.5263  0.4468
13205TIP3    H261031   1.666   6.294  15.485 -0.1008 -0.3000 -0.4907
13206TIP3   OH261032   4.029   3.270   1.355 -0.0180 -0.2984 -0.2515
13206TIP3    H161033   3.955   3.230   1.309 -0.6590  0.8039 -0.1987
13206TIP3    H261034   4.015   3.364   1.346  1.3511 -0.0723 -0.1823
13207TIP3   OH261035   5.095   5.908  12.577  0.2058 -0.1653 -0.1187
13207TIP3    H161036   5.133   5.836  12.627 -1.2374  0.0779  1.4215
13207TIP3    H261037   5.109   5.985  12.631 -0.1784  0.3572 -0.7393
13208TIP3   OH261038   6.565   0.253  16.686 -0.0515  0.9280 -0.4366
13208TIP3    H161039   6.496   0.257  16.620  0.4123 -0.0540 -1.0154
13208TIP3    H261040   6.521   0.223  16.765 -0.3461  0.5326 -0.7418
13209TIP3   OH261041   4.856   4.509  12.971  0.7101 -0.1089 -0.7614
13209TIP3    H161042   4.833   4.417  12.986  2.2361 -0.7554 -2.1761
13209TIP3    H261043   4.832   4.553  13.053  0.2929 -1.8250  0.0777
13210TIP3   OH261044   4.427   4.429   2.606  0.0203  0.2243 -0.1752
13210TIP3    H161045   4.353   4.369   2.607 -0.9221  1.3084 -1.4425
13210TIP3    H261046   4.483   4.398   2.535  0.4679 -0.2105  0.3586
13211TIP3   OH261047   5.683   6.364   0.807 -0.2321  0.2852  0.1954
13211TIP3    H161048   5.724   6.349   0.722 -1.9067 -0.0550 -0.6036
13211TIP3    H261049   5.679   6.459   0.814  1.1878  0.3381  0.5680
13212TIP3   OH261050   0.801   5.851   1.264 -0.4940 -0.4423  0.5456
13212TIP3    H161051   0.724   5.794   1.268 -0.5868 -0.3456  0.1319
13212TIP3    H261052   0.827   5.850   1.172 -0.9202  0.7385  0.4003
13213TIP3   OH261053   5.369   0.044  16.098 -0.4494  0.0008  0.0963
13213TIP3    H161054   5.401   0.033  16.009 -1.1203  0.0751 -0.1641
13213TIP3    H261055   5.436   0.096  16.142 -1.3180  2.2724 -1.1077
13214TIP3   OH261056   3.522   3.927   4.893 -0.1159  0.0030 -0.2142
13214TIP3    H161057   3.544   3.838   4.868  0.3956  0.1523 -0.2909
13214TIP3    H261058   3.439   3.918   4.941 -1.2941 -0.2553 -2.1841
13215TIP3   OH261059   5.941   2.766  16.540 -0.5194  0.5496 -0.0677
13215TIP3    H161060   5.887   2.812  16.476  0.9212  0.5776 -1.3266
13215TIP3    H261061   5.966   2.833  16.603 -0.9911  0.7828 -0.1219
13216TIP3   OH261062   2.016   3.932  13.454 -0.0440  0.9079 -0.2746
13216TIP3    H161063   1.950   3.871  13.421 -0.0780 -0.3573  1.9272
13216TIP3    H261064   2.079   3.940  13.382 -0.2970 -1.3673 -0.8235
13217TIP3   OH261065   1.734   4.137   4.990  0.7032 -0.4608  0.7204
13217TIP3    H161066   1.677   4.060   4.980  0.2202 -0.0213 -0.0640
13217TIP3    H261067   1.751   4.143   5.084 -0.6378 -0.5501  0.9881
13218TIP3   OH261068   3.297   0.482  13.419  0.1457 -0.2635  0.3055
13218TIP3    H161069   3.311   0.429  13.498 -0.9620  0.0034  0.7076
13218TIP3    H261070   3.346   0.438  13.351 -2.1089 -2.8648  0.1922
13219TIP3   OH261071   2.297   3.455   5.869  0.4670  0.0546  0.2909
13219TIP3    H161072   2.310   3.506   5.949 -0.3722  0.6226  0.0731
13219TIP3    H261073   2.244   3.380   5.896  0.6848 -0.0723  0.3731
13220TIP3   OH261074   4.251   5.219   5.991  0.1833 -0.2583  0.1354
13220TIP3    H161075   4.345   5.205   5.981  0.3300  0.8256 -0.0926
13220TIP3    H261076   4.226   5.158   6.061  0.6104 -2.1748 -1.2925
13221TIP3   OH261077   0.117   3.885  11.437 -0.1561 -0.1069 -0.1088
13221TIP3    H161078   0.123   3.852  11.526 -1.9234  0.3357  0.1980
13221TIP3    H261079   0.206   3.915  11.417  0.2885 -0.3144  1.4483
13222TIP3   OH261080   6.403   1.838  12.185  0.0618  0.3415 -0.1343
13222TIP3    H161081   6.430   1.841  12.094  1.0214  0.9731  0.1581
13222TIP3    H261082   6.307   1.841  12.182  0.0812  0.1467 -1.1187
13223TIP3   OH261083   3.405   6.225  15.401  0.2660  0.8463 -0.4724
13223TIP3    H161084   3.490   6.242  15.441  0.5696  2.0039 -1.5869
13223TIP3    H261085   3.341   6.259  15.465  0.7489  2.7765 -0.9565
13224TIP3   OH261086   3.553   0.424   2.208  0.4299 -0.0810 -0.1462
13224TIP3    H161087   3.527   0.372   2.284 -1.2775  1.9196  0.7256
13224TIP3    H261088   3.607   0.364   2.156  0.4601 -1.9675  1.9012
13225TIP3   OH261089   5.331   2.714  13.341 -0.3346  0.3410 -0.0695
13225TIP3    H161090   5.285   2.635  13.311  0.2648 -0.0909  0.1445
13225TIP3    H261091   5.381   2.743  13.265  2.4391 -1.6481  0.8578
13226TIP3   OH261092   5.379   6.142   4.150 -0.6519  0.2707  0.5403
13226TIP3    H161093   5.379   6.186   4.065  2.1030 -2.4158 -1.0782
13226TIP3    H261094   5.472   6.122   4.166 -1.3880 -1.8682  2.7496
13227TIP3   OH261095   4.066   0.952  12.650 -0.2440 -0.3780 -0.2189
13227TIP3    H161096   3.995   0.975  12.590 -0.5651  0.2674  0.3909
13227TIP3    H261097   4.121   1.031  12.652  0.3129 -0.7510 -0.4251
13228TIP3   OH261098   2.605   5.709   2.769  0.0789  0.0889  0.4892
13228TIP3    H161099   2.640   5.667   2.691 -1.2759 -1.3181  0.5917
13228TIP3    H261100   2.660   5.787   2.782  2.1481 -1.1995 -0.1771
13229TIP3   OH261101   1.302   2.528   4.267 -0.2055 -0.3740  0.5013
13229TIP3    H161102   1.359   2.467   4.314 -0.1335 -0.1943  0.6452
13229TIP3    H261103   1.363   2.589   4.225 -0.3248  0.7658  1.9093
13230TIP3   OH261104   3.017   5.884   2.354 -0.3483 -0.1793 -0.4076
13230TIP3    H161105   2.971   5.833   2.288 -3.6180 -0.0793  1.5238
13230TIP3    H261106   2.997   5.840   2.437  1.7507  0.8840  0.7592
13231TIP3   OH261107   0.511   6.819  10.713 -0.5068  0.2657 -0.0182
13231TIP3    H161108   0.580   6.886  10.717 -0.6140  0.4206 -0.6190
13231TIP3    H261109   0.541   6.758  10.646  0.5125 -1.3624  1.8233
13232TIP3   OH261110   4.031   1.358  16.027 -0.6409 -0.6973 -0.1682
13232TIP3    H161111   4.076   1.442  16.023  0.3959 -1.2199  0.0561
13232TIP3    H261112   4.059   1.312  15.948 -1.8211 -0.5464 -0.6953
13233TIP3   OH261113   3.542   0.437  10.714  0.8425 -0.0860 -0.3113
13233TIP3    H161114   3.472   0.486  10.670  0.2074 -0.3413  0.4027
13233TIP3    H261115   3.509   0.348  10.720  0.7839  0.0064  0.9503
13234TIP3   OH261116   2.448   1.404   2.639  0.2937 -0.1078  0.4457
13234TIP3    H161117   2.465   1.498   2.645 -0.0621  0.0233 -0.4578
13234TIP3    H261118   2.405   1.382   2.722 -0.4313  0.7065  0.3080
13235TIP3   OH261119   5.460   1.845  17.003 -0.2754 -0.0255  0.4259
13235TIP3    H161120   5.391   1.794  16.960 -1.4218  0.6788  1.3607
13235TIP3    H261121   5.485   1.793  17.079 -0.5602  0.2255  0.6922
13236TIP3   OH261122   6.566   5.153  11.205 -0.3208  0.8554 -0.3466
13236TIP3    H161123   6.523   5.199  11.277  0.6905  1.0647  0.1448
13236TIP3    H261124   6.646   5.203  11.189 -0.2367  0.4621 -1.2164
13237TIP3   OH261125   1.274   0.183   3.016 -0.3645  0.1586  0.0170
13237TIP3    H161126   1.207   0.175   3.084 -0.0089  0.4669  0.4099
13237TIP3    H261127   1.239   0.133   2.942  1.0878 -3.8604  1.8031
13238TIP3   OH261128   4.197   2.273   0.854  0.1575 -0.3574 -0.9516
13238TIP3    H161129   4.101   2.271   0.855  0.1495 -0.0746  0.0965
13238TIP3    H261130   4.222   2.203   0.915  0.6011  0.1801 -0.5167
13239TIP3   OH261131   6.338   6.092   3.251 -0.2033  0.1796  0.2471
13239TIP3    H161132   6.322   6.001   3.225 -0.5845 -0.1279  1.4742
13239TIP3    H261133   6.427   6.092   3.285  0.4926  0.6962 -1.4744
13240TIP3   OH261134   2.477   4.874  11.474  0.6339  0.3645 -0.4351
13240TIP3    H161135   2.547   4.811  11.459  1.5078  0.9884  0.8689
13240TIP3    H261136   2.443   4.852  11.561  0.0962  0.8830 -0.5065
13241TIP3   OH261137   4.113   3.945   4.582 -0.2377 -0.2005 -0.1012
13241TIP3    H161138   4.166   4.018   4.613 -0.2747 -0.8895  1.6733
13241TIP3    H261139   4.040   3.987   4.536 -1.1216  1.0097  2.2218
13242TIP3   OH261140   0.404   4.595   0.908 -0.1755 -0.2024 -0.6566
13242TIP3    H161141   0.489   4.629   0.933 -0.6579  0.8153 -0.3384
13242TIP3    H261142   0.414   4.569   0.817  0.4454  0.0297 -0.6555
13243TIP3   OH261143   1.858   6.643   3.689  0.5517 -0.0472  0.1428
13243TIP3    H161144   1.891   6.600   3.610 -2.5746 -1.2855 -0.6354
13243TIP3    H261145   1.854   6.736   3.665  0.4405 -0.2933 -0.8418
13244TIP3   OH261146   4.116   3.382   1.857  0.4304  0.7322 -0.1857
13244TIP3    H161147   4.185   3.374   1.791  0.7992 -3.8884  0.3944
13244TIP3    H261148   4.156   3.348   1.937 -1.8961 -0.2501  0.6489
13245TIP3   OH261149   3.910   0.423  15.713  0.4296 -0.3945 -0.7872
13245TIP3    H161150   3.990   0.385  15.677 -0.7420 -2.4913 -1.3620
13245TIP3    H261151   3.894   0.373  15.793  0.1416  0.5967 -0.2110
13246TIP3   OH261152   2.964   4.690   1.828 -0.0510 -0.4271 -0.0694
13246TIP3    H161153   3.041   4.652   1.871  0.0477 -1.0446 -0.7691
13246TIP3    H261154   2.932   4.621   1.770  0.0744  0.5136 -1.3003
13247TIP3   OH261155   4.879   2.333   0.489 -0.6292 -0.4334 -0.7736
13247TIP3    H161156   4.876   2.318   0.584 -0.6007 -0.7130 -0.8167
13247TIP3    H261157   4.925   2.257   0.454  0.4058  0.2160 -0.8959
13248TIP3   OH261158   6.198   3.603  13.402  0.1453 -0.2935 -0.4825
13248TIP3    H161159   6.213   3.697  13.395 -0.8128 -0.1691 -0.9812
13248TIP3    H261160   6.167   3.589  13.491  1.3504 -0.2995 -0.0489
13249TIP3   OH261161   4.842   4.247  14.262  0.5045 -0.3431  0.1496
13249TIP3    H161162   4.905   4.226  14.193  1.7361 -0.7302  1.3668
13249TIP3    H261163   4.761   4.206  14.232  0.7002  0.4247 -1.6000
13250TIP3   OH261164   4.782   4.009   3.874  0.6145  0.3543  0.2811
13250TIP3    H161165   4.872   4.009   3.908  0.8145 -0.6517 -0.2223
13250TIP3    H261166   4.792   4.003   3.779  0.0163  0.2770  0.2202
13251TIP3   OH261167   4.435   5.079   5.615 -0.4953 -0.2328  0.1570
13251TIP3    H161168   4.512   5.103   5.668 -0.4448  0.1978 -0.1085
13251TIP3    H261169   4.443   5.133   5.536 -0.4077 -1.0931 -0.4344
13252TIP3   OH261170   3.028   3.903   1.123  0.2383  0.7575  0.4903
13252TIP3    H161171   2.986   3.989   1.113 -1.9043 -0.3783 -1.0799
13252TIP3    H261172   3.100   3.904   1.060  1.2003  1.8996  1.5587
13253TIP3   OH261173   4.498   1.826   0.468  0.1927 -0.1195  0.8531
13253TIP3    H161174   4.404   1.844   0.469  0.3537  1.2269 -1.3712
13253TIP3    H261175   4.536   1.895   0.522 -0.0282 -0.3289  1.2870
13254TIP3   OH261176   5.212   5.615   6.030 -0.3162 -0.3953  0.1914
13254TIP3    H161177   5.244   5.675   6.098 -1.7888  0.5673  0.0947
13254TIP3    H261178   5.265   5.635   5.953 -0.6168  0.6491  0.2293
13255TIP3   OH261179   0.203   5.568  14.569  0.3504  0.2417  1.0634
13255TIP3    H161180   0.111   5.593  14.575  0.8171  2.0938  1.1696
13255TIP3    H261181   0.230   5.554  14.660 -0.1431 -1.7047  0.9497
13256TIP3   OH261182   5.672   3.480  13.868  0.1383  0.2865  0.2298
13256TIP3    H161183   5.610   3.410  13.888  1.6297 -0.9445  0.7539
13256TIP3    H261184   5.728   3.443  13.799 -0.9219  2.1203 -1.7414
13257TIP3   OH261185   5.539   4.620  14.953 -0.2562  0.0807 -0.1082
13257TIP3    H161186   5.595   4.551  14.988  0.2050 -0.5576 -2.0060
13257TIP3    H261187   5.460   4.574  14.924  0.3647  0.1534 -2.0920
13258TIP3   OH261188   1.275   2.339  15.819  0.0270  0.4716 -0.1398
13258TIP3    H161189   1.277   2.246  15.843  0.7594  0.6636  0.5829
13258TIP3    H261190   1.345   2.349  15.755  0.4351  0.6607  0.3284
13259TIP3   OH261191   0.805   2.403  10.981  0.1395 -0.5545  0.1669
13259TIP3    H161192   0.843   2.457  11.051 -0.5839 -0.2772  0.3584
13259TIP3    H261193   0.879   2.351  10.948  0.7820  0.3000  0.2131
13260TIP3   OH261194   3.722   0.487   0.175  0.5502 -0.1112  0.4284
13260TIP3    H161195   3.792   0.435   0.137  0.5326 -1.5815  2.2631
13260TIP3    H261196   3.753   0.577   0.169 -0.1012  0.0631 -4.2850
13261TIP3   OH261197   0.898   6.231  13.030  0.0373 -0.1866 -0.5953
13261TIP3    H161198   0.856   6.269  13.107 -0.9751  0.4763 -1.4343
13261TIP3    H261199   0.917   6.307  12.974  3.0130 -0.3581 -0.0099
13262TIP3   OH261200   0.246   1.972   3.025 -0.2924 -0.4637  0.1759
13262TIP3    H161201   0.335   1.973   3.061 -0.4219 -1.0383  0.5310
13262TIP3    H261202   0.235   1.883   2.991 -0.0752  0.1528 -1.5767
13263TIP3   OH261203   5.678   0.736  11.475 -0.2386 -0.0392 -0.8312
13263TIP3    H161204   5.699   0.734  11.569  0.1085 -0.2125 -0.9100
13263TIP3    H261205   5.673   0.829  11.454  0.8158  0.0230 -0.8827
13264TIP3   OH261206   2.669   5.712  16.166  0.5902 -0.6570 -0.0182
13264TIP3    H161207   2.709   5.634  16.128  0.8286 -0.3383 -0.4231
13264TIP3    H261208   2.660   5.773  16.093  1.3673  0.0879  0.4792
13265TIP3   OH261209   5.808   3.037   0.564  0.1325 -0.3373  0.3878
13265TIP3    H161210   5.732   2.999   0.520 -0.3951  0.6322  0.4322
13265TIP3    H261211   5.772   3.075   0.645  0.6976 -0.0742  0.5213
13266TIP3   OH261212   0.466   4.922  16.107 -0.4490  0.3030 -0.1547
13266TIP3    H161213   0.502   4.992  16.052  1.8631  1.0085  2.0451
13266TIP3    H261214   0.540   4.895  16.163 -2.5715 -0.4444  2.4940
13267TIP3   OH261215   3.635   5.805  16.188  0.6158 -0.3473 -0.0924
13267TIP3    H161216   3.675   5.739  16.131  0.2508 -0.7986  0.1659
13267TIP3    H261217   3.665   5.783  16.276 -1.0404 -1.3715  0.2617
13268TIP3   OH261218   5.973   1.583   2.102  0.0072  0.1472 -0.5914
13268TIP3    H161219   5.904   1.543   2.154 -0.3519  0.4121 -0.8598
13268TIP3    H261220   5.946   1.674   2.091  1.8579  1.1060  1.8526
13269TIP3   OH261221   5.920   0.364   1.853  0.2220  0.0216 -0.6467
13269TIP3    H161222   5.944   0.277   1.884 -1.7190 -0.2592  0.2385
13269TIP3    H261223   5.972   0.424   1.907 -0.3378 -0.5582  0.5691
13270TIP3   OH261224   0.674   1.775  14.581  0.1929  0.2398 -0.1853
13270TIP3    H161225   0.684   1.820  14.497  0.5005  1.2841  0.3889
13270TIP3    H261226   0.733   1.700  14.575  0.4721  0.4965 -0.7772
13271TIP3   OH261227   2.474   3.428   2.207  0.8350 -0.3380  0.0784
13271TIP3    H161228   2.381   3.418   2.227  0.9916  0.0660  1.0534
13271TIP3    H261229   2.519   3.386   2.280  1.4266  0.5554  0.2405
13272TIP3   OH261230   2.069   5.977  12.715  0.0524 -0.6871  0.1939
13272TIP3    H161231   2.078   5.958  12.622  0.0355 -0.0748  0.0666
13272TIP3    H261232   2.157   6.005  12.742  0.0827 -0.9625  0.3873
13273TIP3   OH261233   2.042   1.598  13.040 -0.2635  0.5656 -0.0628
13273TIP3    H161234   1.971   1.540  13.067  0.0919 -0.0628 -0.4360
13273TIP3    H261235   2.007   1.686  13.051 -0.4253  0.3145  1.5818
13274TIP3   OH261236   1.734   0.520  12.290 -0.1435  0.0983 -0.2066
13274TIP3    H161237   1.774   0.606  12.275 -0.3177  0.0034 -1.2877
13274TIP3    H261238   1.785   0.460  12.234  0.7341 -0.7243  1.4042
13275TIP3   OH261239   1.006   3.152  15.254  0.0667  0.4393 -0.1087
13275TIP3    H161240   0.981   3.060  15.255 -0.3631  0.5312 -1.0097
13275TIP3    H261241   0.937   3.196  15.204  0.2686  1.2483  0.2967
13276TIP3   OH261242   4.172   4.730   4.173 -0.8005  0.5665 -0.1105
13276TIP3    H161243   4.128   4.771   4.099 -0.2921  1.3068 -0.0245
13276TIP3    H261244   4.109   4.734   4.244 -1.1640  0.1745 -0.4111
13277TIP3   OH261245   0.622   5.456   2.978  0.2747  0.3542 -0.3407
13277TIP3    H161246   0.709   5.480   3.009 -0.0852 -0.2481  1.2177
13277TIP3    H261247   0.568   5.456   3.057 -0.8372 -0.6184 -1.0785
13278TIP3   OH261248   0.564   6.163  13.440 -0.0698  0.0315 -0.0562
13278TIP3    H161249   0.616   6.084  13.455 -1.1173 -0.5928  0.3902
13278TIP3    H261250   0.576   6.182  13.347 -1.5952 -1.9807 -0.7144
13279TIP3   OH261251   6.014   0.688  11.786  0.1135  0.4182  0.4081
13279TIP3    H161252   6.066   0.759  11.748  1.3842  0.7881  2.6428
13279TIP3    H261253   6.065   0.609  11.770 -0.8682  0.1015 -1.3014
13280TIP3   OH261254   3.546   3.543  14.726 -0.2574 -0.3182 -0.3101
13280TIP3    H161255   3.549   3.636  14.748  0.9145 -0.2120 -0.8249
13280TIP3    H261256   3.550   3.541  14.631 -0.1666 -0.9069 -0.2976
13281TIP3   OH261257   1.064   6.327  15.516  0.2923 -0.6233 -0.1647
13281TIP3    H161258   1.049   6.250  15.572 -1.1372  0.1120  0.5265
13281TIP3    H261259   1.159   6.338  15.515  0.4722 -1.8630  0.4517
13282TIP3   OH261260   3.468   2.592   0.109  0.1034 -0.2012 -0.5868
13282TIP3    H161261   3.374   2.599   0.093 -0.4917 -1.4538  1.8664
13282TIP3    H261262   3.505   2.574   0.023 -1.9299 -0.0631 -1.5623
13283TIP3   OH261263   0.596   1.446   0.366  0.1934 -0.0532 -0.1187
13283TIP3    H161264   0.655   1.497   0.421  0.1634 -1.3945  1.2186
13283TIP3    H261265   0.512   1.491   0.375  0.0674 -0.5171  1.3764
13284TIP3   OH261266   3.136   1.484   5.216  0.2535 -0.0304  0.2736
13284TIP3    H161267   3.198   1.555   5.199 -1.2526  0.7361 -2.6168
13284TIP3    H261268   3.102   1.503   5.304  1.7679  1.3193  0.6143
13285TIP3   OH261269   3.114   0.965   0.990 -0.5544  0.9532 -0.4678
13285TIP3    H161270   3.100   0.872   0.975 -3.5063  1.2968 -0.4231
13285TIP3    H261271   3.071   0.983   1.073 -1.7170  2.6710 -1.3817
13286TIP3   OH261272   6.557   5.566  16.072  0.2212  0.0580  0.1961
13286TIP3    H161273   6.572   5.594  16.163 -0.5423 -0.7196  0.5785
13286TIP3    H261274   6.641   5.529  16.044  0.7953  1.3133  0.1923
13287TIP3   OH261275   2.242   1.411   0.971  0.3552  0.2803 -0.3111
13287TIP3    H161276   2.301   1.440   1.041  0.9842 -0.9333 -0.3191
13287TIP3    H261277   2.216   1.323   0.998  0.8807 -0.3413 -1.7819
13288TIP3   OH261278   2.646   0.255  12.986 -0.3535  0.0678 -0.5372
13288TIP3    H161279   2.602   0.235  13.069  2.1132 -3.6604  0.1647
13288TIP3    H261280   2.716   0.316  13.010  0.4133 -1.0715  0.2496
13289TIP3   OH261281   6.606   6.505   5.311  0.1040 -0.4249  0.1924
13289TIP3    H161282   6.630   6.451   5.387 -0.6339 -0.2032  0.5916
13289TIP3    H261283   6.565   6.444   5.250 -0.6611 -0.3380  0.6114
13290TIP3   OH261284   0.980   6.259   1.563 -0.0167  0.2616 -1.3154
13290TIP3    H161285   0.962   6.208   1.642  1.3417 -0.2437 -1.2906
13290TIP3    H261286   0.924   6.220   1.496  0.4846 -0.8376 -1.1288
13291TIP3   OH261287   3.312   2.446   2.713  0.0315 -0.0225  0.0042
13291TIP3    H161288   3.269   2.513   2.660  0.1279  0.0960  0.0769
13291TIP3    H261289   3.241   2.389   2.741 -0.0322 -0.0371 -0.1811
13292TIP3   OH261290   0.473   0.251  10.373 -0.3784 -0.2078 -0.3198
13292TIP3    H161291   0.552   0.200  10.356 -0.5351 -0.3925 -0.5113
13292TIP3    H261292   0.504   0.332  10.413 -0.1814 -0.7649  0.6896
13293TIP3   OH261293   3.983   0.686  12.531 -0.1838  0.1150  0.1310
13293TIP3    H161294   3.894   0.699  12.563  0.0572  1.1689  0.4278
13293TIP3    H261295   4.028   0.769  12.551  0.6458 -0.1086 -0.7305
13294TIP3   OH261296   3.673   5.977  12.441  0.6083  0.3108  0.1277
13294TIP3    H161297   3.709   5.981  12.352  0.2866 -0.5532 -0.0499
13294TIP3    H261298   3.702   5.891  12.474  0.5073  0.5177  0.7622
13295TIP3   OH261299   4.034   3.587   4.362 -0.1463 -0.3160 -0.5155
13295TIP3    H161300   4.068   3.503   4.393  0.2806 -0.5925 -1.6797
13295TIP3    H261301   3.969   3.563   4.296  0.3479  0.2674 -1.2294
13296TIP3   OH261302   6.374   1.644  15.919 -0.1580 -0.5574 -0.0440
13296TIP3    H161303   6.454   1.607  15.956 -0.3439  0.5741  1.5723
13296TIP3    H261304   6.401   1.685  15.837  0.8875 -0.3198  0.4149
13297TIP3   OH261305   2.464   2.148   1.100  0.1534 -0.2530  0.3618
13297TIP3    H161306   2.403   2.176   1.168  1.0803 -0.7799  1.4491
13297TIP3    H261307   2.513   2.076   1.140  0.1987 -1.1068 -1.1399
13298TIP3   OH261308   6.107   2.917  14.206 -0.8020 -0.1275  0.0783
13298TIP3    H161309   6.050   2.993  14.217 -0.7149  0.1433 -1.1960
13298TIP3    H261310   6.164   2.941  14.133 -0.5126 -1.2648 -0.0784
13299TIP3   OH261311   4.535   6.808   6.236 -0.4790  0.3243  0.0773
13299TIP3    H161312   4.618   6.831   6.277 -0.7690 -0.4590  1.1354
13299TIP3    H261313   4.507   6.888   6.191  0.5573  0.7608  0.1849
13300TIP3   OH261314   5.202   1.306   5.693 -0.2992 -0.0093 -0.0050
13300TIP3    H161315   5.248   1.389   5.682 -0.5623  0.1383 -0.0034
13300TIP3    H261316   5.170   1.308   5.783 -0.3357 -0.0955 -0.0154
13301TIP3   OH261317   1.356   0.341  13.199 -0.3681  0.8640 -0.0320
13301TIP3    H161318   1.394   0.256  13.217 -0.3973  1.3229  2.4928
13301TIP3    H261319   1.262   0.325  13.194 -0.5195  0.9128  1.9410
13302TIP3   OH261320   2.542   0.795   2.178  0.4425 -0.2543  0.4422
13302TIP3    H161321   2.604   0.848   2.228  0.9044 -1.6521  1.4263
13302TIP3    H261322   2.473   0.856   2.152  0.9397  0.8143  1.5445
13303TIP3   OH261323   5.596   3.899   2.221  0.3791  0.2909 -0.1836
13303TIP3    H161324   5.660   3.887   2.151  0.4735 -0.6026  0.0457
13303TIP3    H261325   5.648   3.894   2.301  0.0618 -0.1425 -0.0059
13304TIP3   OH261326   2.694   3.726   5.268  0.4568  0.6348  0.2667
13304TIP3    H161327   2.742   3.809   5.273 -0.0685  1.0003 -0.6399
13304TIP3    H261328   2.653   3.717   5.354  0.7398  1.1795  0.4636
13305TIP3   OH261329   2.148   5.102   0.637  0.3257 -0.2980  0.2413
13305TIP3    H161330   2.066   5.143   0.609  0.7425  0.2770 -0.1503
13305TIP3    H261331   2.163   5.033   0.572  0.4117 -0.0730  0.0204
13306TIP3   OH261332   1.806   5.016   0.804 -0.7826 -0.1204  0.6065
13306TIP3    H161333   1.750   4.939   0.796  1.0787 -1.5625  0.8427
13306TIP3    H261334   1.819   5.046   0.714 -1.2028 -0.3268  0.4787
13307TIP3   OH261335   0.256   2.025  14.284  0.2848  0.0660  0.0618
13307TIP3    H161336   0.349   2.004  14.278 -0.3326 -3.0921 -0.6266
13307TIP3    H261337   0.215   1.943  14.312 -2.5563  0.5085 -2.2768
13308TIP3   OH261338   4.747   1.427  12.536 -0.1860 -0.0155  0.4238
13308TIP3    H161339   4.758   1.383  12.620 -1.0366  1.3168  1.2604
13308TIP3    H261340   4.808   1.501  12.539  0.7572 -0.6947 -0.7058
13309TIP3   OH261341   5.596   6.363  15.833  0.2128 -0.1784  0.0498
13309TIP3    H161342   5.682   6.380  15.793  0.0586  2.1514  0.5940
13309TIP3    H261343   5.615   6.349  15.925  0.0132  0.5122  0.2018
13310TIP3   OH261344   5.705   3.395  15.155  0.0039  0.5713 -0.1028
13310TIP3    H161345   5.621   3.411  15.199 -0.6810 -2.6478 -0.0307
13310TIP3    H261346   5.684   3.397  15.062 -0.5258 -1.6373 -0.0708
13311TIP3   OH261347   2.784   2.699   2.826 -0.1371 -0.5145 -0.2125
13311TIP3    H161348   2.823   2.617   2.857 -1.0983 -0.8375  0.1673
13311TIP3    H261349   2.729   2.673   2.752  0.0429 -0.1164 -0.4942
13312TIP3   OH261350   3.485   2.680   0.836 -0.4496 -0.7699  0.2656
13312TIP3    H161351   3.498   2.596   0.880  0.1941 -1.8782 -1.9344
13312TIP3    H261352   3.390   2.684   0.820 -0.4941 -1.0163  0.4609
13313TIP3   OH261353   4.705   0.391  15.024  0.3307  0.1214  0.2336
13313TIP3    H161354   4.777   0.417  15.081 -0.4852 -0.9167  1.8002
13313TIP3    H261355   4.634   0.451  15.047  0.7354  1.3782 -1.5551
13314TIP3   OH261356   1.541   6.738   1.623  0.2723 -0.0489 -0.9409
13314TIP3    H161357   1.623   6.775   1.591 -0.0705  0.8554 -0.7995
13314TIP3    H261358   1.554   6.643   1.617  1.3053  0.0773 -0.9682
13315TIP3   OH261359   0.922   1.879   3.093 -0.3519 -0.6407  0.0658
13315TIP3    H161360   0.855   1.864   3.027 -1.4008  0.7784  0.7378
13315TIP3    H261361   0.885   1.843   3.173 -0.0557 -0.3840  0.3224
13316TIP3   OH261362   3.060   2.030  12.053  0.0808 -0.1647 -0.2643
13316TIP3    H161363   3.139   2.005  12.005  1.4655  1.9238  0.7989
13316TIP3    H261364   3.063   1.978  12.133  0.1071 -0.4576 -0.4543
13317TIP3   OH261365   6.126   1.806  12.182  0.2086 -0.3312 -0.2980
13317TIP3    H161366   6.090   1.821  12.095 -0.5047 -0.6172 -0.0550
13317TIP3    H261367   6.122   1.711  12.193 -2.6136 -0.1181  1.2550
13318TIP3   OH261368   4.594   0.592  13.749 -0.2442 -0.0943 -0.5877
13318TIP3    H161369   4.606   0.577  13.655  1.3737 -1.7865 -0.1634
13318TIP3    H261370   4.623   0.682  13.763  0.0894 -0.0302 -1.6046
13319TIP3   OH261371   1.923   1.555  14.361  0.1292 -0.0060  0.2569
13319TIP3    H161372   1.843   1.536  14.311  0.3129 -0.5945  0.1742
13319TIP3    H261373   1.969   1.471  14.365 -0.0313 -0.0485  1.6922
13320TIP3   OH261374   0.566   4.695   5.363 -0.1638  0.3738  0.3686
13320TIP3    H161375   0.634   4.753   5.399 -0.7908  2.4135 -1.4885
13320TIP3    H261376   0.598   4.673   5.275 -0.9524 -0.3434  0.2544
13321TIP3   OH261377   1.198   4.362  14.832 -0.4797  0.1495 -0.1691
13321TIP3    H161378   1.243   4.349  14.916 -0.1546  3.0314  0.2036
13321TIP3    H261379   1.238   4.298  14.774  1.9586  0.5144  0.9523
13322TIP3   OH261380   1.734   3.250   0.689 -0.4330  0.1516  0.2374
13322TIP3    H161381   1.744   3.282   0.779  2.6522  0.0206  0.0269
13322TIP3    H261382   1.648   3.284   0.662 -0.5994  1.8619  2.5553
13323TIP3   OH261383   2.653   1.570  12.904  0.4584 -0.1324  0.3766
13323TIP3    H161384   2.665   1.659  12.872  0.1307 -0.3170 -0.2732
13323TIP3    H261385   2.742   1.538  12.923  0.5699  0.3523  0.6866
13324TIP3   OH261386   1.595   4.685  16.697 -0.3424 -0.5898 -0.2727
13324TIP3    H161387   1.545   4.764  16.718  0.1242 -0.4518  0.3608
13324TIP3    H261388   1.588   4.631  16.776  1.5568 -0.0086  0.3585
13325TIP3   OH261389   5.035   1.450  15.974  0.2433  0.7797  0.2428
13325TIP3    H161390   4.983   1.490  15.904  2.4025  0.8807 -1.3970
13325TIP3    H261391   5.126   1.463  15.947  1.1143 -1.3291  1.8698
13326TIP3   OH261392   2.187   2.398   2.673 -0.2740  0.3691 -0.3158
13326TIP3    H161393   2.123   2.363   2.612  0.3313 -0.0666 -0.7012
13326TIP3    H261394   2.152   2.485   2.697 -0.1744  0.8367 -1.7982
13327TIP3   OH261395   3.387   3.909   0.208  0.2272  0.8816  0.0333
13327TIP3    H161396   3.446   3.839   0.234 -0.4341  0.4518  0.3992
13327TIP3    H261397   3.427   3.946   0.129 -1.2257 -2.3323 -2.4159
13328TIP3   OH261398   5.387   0.829   4.888  0.2550  0.6508  0.6767
13328TIP3    H161399   5.338   0.796   4.813  0.9130  0.9494  0.0988
13328TIP3    H261400   5.323   0.877   4.940 -0.4650 -0.5418  0.9295
13329TIP3   OH261401   6.661   3.535  13.475 -0.0143  0.4016  0.5618
13329TIP3    H161402   6.644   3.455  13.525  1.1399  0.1828  0.6197
13329TIP3    H261403   6.680   3.602  13.540  0.6871  0.3135  0.4503
13330TIP3   OH261404   6.207   5.329  13.072 -0.5969 -0.3948  1.0996
13330TIP3    H161405   6.247   5.414  13.084  0.3115 -0.5472 -0.5381
13330TIP3    H261406   6.113   5.345  13.079 -0.5419  1.0774 -0.7719
13331TIP3   OH261407   2.439   5.861  14.690  0.5564 -0.1672  0.3722
13331TIP3    H161408   2.501   5.834  14.758  2.2839  1.0313 -0.6416
13331TIP3    H261409   2.495   5.883  14.615 -1.1950 -0.0706 -0.9526
13332TIP3   OH261410   3.572   0.390  14.715 -0.1356  0.1002  0.0869
13332TIP3    H161411   3.647   0.404  14.773  0.0046  0.0987 -0.0955
13332TIP3    H261412   3.610   0.373  14.629 -0.3110 -0.7807  0.1738
13333TIP3   OH261413   4.800   4.684  15.448  0.7665  0.1924 -0.6534
13333TIP3    H161414   4.747   4.753  15.489 -1.0746 -1.7149  0.4238
13333TIP3    H261415   4.849   4.645  15.521  0.3456 -0.7944 -0.8715
13334TIP3   OH261416   5.868   4.446   2.561  0.0750 -0.1103 -0.0099
13334TIP3    H161417   5.908   4.418   2.644  1.4494 -1.3923 -1.0368
13334TIP3    H261418   5.943   4.471   2.506 -0.8090  0.7298 -0.8701
13335TIP3   OH261419   4.319   3.342   5.587  0.1523 -0.5521  0.3300
13335TIP3    H161420   4.296   3.353   5.495  0.7554 -0.7566  0.1533
13335TIP3    H261421   4.407   3.379   5.595  0.2471 -0.8560  0.7474
13336TIP3   OH261422   0.526   1.174   3.085  0.3040  0.1493 -0.1749
13336TIP3    H161423   0.578   1.165   3.005  0.9948  1.0313  0.1514
13336TIP3    H261424   0.558   1.104   3.142 -1.2960 -1.5142 -1.1977
13337TIP3   OH261425   1.329   5.827   3.879 -0.3185 -0.0019 -0.1723
13337TIP3    H161426   1.269   5.885   3.831 -1.0176  0.9406  1.7345
13337TIP3    H261427   1.282   5.744   3.885 -0.0257 -0.2884 -1.4550
13338TIP3   OH261428   6.198   4.259  11.638  0.1970  0.6004  0.7837
13338TIP3    H161429   6.144   4.251  11.559 -0.4773  0.2981  1.2702
13338TIP3    H261430   6.270   4.317  11.612  1.0678 -1.0153 -0.6500
13339TIP3   OH261431   6.050   5.409   4.885  0.4420  0.3314  0.5374
13339TIP3    H161432   6.063   5.469   4.958  0.9634  0.1069  0.6327
13339TIP3    H261433   6.131   5.360   4.879 -0.0168 -0.4483  0.5294
13340TIP3   OH261434   1.316   6.692  15.267 -0.3884  0.5184  0.0560
13340TIP3    H161435   1.266   6.708  15.347 -1.3916  0.8365 -0.6150
13340TIP3    H261436   1.255   6.645  15.210  0.4962 -0.2045 -0.3261
13341TIP3   OH261437   5.579   4.874  15.060 -0.3705  0.3646 -0.1583
13341TIP3    H161438   5.556   4.788  15.024 -0.2472  0.4230 -0.3772
13341TIP3    H261439   5.515   4.933  15.023  0.1575  0.5369 -0.8132
13342TIP3   OH261440   0.136   4.481   1.645  0.2894 -0.3069  0.2973
13342TIP3    H161441   0.189   4.414   1.687  1.6474  1.7395  2.0756
13342TIP3    H261442   0.196   4.522   1.582  0.5216  1.2146  1.4473
13343TIP3   OH261443   5.083   1.908  16.308 -0.1624  0.4169  0.1161
13343TIP3    H161444   5.088   1.982  16.369  1.2462 -0.0644  0.6310
13343TIP3    H261445   5.015   1.852  16.345 -0.1273  0.6908  0.6134
13344TIP3   OH261446   2.469   3.889  14.929 -0.3143  0.0863  0.5697
13344TIP3    H161447   2.557   3.925  14.916 -0.3193  0.1157  0.6160
13344TIP3    H261448   2.426   3.900  14.844  0.2826 -1.5034  0.0325
13345TIP3   OH261449   1.254   2.841   3.713 -0.4142 -0.2424 -0.4814
13345TIP3    H161450   1.290   2.841   3.624 -0.8693  0.8310 -0.6774
13345TIP3    H261451   1.332   2.848   3.769 -0.2472  2.4608 -0.9155
13346TIP3   OH261452   1.079   5.321   5.211 -0.2072  0.1775 -0.0587
13346TIP3    H161453   1.117   5.240   5.176 -0.0525  0.0104  0.4928
13346TIP3    H261454   1.005   5.340   5.153  1.0158  0.8016 -1.4907
13347TIP3   OH261455   1.994   5.907   3.113 -0.5137  0.0644 -0.3764
13347TIP3    H161456   1.997   5.870   3.025 -1.2139  0.9568 -0.7912
13347TIP3    H261457   1.904   5.938   3.122 -0.2958  0.4692  0.4545
13348TIP3   OH261458   1.288   5.582  12.740  0.4452  0.1313  1.0657
13348TIP3    H161459   1.345   5.551  12.811  0.9161 -1.6286 -0.0245
13348TIP3    H261460   1.212   5.524  12.742  1.6408 -1.7468 -1.4273
13349TIP3   OH261461   1.239   1.764   0.480  0.3781  0.1130 -0.1740
13349TIP3    H161462   1.278   1.702   0.542 -1.4779 -0.7263  0.2080
13349TIP3    H261463   1.280   1.848   0.502  1.7040 -0.6442  0.4084
13350TIP3   OH261464   2.677   3.174   0.152  0.1574  0.3954 -0.4780
13350TIP3    H161465   2.638   3.190   0.066 -0.7835  1.0348  0.0414
13350TIP3    H261466   2.602   3.160   0.210  0.7651 -3.6966 -0.3624
13351TIP3   OH261467   0.055   6.110   2.659  0.1630  0.2955 -0.5327
13351TIP3    H161468   0.127   6.047   2.654 -0.1461 -0.7808  3.9656
13351TIP3    H261469   0.096   6.194   2.641  2.3023 -0.4429  0.5308
13352TIP3   OH261470   3.102   6.202   1.613  0.4310 -0.1163  0.5768
13352TIP3    H161471   3.069   6.119   1.648  0.1996  0.0339  0.7131
13352TIP3    H261472   3.035   6.230   1.551 -0.0408  0.5418  1.3705
13353TIP3   OH261473   1.798   5.489   5.071 -0.4513 -0.2345  0.5552
13353TIP3    H161474   1.729   5.529   5.018 -0.6382  0.2909  1.1871
13353TIP3    H261475   1.848   5.563   5.104  2.4841 -0.5805 -2.5064
13354TIP3   OH261476   1.837   5.336  13.319  0.3163  0.0618  0.6199
13354TIP3    H161477   1.860   5.371  13.405  1.5542 -0.6703  0.6152
13354TIP3    H261478   1.874   5.248  13.318 -2.3315 -1.1414  0.4548
13355TIP3   OH261479   5.723   3.341   3.765  1.0483 -0.4041 -0.4517
13355TIP3    H161480   5.656   3.276   3.786  1.5197 -1.0664 -0.9640
13355TIP3    H261481   5.680   3.401   3.704 -0.0361  0.9854  1.5547
13356TIP3   OH261482   4.398   6.668   5.438  0.1082 -0.1656 -0.4767
13356TIP3    H161483   4.492   6.652   5.434 -0.0563 -1.2199 -0.3207
13356TIP3    H261484   4.363   6.630   5.357 -0.2814 -0.4958 -0.1584
13357TIP3   OH261485   1.145   5.321  14.483  0.2871 -0.2641 -0.5559
13357TIP3    H161486   1.162   5.378  14.408  3.6720 -0.6778 -0.2761
13357TIP3    H261487   1.176   5.235  14.455  0.7160 -0.6418  0.9767
13358TIP3   OH261488   2.873   1.987  15.888 -0.7028 -0.3850 -0.0229
13358TIP3    H161489   2.912   2.025  15.967  0.5481 -1.6490 -0.0018
13358TIP3    H261490   2.869   1.893  15.906 -1.1812 -0.5905 -1.1493
13359TIP3   OH261491   1.077   5.806   5.830 -0.0963  0.2484  0.0575
13359TIP3    H161492   1.087   5.845   5.917 -0.3007 -1.4699  0.8880
13359TIP3    H261493   1.160   5.759   5.815 -0.2770  0.0738 -0.4397
13360TIP3   OH261494   1.913   6.599   1.794 -0.0490  0.2563  0.0971
13360TIP3    H161495   1.951   6.581   1.880 -2.5290 -0.3677  1.1292
13360TIP3    H261496   1.901   6.693   1.792 -1.0683  0.1531  0.9366
13361TIP3   OH261497   4.955   0.946   2.415  0.6251 -0.6204 -0.0216
13361TIP3    H161498   4.962   0.864   2.465 -0.2679 -1.0581 -0.5928
13361TIP3    H261499   4.889   0.928   2.349  0.6407  0.4765 -0.3501
13362TIP3   OH261500   1.340   1.002   3.668 -0.9187 -0.4052 -0.3333
13362TIP3    H161501   1.405   1.060   3.629 -0.7587 -0.1721  0.2674
13362TIP3    H261502   1.382   0.967   3.746 -1.2849 -0.7548 -0.2885
13363TIP3   OH261503   5.345   4.535   0.747 -0.1835  0.1944  0.2132
13363TIP3    H161504   5.289   4.505   0.818  0.9390  0.4054  1.2313
13363TIP3    H261505   5.365   4.627   0.768  0.7418  0.0517  0.0335
13364TIP3   OH261506   6.755   3.374   0.979  0.3612 -0.1294 -0.5428
13364TIP3    H161507   6.785   3.352   1.067 -0.6103 -0.7607 -0.3578
13364TIP3    H261508   6.661   3.360   0.981  0.3458 -0.3412 -1.7371
13365TIP3   OH261509   3.609   6.045   5.156 -0.2466 -0.0975  0.5314
13365TIP3    H161510   3.631   5.954   5.138 -1.0958 -0.0297 -1.0313
13365TIP3    H261511   3.524   6.041   5.199  0.5252 -0.1070  2.1210
13366TIP3   OH261512   1.558   3.679   5.305 -0.1039  0.1873  0.1447
13366TIP3    H161513   1.638   3.704   5.258  2.1332 -1.8251  2.5668
13366TIP3    H261514   1.540   3.753   5.363 -0.9672  1.2848 -1.4512
13367TIP3   OH261515   6.483   2.610  12.511 -0.0668 -0.1232  0.2307
13367TIP3    H161516   6.469   2.555  12.435 -1.8136  2.8918 -1.8730
13367TIP3    H261517   6.395   2.644  12.533  0.5843  0.1669  2.7603
13368TIP3   OH261518   0.549   3.691  14.234 -0.1123 -0.1724  0.0388
13368TIP3    H161519   0.530   3.761  14.171 -0.9683 -1.3884 -1.1056
13368TIP3    H261520   0.466   3.675  14.278 -0.3691 -1.5968 -0.9125
13369TIP3   OH261521   6.714   3.114   3.591  0.0702 -0.8629 -0.1917
13369TIP3    H161522   6.776   3.147   3.526  1.6647 -0.0179  1.6526
13369TIP3    H261523   6.658   3.189   3.611  0.1710 -0.8491  0.0467
13370TIP3   OH261524   5.459   2.715  16.590  0.0113 -0.2483 -0.4128
13370TIP3    H161525   5.369   2.730  16.561 -0.2736 -1.1256 -0.0270
13370TIP3    H261526   5.477   2.625  16.566  1.2047  0.2587 -1.5069
13371TIP3   OH261527   3.150   1.152   0.436  0.7933  0.6123 -0.4270
13371TIP3    H161528   3.171   1.163   0.529 -0.5215  3.0116 -0.3351
13371TIP3    H261529   3.109   1.065   0.431  0.9191  0.4245  1.2146
13372TIP3   OH261530   3.202   6.194   4.643 -0.3107  0.1309  0.1355
13372TIP3    H161531   3.243   6.146   4.715  0.2792  0.0780 -0.2242
13372TIP3    H261532   3.172   6.276   4.683  0.1467  0.1671  0.4185
13373TIP3   OH261533   2.320   2.855   2.942  0.0876 -0.1754  0.2684
13373TIP3    H161534   2.310   2.928   2.881 -0.4812  0.1598  0.7524
13373TIP3    H261535   2.367   2.893   3.016  2.1381 -0.9336 -0.5651
13374TIP3   OH261536   0.794   5.854  16.030  0.4924 -0.8038 -0.0832
13374TIP3    H161537   0.871   5.910  16.039  0.9946 -1.4236 -0.3882
13374TIP3    H261538   0.723   5.913  16.007  0.6094 -0.0599  1.3699
13375TIP3   OH261539   6.690   3.431  15.336 -0.1556  0.6118 -0.0029
13375TIP3    H161540   6.740   3.391  15.266  1.1741  0.8720  0.7645
13375TIP3    H261541   6.692   3.525  15.318 -1.3540  0.5536 -0.5714
13376TIP3   OH261542   3.687   5.251  11.435 -0.4798  0.1265 -0.1378
13376TIP3    H161543   3.743   5.174  11.438 -0.5151  0.0520 -0.9472
13376TIP3    H261544   3.647   5.248  11.348 -2.7144 -0.5047  0.8410
13377TIP3   OH261545   1.994   4.441  13.817  0.4063  0.1656 -0.2780
13377TIP3    H161546   1.923   4.380  13.837  1.3260 -0.4595  1.3118
13377TIP3    H261547   2.068   4.385  13.793  1.5895  0.4702  2.2183
13378TIP3   OH261548   4.707   4.108   1.628 -0.6142  0.4020 -0.3727
13378TIP3    H161549   4.686   4.037   1.567  0.5539 -0.4456  0.1856
13378TIP3    H261550   4.666   4.083   1.710  3.2578 -1.9425  1.1291
13379TIP3   OH261551   2.432   5.313   2.246  0.2785 -0.1619 -0.2425
13379TIP3    H161552   2.347   5.305   2.289 -0.7249  0.7665 -1.9791
13379TIP3    H261553   2.485   5.243   2.285 -0.6075  0.4668  2.3102
13380TIP3   OH261554   2.115   6.447   6.238 -1.1787 -0.2047 -0.0256
13380TIP3    H161555   2.058   6.386   6.192 -0.8731 -0.4026 -0.1450
13380TIP3    H261556   2.203   6.412   6.226 -1.0378  0.0548  0.2243
13381TIP3   OH261557   1.231   1.468   0.643 -0.8606  0.5815  0.9528
13381TIP3    H161558   1.254   1.376   0.657  0.1413  0.0691 -2.7957
13381TIP3    H261559   1.315   1.514   0.648 -0.7460  0.6324 -0.7176
13382TIP3   OH261560   1.515   1.164   2.335 -0.2302  0.0918 -0.3034
13382TIP3    H161561   1.465   1.171   2.253 -1.4133  1.9991  0.5248
13382TIP3    H261562   1.452   1.128   2.397 -0.1041  1.0119  0.3667
13383TIP3   OH261563   6.368   6.566   3.398 -0.6160 -0.2152 -0.4705
13383TIP3    H161564   6.444   6.538   3.348 -0.7492  0.6852 -1.1932
13383TIP3    H261565   6.298   6.577   3.334 -0.7431  1.1250 -0.1503
13384TIP3   OH261566   5.150   0.775   0.133 -0.1781  0.3059  0.2589
13384TIP3    H161567   5.124   0.855   0.088  2.3409  0.0988 -1.7751
13384TIP3    H261568   5.209   0.804   0.202  0.1595  0.2520 -0.0074
13385TIP3   OH261569   4.470   0.914  13.629 -0.2218  0.4298  0.2788
13385TIP3    H161570   4.536   0.975  13.595 -0.3639  0.8216  0.6933
13385TIP3    H261571   4.414   0.969  13.684 -0.7736  0.0594  0.0871
13386TIP3   OH261572   5.303   3.881   4.368  0.1843 -0.1855  0.2433
13386TIP3    H161573   5.397   3.900   4.362 -0.1147  1.6688  0.8770
13386TIP3    H261574   5.295   3.823   4.444  0.7773 -0.0794  0.3920
13387TIP3   OH261575   5.641   2.029   3.597 -0.3434  0.5079  0.3638
13387TIP3    H161576   5.673   2.023   3.687  2.7231  0.7011 -0.5722
13387TIP3    H261577   5.666   2.117   3.569 -2.0185  0.7563 -0.4410
13388TIP3   OH261578   5.035   1.271  11.920  0.7299  0.1193 -0.7319
13388TIP3    H161579   5.000   1.201  11.865 -0.2195  0.4582 -0.5782
13388TIP3    H261580   4.963   1.294  11.979  1.7938 -0.4092  0.8405
13389TIP3   OH261581   1.171   4.847   2.369  0.4105 -0.0625 -0.0393
13389TIP3    H161582   1.254   4.801   2.382  0.8655  0.4887 -0.8441
13389TIP3    H261583   1.109   4.778   2.346  0.8841 -0.3749 -0.4078
13390TIP3   OH261584   5.024   4.226  14.040  0.2916  0.1348  0.2118
13390TIP3    H161585   5.080   4.149  14.053 -0.3146 -0.5507 -1.0919
13390TIP3    H261586   4.963   4.200  13.972 -0.0864  1.7016 -0.0800
13391TIP3   OH261587   1.626   4.976   1.507  0.1545  0.1503  0.1141
13391TIP3    H161588   1.692   4.911   1.530  1.5290  2.0678  2.0967
13391TIP3    H261589   1.562   4.972   1.577  0.0719  0.6712  0.0764
13392TIP3   OH261590   5.867   5.763   5.553  0.5732  0.0854  0.6055
13392TIP3    H161591   5.844   5.830   5.617  1.7157  0.2958  0.8196
13392TIP3    H261592   5.806   5.691   5.569 -1.0961  1.2908 -0.0371
13393TIP3   OH261593   3.668   4.197   2.684  0.0533 -0.0010  0.4434
13393TIP3    H161594   3.576   4.189   2.662  0.3623 -1.1073 -0.5845
13393TIP3    H261595   3.710   4.125   2.636  1.7635  1.8881 -1.0989
13394TIP3   OH261596   6.142   3.957  12.023 -1.0963  0.0543  0.4084
13394TIP3    H161597   6.199   3.927  11.952 -0.8714 -1.0014  1.0129
13394TIP3    H261598   6.058   3.913  12.006 -1.4019  0.7251  0.1488
13395TIP3   OH261599   2.156   3.938   4.885 -0.1303  0.0718  0.1015
13395TIP3    H161600   2.148   3.980   4.799  0.9721 -0.3902 -0.2520
13395TIP3    H261601   2.250   3.942   4.904 -0.4707  1.0219  1.7433
13396TIP3   OH261602   1.459   6.276  14.750 -0.0202 -0.2682 -0.1218
13396TIP3    H161603   1.454   6.332  14.827 -0.2195 -0.1898 -0.1917
13396TIP3    H261604   1.466   6.187  14.785  0.7622 -0.1708 -0.0031
13397TIP3   OH261605   3.313   0.370  13.119 -0.0145  0.0368  0.3333
13397TIP3    H161606   3.271   0.306  13.061 -3.3437  2.2995 -0.0688
13397TIP3    H261607   3.384   0.407  13.067 -0.7523 -0.4006 -1.0463
13398TIP3   OH261608   6.332   3.482   2.360 -0.7513 -0.5640  0.2413
13398TIP3    H161609   6.325   3.528   2.276  0.0370 -1.0355 -0.0993
13398TIP3    H261610   6.267   3.524   2.416 -0.3288  0.6951 -0.1710
13399TIP3   OH261611   2.077   2.251  10.982 -0.0731 -0.3362  0.2677
13399TIP3    H161612   2.092   2.344  10.996 -1.0887 -0.4052  2.0497
13399TIP3    H261613   1.997   2.248  10.929  0.7967 -0.1997 -1.1111
13400TIP3   OH261614   2.677   6.578   0.676 -0.7226 -0.3941  0.3613
13400TIP3    H161615   2.747   6.617   0.624 -0.4704  2.2837  2.4937
13400TIP3    H261616   2.720   6.507   0.725  0.6883  1.4356  1.9074
13401TIP3   OH261617   5.748   1.734  10.907 -0.1761 -0.0841 -0.1038
13401TIP3    H161618   5.767   1.824  10.878  1.3479 -0.7055 -1.1171
13401TIP3    H261619   5.763   1.735  11.001  1.6573  0.2901 -0.3761
13402TIP3   OH261620   5.079   4.334   1.703 -0.1446  0.0879 -0.4439
13402TIP3    H161621   5.052   4.245   1.679 -0.0219 -0.0688 -0.0062
13402TIP3    H261622   5.169   4.323   1.734  0.4489  0.5995 -1.8850
13403TIP3   OH261623   1.316   0.465   3.385  0.1054  0.1717 -0.2304
13403TIP3    H161624   1.411   0.456   3.376  0.0630  0.8317 -1.5409
13403TIP3    H261625   1.304   0.538   3.445  0.4157 -0.0216  0.0733
13404TIP3   OH261626   5.603   4.945   6.158 -0.6410  0.1714  0.1979
13404TIP3    H161627   5.537   5.000   6.116 -2.5684 -1.0849  1.4111
13404TIP3    H261628   5.619   4.987   6.242 -1.6163 -0.6609  0.8396
13405TIP3   OH261629   4.564   2.620   1.231 -0.6575  0.5443  0.0185
13405TIP3    H161630   4.516   2.689   1.277 -1.4992 -0.3326  0.5022
13405TIP3    H261631   4.558   2.644   1.139 -1.0851  1.0348  0.1684
13406TIP3   OH261632   1.717   4.509  16.117  0.5256  0.5265  0.4475
13406TIP3    H161633   1.639   4.516  16.173  2.0166 -1.1815  2.9590
13406TIP3    H261634   1.771   4.442  16.159  2.9637  0.9754 -1.6897
13407TIP3   OH261635   6.439   0.661  15.913 -0.0624 -0.1910  0.5585
13407TIP3    H161636   6.373   0.679  15.980 -0.8061 -0.4234 -0.1090
13407TIP3    H261637   6.427   0.731  15.849 -0.6483 -1.0642 -0.3021
13408TIP3   OH261638   2.854   0.504   5.236  0.0508 -0.3916 -0.2139
13408TIP3    H161639   2.785   0.541   5.292  0.6057 -0.3558  0.4513
13408TIP3    H261640   2.929   0.493   5.294  1.0475  0.8118 -1.2130
13409TIP3   OH261641   2.984   6.234  17.031 -0.2720  0.8065 -0.7140
13409TIP3    H161642   3.044   6.209  16.960  0.6368  0.3851  0.1906
13409TIP3    H261643   2.899   6.241  16.988  0.2523  0.5086 -1.8451
13410TIP3   OH261644   1.624   5.933  11.554  0.1076 -0.6008 -0.0081
13410TIP3    H161645   1.692   5.992  11.586 -1.5532  0.8349  1.0364
13410TIP3    H261646   1.605   5.965  11.466 -0.1504 -0.1352  0.2118
13411TIP3   OH261647   2.437   4.099   5.051 -0.2745 -0.9288  0.2813
13411TIP3    H161648   2.460   4.163   4.983  0.8678 -1.6142 -0.0162
13411TIP3    H261649   2.452   4.014   5.009  1.1387 -1.3690  1.5731
13412TIP3   OH261650   4.355   0.306  12.870 -0.5094  0.3490  0.0048
13412TIP3    H161651   4.355   0.217  12.835  0.7193  0.9932 -1.7810
13412TIP3    H261652   4.309   0.359  12.805  0.9013  1.4163 -0.1773
13413TIP3   OH261653   1.347   3.255  15.327  0.2826 -0.4360 -0.2788
13413TIP3    H161654   1.259   3.258  15.363  0.0246 -0.2560 -0.9138
13413TIP3    H261655   1.345   3.316  15.254  0.9630 -0.3586 -0.2359
13414TIP3   OH261656   3.757   3.230  13.279 -0.3021  1.1863 -0.4122
13414TIP3    H161657   3.841   3.244  13.237  0.4810  0.6674  0.9327
13414TIP3    H261658   3.764   3.274  13.364 -1.2020  0.7151 -0.0757
13415TIP3   OH261659   2.988   5.366  11.583  0.0879  0.3371  0.1685
13415TIP3    H161660   2.979   5.427  11.656 -0.7917 -0.4916  0.7703
13415TIP3    H261661   2.904   5.322  11.577  0.1863  0.2701 -1.2669
13416TIP3   OH261662   1.507   6.098  10.918  0.7027 -0.1251 -0.5653
13416TIP3    H161663   1.549   6.170  10.871 -0.8932  0.5989 -0.9435
13416TIP3    H261664   1.508   6.025  10.857 -0.1805  0.4246 -1.2572
13417TIP3   OH261665   0.434   1.623  13.054 -0.3525 -0.1673 -0.1405
13417TIP3    H161666   0.505   1.680  13.084 -0.3524  0.0775 -0.5949
13417TIP3    H261667   0.357   1.651  13.104 -0.5869  0.9076 -1.0445
13418TIP3   OH261668   4.095   4.736  10.937  0.1975 -0.1405 -0.0788
13418TIP3    H161669   4.022   4.717  10.996  1.9283  0.1251  2.2879
13418TIP3    H261670   4.141   4.653  10.928  0.8651  0.1712  0.3334
13419TIP3   OH261671   4.655   1.865   5.144  0.1918  0.1564  0.0671
13419TIP3    H161672   4.714   1.792   5.161  0.9043  0.3457 -1.4254
13419TIP3    H261673   4.711   1.942   5.143 -0.1546  0.4136 -0.7330
13420TIP3   OH261674   1.815   2.412  14.234 -0.8243  0.1076 -0.0417
13420TIP3    H161675   1.778   2.346  14.293 -3.6577  0.0993 -1.6490
13420TIP3    H261676   1.746   2.478  14.226  1.0361  2.1171 -0.3035
13421TIP3   OH261677   1.661   4.272   3.738  0.1266 -0.6097  0.4450
13421TIP3    H161678   1.735   4.297   3.683 -0.6221 -0.7010 -0.6315
13421TIP3    H261679   1.695   4.203   3.794  1.6852  1.3756  2.0891
13422TIP3   OH261680   2.476   3.025  14.309  0.4838 -0.4332 -0.5919
13422TIP3    H161681   2.442   3.062  14.391  1.6982 -1.2544  0.3054
13422TIP3    H261682   2.439   3.082  14.241 -0.2061  0.5284  0.5360
13423TIP3   OH261683   6.517   2.324  11.911 -0.5291  0.0575 -0.1882
13423TIP3    H161684   6.532   2.233  11.886 -0.9911  0.1553 -0.8699
13423TIP3    H261685   6.470   2.319  11.994  0.9201 -0.2852  0.6302
13424TIP3   OH261686   0.914   4.574  16.515 -0.2257 -0.1542  0.2617
13424TIP3    H161687   0.863   4.597  16.437  1.9799  1.2153 -0.8559
13424TIP3    H261688   0.951   4.488  16.495 -0.2885 -0.1559  0.1539
13425TIP3   OH261689   2.741   3.377   0.557  0.6447 -0.0089 -0.1110
13425TIP3    H161690   2.811   3.366   0.492  0.9424  1.2170 -0.0354
13425TIP3    H261691   2.760   3.312   0.625  0.8044 -0.7487 -0.8470
13426TIP3   OH261692   4.851   1.946   4.164 -0.1398  0.1164 -0.3147
13426TIP3    H161693   4.773   1.920   4.213  0.2785  0.7833  0.7449
13426TIP3    H261694   4.924   1.907   4.212  0.4215  2.1907  0.6710
13427TIP3   OH261695   5.205   6.420   3.717  0.3208 -0.2803  0.2790
13427TIP3    H161696   5.111   6.408   3.705  0.0446  0.4262  1.5434
13427TIP3    H261697   5.232   6.473   3.642 -0.5351  0.5542  0.5411
13428TIP3   OH261698   0.562   1.841   2.224 -0.3351 -0.4906  0.1913
13428TIP3    H161699   0.595   1.772   2.167 -0.5341 -0.6139  0.2264
13428TIP3    H261700   0.641   1.878   2.264 -0.3291 -1.9378  1.6097
13429TIP3   OH261701   1.939   2.840  13.448 -0.4599 -0.5625  0.4084
13429TIP3    H161702   2.023   2.872  13.415 -0.3527 -1.7906 -0.5948
13429TIP3    H261703   1.957   2.815  13.539  0.3062 -0.9264  0.1658
13430TIP3   OH261704   2.304   4.064  12.954  0.2813  0.1523 -0.6063
13430TIP3    H161705   2.282   4.018  12.873  0.5562 -1.0940 -0.0069
13430TIP3    H261706   2.389   4.028  12.979 -0.6555 -0.9355  1.2252
13431TIP3   OH261707   5.232   4.106   3.065  0.2848 -0.3515  0.0529
13431TIP3    H161708   5.139   4.119   3.080  0.1846 -0.7462 -0.2081
13431TIP3    H261709   5.251   4.019   3.100  0.7084  0.0145  0.7566
13432TIP3   OH261710   5.441   6.508  15.654  0.3958  0.1813 -0.6438
13432TIP3    H161711   5.462   6.446  15.584  0.3575 -0.1831 -0.3355
13432TIP3    H261712   5.452   6.458  15.734 -1.9039 -0.1019 -0.4556
13433TIP3   OH261713   1.183   0.458   5.806 -0.9256  0.1859  0.5598
13433TIP3    H161714   1.238   0.406   5.865 -0.1707 -0.4374 -0.6362
13433TIP3    H261715   1.100   0.410   5.802 -0.8660  0.0561  0.8578
13434TIP3   OH261716   4.317   5.473  14.447 -0.3754 -0.0859 -0.1484
13434TIP3    H161717   4.387   5.494  14.509 -0.3633  0.9227 -0.4898
13434TIP3    H261718   4.323   5.540  14.380 -1.2551 -0.3707 -0.5325
13435TIP3   OH261719   4.373   3.597  14.028 -0.5294 -0.1356 -0.2914
13435TIP3    H161720   4.302   3.659  14.011  0.6561  1.8927  1.6994
13435TIP3    H261721   4.337   3.512  14.002 -3.9169  0.7079  1.1322
13436TIP3   OH261722   2.556   0.563  12.266  0.2495 -0.1574  0.0115
13436TIP3    H161723   2.610   0.547  12.343 -0.9059  2.6951  1.5721
13436TIP3    H261724   2.523   0.652  12.278 -0.8894 -0.0013 -3.2681
13437TIP3   OH261725   1.361   0.490  14.491 -0.4217 -0.0978 -0.6110
13437TIP3    H161726   1.432   0.428  14.474 -0.6169  0.0191 -1.9741
13437TIP3    H261727   1.316   0.455  14.568  0.9274 -0.3231  0.1031
13438TIP3   OH261728   6.387   4.562  13.200  0.2239  0.2523 -0.4278
13438TIP3    H161729   6.424   4.492  13.146  1.4953  0.5301  0.0454
13438TIP3    H261730   6.428   4.642  13.167  2.0860  0.2924  1.7748
13439TIP3   OH261731   0.126   1.684  15.896 -0.2678 -0.6485 -0.1017
13439TIP3    H161732   0.216   1.712  15.878  0.0044 -0.6993  1.1403
13439TIP3    H261733   0.097   1.645  15.813  1.0017 -1.0234 -0.3983
13440TIP3   OH261734   2.659   6.160   0.557 -0.0616 -0.1814  0.0865
13440TIP3    H161735   2.588   6.202   0.508  1.8295  0.7776 -2.0029
13440TIP3    H261736   2.686   6.226   0.621 -0.0481  0.0578 -0.1630
13441TIP3   OH261737   0.363   6.723  10.410  0.3666  0.7924  0.0519
13441TIP3    H161738   0.389   6.803  10.364 -0.7002  0.6121 -0.8792
13441TIP3    H261739   0.444   6.691  10.449  0.7473  2.5592  0.8131
13442TIP3   OH261740   6.201   6.264  13.193 -0.5766  0.1665 -0.2932
13442TIP3    H161741   6.258   6.192  13.219  0.3879  1.1433  0.4052
13442TIP3    H261742   6.150   6.284  13.271 -2.5618 -1.2444 -1.1442
13443TIP3   OH261743   6.659   1.124   3.303 -0.3184 -0.1532  0.1275
13443TIP3    H161744   6.664   1.219   3.292  1.0574 -0.0882  1.0473
13443TIP3    H261745   6.641   1.111   3.396  0.9092 -0.7814  0.3029
13444TIP3   OH261746   0.454   2.772  15.076  0.0789  0.3505 -0.0351
13444TIP3    H161747   0.360   2.788  15.067 -0.5851 -1.7863  1.9203
13444TIP3    H261748   0.480   2.728  14.995 -1.3510 -1.6995  0.5407
13445TIP3   OH261749   4.090   0.998   1.022  0.0593  1.0361 -0.6638
13445TIP3    H161750   4.142   0.918   1.026  0.5667  1.4228  1.8768
13445TIP3    H261751   3.999   0.967   1.015  0.2618  0.2428  0.0847
13446TIP3   OH261752   2.408   2.773  16.290 -0.1648 -0.2245  0.2140
13446TIP3    H161753   2.435   2.699  16.344  0.9359  0.5245  0.7363
13446TIP3    H261754   2.344   2.820  16.343  0.7623  0.3953  0.8235
13447TIP3   OH261755   1.103   4.978  16.317  0.2583  0.0574 -0.0986
13447TIP3    H161756   1.030   4.984  16.255  0.7045 -0.6755 -0.7042
13447TIP3    H261757   1.172   5.030  16.277 -0.2046  1.5119  0.9129
13448TIP3   OH261758   2.612   4.498   1.044 -0.5507  0.2523 -0.7218
13448TIP3    H161759   2.598   4.558   1.117 -0.1001  0.1146 -0.5224
13448TIP3    H261760   2.542   4.520   0.982 -0.6140  0.7293 -0.4860
13449TIP3   OH261761   1.829   1.544  11.959  0.4083  0.2770 -0.5671
13449TIP3    H161762   1.792   1.468  12.004 -0.2782  0.2256 -1.1929
13449TIP3    H261763   1.899   1.576  12.017  0.0097 -0.2031  0.1816
13450TIP3   OH261764   1.087   1.943  16.623 -0.1352  0.2562 -0.3793
13450TIP3    H161765   1.121   1.988  16.700 -0.9778  0.3764 -0.0622
13450TIP3    H261766   1.164   1.904  16.581  0.4417  0.9723  0.0073
13451TIP3   OH261767   4.212   1.280  13.261 -0.3270  0.2436 -0.5265
13451TIP3    H161768   4.270   1.234  13.322  1.4909  2.0827 -0.7651
13451TIP3    H261769   4.129   1.288  13.309  1.1754  2.1110  2.0744
13452TIP3   OH261770   6.498   4.078  12.671  0.4662 -0.7336  0.2151
13452TIP3    H161771   6.448   4.126  12.605 -0.0109 -0.9357  0.4309
13452TIP3    H261772   6.486   3.986  12.648  0.1274 -0.8152  0.7025
13453TIP3   OH261773   5.934   4.596   4.917 -0.2333  0.4493 -0.0931
13453TIP3    H161774   5.935   4.508   4.953  0.8015  0.0399 -1.0562
13453TIP3    H261775   5.919   4.653   4.992  0.5890 -0.4528  0.7793
13454TIP3   OH261776   5.158   1.969  16.038  0.0318 -0.0646  0.2510
13454TIP3    H161777   5.141   1.942  16.128  0.4165  0.1654  0.3944
13454TIP3    H261778   5.078   1.947  15.991 -0.3809  0.3260  0.7641
13455TIP3   OH261779   0.254   3.098  14.856 -0.1314  0.3042 -0.4447
13455TIP3    H161780   0.185   3.081  14.921 -1.3851  2.5478 -1.0634
13455TIP3    H261781   0.253   3.193  14.845  2.1501  0.2637 -1.5406
13456TIP3   OH261782   1.852   1.545  11.274  0.1626 -0.4283  0.1885
13456TIP3    H161783   1.857   1.453  11.300 -0.6409 -0.7093 -0.6008
13456TIP3    H261784   1.879   1.545  11.182  1.0573  0.2701  0.4304
13457TIP3   OH261785   1.472   6.127  16.955  0.0928  0.1375  0.0110
13457TIP3    H161786   1.461   6.046  16.905  0.6539 -0.3940  0.7195
13457TIP3    H261787   1.448   6.103  17.045 -1.0920  1.1207 -0.0126
13458TIP3   OH261788   1.666   3.317   6.154  0.4082 -0.6622 -0.7252
13458TIP3    H161789   1.707   3.398   6.125  0.6606 -0.3222  0.5127
13458TIP3    H261790   1.673   3.319   6.250 -1.5058 -1.1163 -0.5305
13459TIP3   OH261791   1.580   2.407  12.755 -0.2917  0.1426 -0.5816
13459TIP3    H161792   1.576   2.461  12.834 -1.5451  0.4885 -0.8623
13459TIP3    H261793   1.562   2.318  12.786  1.3415 -0.0970 -0.1879
13460TIP3   OH261794   4.527   1.473   6.395 -0.0698  0.4832 -0.6212
13460TIP3    H161795   4.495   1.484   6.485 -0.2350 -1.3940 -0.4062
13460TIP3    H261796   4.464   1.520   6.341 -0.7635  0.4508  0.1483
13461TIP3   OH261797   0.034   4.928   3.604 -0.7274 -0.0034  0.3118
13461TIP3    H161798   0.062   4.866   3.671 -0.3590 -0.6866 -0.4591
13461TIP3    H261799   0.024   5.011   3.651  1.7846  0.0998  0.7873
13462TIP3   OH261800   4.765   3.928   2.493 -0.6267 -0.1440 -0.5240
13462TIP3    H161801   4.756   3.870   2.570  0.0026  0.3328 -0.0833
13462TIP3    H261802   4.815   3.876   2.431 -0.3474 -0.1953 -0.2582
13463TIP3   OH261803   4.838   0.539   2.312  0.1211  0.1824 -0.3617
13463TIP3    H161804   4.762   0.555   2.368 -0.9577 -1.2449 -1.3315
13463TIP3    H261805   4.907   0.511   2.373 -0.7790 -0.5560  0.3647
13464TIP3   OH261806   6.525   0.506  16.383  0.1622 -0.7028 -0.2077
13464TIP3    H161807   6.501   0.581  16.328  0.2200  0.3694  1.1712
13464TIP3    H261808   6.442   0.473  16.417  0.2275 -0.3679  0.2928
13465TIP3   OH261809   6.460   1.487   0.563  0.7527  0.1439 -0.5808
13465TIP3    H161810   6.447   1.561   0.623  0.0405 -1.3000  1.1272
13465TIP3    H261811   6.550   1.460   0.578  1.1785  0.9166 -1.5731
13466TIP3   OH261812   6.274   0.147  14.660  0.2654  0.1845 -0.1164
13466TIP3    H161813   6.270   0.073  14.721 -0.7645  0.9993  0.8328
13466TIP3    H261814   6.354   0.194  14.685  0.1987  0.1477  0.1660
13467TIP3   OH261815   5.579   1.588  13.349 -0.3544 -0.0715 -0.2519
13467TIP3    H161816   5.641   1.634  13.292 -0.3530 -1.0004 -1.0137
13467TIP3    H261817   5.494   1.598  13.306 -0.9672  2.0007  1.2554
13468TIP3   OH261818   4.396   1.652  12.140 -0.3215 -0.6796  0.3590
13468TIP3    H161819   4.478   1.623  12.180 -1.1282 -0.1999  2.4985
13468TIP3    H261820   4.423   1.700  12.062  1.3654 -1.3566  0.4810
13469TIP3   OH261821   1.422   4.255   6.291 -0.3334 -0.6431 -0.1467
13469TIP3    H161822   1.400   4.321   6.225 -1.2177 -0.6529  0.1258
13469TIP3    H261823   1.505   4.285   6.328  0.1672 -0.6281 -1.2388
13470TIP3   OH261824   3.230   3.769  11.466  0.2328 -0.1620  0.1987
13470TIP3    H161825   3.324   3.772  11.452  0.0009  1.5170 -1.4266
13470TIP3    H261826   3.206   3.678  11.453  1.2429 -0.1342 -2.6365
13471TIP3   OH261827   3.703   4.026   0.990 -0.5001 -0.1965  0.5523
13471TIP3    H161828   3.723   4.018   0.896  4.1610 -0.0075  1.3341
13471TIP3    H261829   3.675   3.937   1.015 -0.0271 -0.7179 -0.6605
13472TIP3   OH261830   2.149   1.400   1.868  0.1248 -0.3603  0.1837
13472TIP3    H161831   2.241   1.380   1.886  0.1873 -0.5507 -0.3522
13472TIP3    H261832   2.127   1.468   1.933  0.3804 -0.9519  0.9105
13473TIP3   OH261833   1.679   6.794  13.765  0.2457  0.3951 -0.1504
13473TIP3    H161834   1.712   6.882  13.780 -1.2672  0.8134  1.0173
13473TIP3    H261835   1.673   6.755  13.852  0.3470 -0.6501 -0.5969
13474TIP3   OH261836   0.682   0.608   6.431  0.0368  0.2517  0.1133
13474TIP3    H161837   0.630   0.544   6.383 -0.6196  1.5815 -1.0214
13474TIP3    H261838   0.761   0.619   6.379 -0.3472  1.1607 -0.2920
13475TIP3   OH261839   4.220   2.374  12.366 -0.2832  0.6627 -0.0922
13475TIP3    H161840   4.173   2.387  12.283 -0.3822 -1.4892 -0.4323
13475TIP3    H261841   4.192   2.288  12.396 -0.8128  1.6840  2.6041
13476TIP3   OH261842   2.414   5.943   4.430 -0.5314  0.5322 -0.1929
13476TIP3    H161843   2.501   5.949   4.391  1.9586 -0.9835  4.3837
13476TIP3    H261844   2.407   6.020   4.486 -0.2145 -1.3285  2.5864
13477TIP3   OH261845   2.718   2.473  16.344 -0.3439 -0.1251 -0.2045
13477TIP3    H161846   2.627   2.475  16.373  0.2253 -0.1218  1.6651
13477TIP3    H261847   2.761   2.542  16.395  0.6734  0.0278 -1.2333
13478TIP3   OH261848   4.314   4.464  11.841  0.4363  0.3765  0.5113
13478TIP3    H161849   4.331   4.487  11.750  0.0261 -1.1032  0.0297
13478TIP3    H261850   4.401   4.443  11.876  0.4602 -0.2169  0.1088
13479TIP3   OH261851   2.949   4.851  13.124  0.1715 -0.6986 -0.1903
13479TIP3    H161852   2.940   4.894  13.039  1.0459 -1.8996 -0.9231
13479TIP3    H261853   3.041   4.824  13.127  0.2952 -0.1755  1.3944
13480TIP3   OH261854   1.087   6.083  10.994  0.1545  0.0985  0.4699
13480TIP3    H161855   1.075   5.994  10.962  0.1379  0.5146 -0.7014
13480TIP3    H261856   1.132   6.129  10.924 -2.0953  1.6961 -0.0394
13481TIP3   OH261857   0.989   4.360  15.074  0.2529 -0.4285 -0.1980
13481TIP3    H161858   0.986   4.320  14.987 -0.2359  0.6805 -0.7046
13481TIP3    H261859   0.945   4.444  15.063  0.8479  0.0463  0.9600
13482TIP3   OH261860   0.605   5.885   1.731  0.2160  0.3930 -0.3719
13482TIP3    H161861   0.636   5.817   1.671  0.9910  0.8116 -0.4679
13482TIP3    H261862   0.667   5.881   1.804  1.9449  2.7432 -1.5879
13483TIP3   OH261863   4.367   4.136   2.409  0.3765  0.3930 -0.3532
13483TIP3    H161864   4.359   4.087   2.490 -1.0886  1.5691  0.2576
13483TIP3    H261865   4.393   4.224   2.436  3.2843 -0.0306 -1.4512
13484TIP3   OH261866   1.421   0.825  11.156  0.2685 -0.0546 -0.0325
13484TIP3    H161867   1.410   0.904  11.104 -0.0456  0.8372  1.3265
13484TIP3    H261868   1.476   0.768  11.102 -1.1201  0.2552 -1.8939
13485TIP3   OH261869   1.434   3.544  16.997  0.5149  0.0168 -0.4910
13485TIP3    H161870   1.461   3.474  16.938  1.8148  1.3429 -1.5654
13485TIP3    H261871   1.401   3.613  16.938 -1.6026  0.0051  0.5701
13486TIP3   OH261872   1.785   3.499   2.647 -0.1696 -0.5095  0.5367
13486TIP3    H161873   1.706   3.530   2.692 -0.8937  1.7902 -1.9764
13486TIP3    H261874   1.817   3.577   2.601  4.4975 -0.9507  2.5341
13487TIP3   OH261875   4.598   2.106   6.514  0.0025  0.1762  0.2540
13487TIP3    H161876   4.569   2.068   6.431  2.3185 -1.1598 -0.0341
13487TIP3    H261877   4.585   2.200   6.503 -2.6520 -0.1778 -0.3597
13488TIP3   OH261878   5.987   0.844  12.588  0.6740 -0.0069 -0.1621
13488TIP3    H161879   6.010   0.787  12.661  1.7135 -0.6590 -0.9694
13488TIP3    H261880   6.007   0.932  12.620 -0.3531 -0.1212  0.8688
13489TIP3   OH261881   2.795   0.479   2.614 -0.5607 -0.0386  0.2492
13489TIP3    H161882   2.804   0.557   2.670 -1.6008  2.2666 -2.5133
13489TIP3    H261883   2.864   0.489   2.549 -1.3805 -0.8412 -0.7668
13490TIP3   OH261884   2.739   6.225  14.551 -0.8388 -0.2199  0.1313
13490TIP3    H161885   2.750   6.222  14.646 -1.4568  0.1362  0.2198
13490TIP3    H261886   2.747   6.318  14.529  1.6202 -0.5256 -0.4678
13491TIP3   OH261887   1.683   1.059   5.959  0.6640 -0.1552 -0.0226
13491TIP3    H161888   1.639   0.980   5.926 -1.3688  0.7920  0.3085
13491TIP3    H261889   1.708   1.107   5.880 -0.7967  0.2845 -0.2454
13492TIP3   OH261890   4.754   5.574   1.185 -0.2581 -0.2235  0.3757
13492TIP3    H161891   4.660   5.553   1.192 -0.2487 -1.3896 -1.9784
13492TIP3    H261892   4.786   5.516   1.117  2.0813  0.6011  0.6979
13493TIP3   OH261893   5.868   2.910   0.138 -0.3008 -0.7530  0.0551
13493TIP3    H161894   5.941   2.861   0.098  0.3089  0.2460 -0.0991
13493TIP3    H261895   5.851   2.865   0.220  1.0111 -0.5684  0.4522
13494TIP3   OH261896   1.294   1.590   2.583 -0.0635 -0.3081  0.5195
13494TIP3    H161897   1.339   1.508   2.563 -0.4828 -0.4157  0.0145
13494TIP3    H261898   1.210   1.584   2.537 -0.9590 -0.4524  2.1112
13495TIP3   OH261899   0.053   0.462  15.800 -0.3476 -0.1334 -0.1616
13495TIP3    H161900   0.003   0.459  15.881 -0.9343  0.9773 -0.4585
13495TIP3    H261901   0.143   0.443  15.826 -0.3713  1.1297  0.9105
13496TIP3   OH261902   2.704   1.220   4.252  0.8016  0.0698 -0.6455
13496TIP3    H161903   2.634   1.249   4.194  1.9661  1.0688 -1.6369
13496TIP3    H261904   2.712   1.290   4.317 -1.9310 -2.0224  2.1700
13497TIP3   OH261905   5.788   0.563   4.174 -0.4051  0.3459 -0.7282
13497TIP3    H161906   5.731   0.488   4.191 -0.7154  0.6999 -0.1616
13497TIP3    H261907   5.872   0.525   4.148  1.6368 -0.5848  5.5266
13498TIP3   OH261908   0.220   3.044  11.616 -0.4106  0.0656  0.9411
13498TIP3    H161909   0.155   3.075  11.679 -0.0410  2.0744  0.3959
13498TIP3    H261910   0.192   3.080  11.532  0.0838 -1.0920  0.2464
13499TIP3   OH261911   3.039   0.192  14.075  0.2251 -0.0527 -0.0918
13499TIP3    H161912   3.120   0.143  14.059  1.4837  1.9179 -0.1692
13499TIP3    H261913   2.969   0.133  14.047  1.4804 -2.5145  1.5836
13500TIP3   OH261914   0.347   6.773   5.010  0.2572  0.2294 -0.0922
13500TIP3    H161915   0.435   6.809   5.019  0.6725 -0.8763  0.3095
13500TIP3    H261916   0.295   6.822   5.074  0.7676  0.2638  0.2998
13501TIP3   OH261917   6.530   0.397   5.466  0.2718 -0.1120 -0.1063
13501TIP3    H161918   6.597   0.460   5.494 -1.3224  1.4399  0.3829
13501TIP3    H261919   6.564   0.362   5.383  1.3715  1.1637 -0.2278
13502TIP3   OH261920   4.806   3.425  16.075  0.5741  0.1145  0.3045
13502TIP3    H161921   4.829   3.430  15.983  1.3824  1.3777  0.5510
13502TIP3    H261922   4.890   3.421  16.121  0.2335  0.9656  1.0417
13503TIP3   OH261923   3.524   4.296   3.520 -0.5338 -0.7770 -0.1469
13503TIP3    H161924   3.443   4.260   3.555 -0.7871 -0.1571 -0.0962
13503TIP3    H261925   3.569   4.220   3.483  0.1247 -1.6062  2.1800
13504TIP3   OH261926   0.801   5.822   3.857 -0.1262 -0.4667 -0.5546
13504TIP3    H161927   0.834   5.910   3.840  1.1791 -0.4395  1.6740
13504TIP3    H261928   0.706   5.829   3.846  0.0010  1.0858 -0.8976
13505TIP3   OH261929   3.226   3.814  15.142  0.0859 -0.5861  0.4813
13505TIP3    H161930   3.304   3.760  15.137 -0.3963 -1.3306  0.8016
13505TIP3    H261931   3.157   3.759  15.104 -0.6025 -0.5580  1.6675
13506TIP3   OH261932   0.925   1.796  13.524 -0.4617  0.0486  0.7109
13506TIP3    H161933   0.978   1.792  13.444 -1.4977 -1.5234  0.0467
13506TIP3    H261934   0.918   1.889  13.543 -0.5408  0.5090 -1.2903
13507TIP3   OH261935   6.554   4.406  12.387  0.3684  0.6980 -0.3054
13507TIP3    H161936   6.469   4.376  12.355 -0.4378  1.5386  0.9636
13507TIP3    H261937   6.543   4.415  12.482  1.2391  2.7341 -0.3321
13508TIP3   OH261938   0.814   4.819   2.050  0.1129 -0.0280 -0.4676
13508TIP3    H161939   0.871   4.774   2.112  0.6130  1.6796  0.3970
13508TIP3    H261940   0.846   4.910   2.051 -0.1258  0.1339 -2.9405
13509TIP3   OH261941   4.942   3.153  11.764  0.0861  0.6087 -0.3019
13509TIP3    H161942   4.936   3.155  11.860 -0.1288  1.4720 -0.3191
13509TIP3    H261943   5.036   3.158  11.746  0.1222  0.5406 -0.1321
13510TIP3   OH261944   5.153   5.227   6.392  0.2139 -0.1449 -0.3668
13510TIP3    H161945   5.225   5.273   6.350  0.2849 -0.9700 -1.1868
13510TIP3    H261946   5.076   5.282   6.376 -0.0873 -1.2352 -3.1133
13511TIP3   OH261947   1.747   0.926  14.688 -0.4429 -0.0285  0.3125
13511TIP3    H161948   1.732   0.924  14.783  0.1602 -0.8804  0.3946
13511TIP3    H261949   1.684   0.863  14.653 -0.2870 -0.1224  0.2020
13512TIP3   OH261950   1.043   1.164  12.861  0.2090  0.2825 -0.0739
13512TIP3    H161951   1.037   1.103  12.787 -0.5087 -0.2788  0.4369
13512TIP3    H261952   0.952   1.189  12.879  0.4579  1.1906 -0.0084
13513TIP3   OH261953   6.132   4.601  11.398 -0.4244  0.1397  0.4637
13513TIP3    H161954   6.043   4.583  11.429 -0.9830  0.1017 -1.1061
13513TIP3    H261955   6.149   4.534  11.332  0.6833  0.2989  0.5705
13514TIP3   OH261956   4.654   4.148   2.603 -0.4927  0.0990  0.4868
13514TIP3    H161957   4.678   4.063   2.567 -1.9689 -0.5052  0.8624
13514TIP3    H261958   4.687   4.211   2.539 -0.2823 -0.8019 -0.3131
13515TIP3   OH261959   1.320   2.955  13.596  0.5205  0.5814  0.7960
13515TIP3    H161960   1.393   2.927  13.651  0.7089  0.1406  0.3334
13515TIP3    H261961   1.347   2.932  13.507 -0.4345 -0.1248  0.6788
13516TIP3   OH261962   0.333   0.979  13.962  0.2824 -0.2228  0.3190
13516TIP3    H161963   0.404   0.924  13.930 -0.1129 -0.5435 -0.0174
13516TIP3    H261964   0.371   1.026  14.037  1.0194  0.0427 -0.2052
13517TIP3   OH261965   3.218   3.191  14.645  0.6280  0.0916 -0.0453
13517TIP3    H161966   3.150   3.224  14.587  0.3608  0.2761  0.3641
13517TIP3    H261967   3.195   3.226  14.731  1.1129 -0.0336  0.1417
13518TIP3   OH261968   4.303   6.267   0.597 -0.3659  0.2626 -0.2657
13518TIP3    H161969   4.221   6.290   0.641 -0.5422 -2.8308  1.2674
13518TIP3    H261970   4.276   6.229   0.514 -0.2154  2.4397 -1.3873
13519TIP3   OH261971   0.427   2.029   1.927  0.6005 -0.0645  0.0771
13519TIP3    H161972   0.421   1.957   1.991  1.2153 -0.2197 -0.0305
13519TIP3    H261973   0.365   2.006   1.859 -0.5008  0.3948  0.8908
13520TIP3   OH261974   1.063   3.657   3.102 -0.1680 -0.4647  0.4459
13520TIP3    H161975   1.022   3.720   3.042 -1.8927 -0.4825  1.5299
13520TIP3    H261976   1.005   3.581   3.100  1.2814 -1.5982  0.0218
13521TIP3   OH261977   5.614   3.551  14.129 -0.0976  0.0496  0.0252
13521TIP3    H161978   5.698   3.591  14.150 -0.2349  0.1017  0.4944
13521TIP3    H261979   5.619   3.532  14.035 -0.2679  1.7557 -0.3702
13522TIP3   OH261980   6.637   5.186  13.800 -0.2033  0.6514 -0.1277
13522TIP3    H161981   6.587   5.135  13.863  0.7287 -0.9029 -0.5863
13522TIP3    H261982   6.725   5.149  13.803  0.5405  2.3022 -0.4420
13523TIP3   OH261983   3.572   2.820  15.992 -0.0356 -0.1798  0.5987
13523TIP3    H161984   3.633   2.891  16.013 -1.5042  0.5937  2.6283
13523TIP3    H261985   3.519   2.855  15.921 -0.0569  0.3674  0.8733
13524TIP3   OH261986   4.728   4.873  12.949  0.1333  0.2819 -0.0018
13524TIP3    H161987   4.793   4.803  12.936  1.7298  1.4688  1.2186
13524TIP3    H261988   4.763   4.947  12.900  1.0778  1.7042  2.6517
13525TIP3   OH261989   1.059   1.510   1.713 -0.2207 -0.0493 -0.7470
13525TIP3    H161990   0.967   1.484   1.716 -0.5897  1.2050 -0.6060
13525TIP3    H261991   1.103   1.450   1.773 -1.1802  0.1849  0.2253
13526TIP3   OH261992   5.188   1.134  16.892 -0.1182 -0.2499  0.3219
13526TIP3    H161993   5.144   1.205  16.846 -2.6392 -1.9591 -0.0874
13526TIP3    H261994   5.236   1.177  16.963  0.1276  1.9963 -1.1327
13527TIP3   OH261995   4.745   0.843  15.388 -0.1001  0.3166 -0.0483
13527TIP3    H161996   4.818   0.842  15.450  1.0621  0.6880 -1.3451
13527TIP3    H261997   4.681   0.902  15.428  0.8680  1.0103  0.5476
13528TIP3   OH261998   6.206   2.218   0.909 -0.2463  0.0368  0.4366
13528TIP3    H161999   6.293   2.179   0.919  0.5573  1.3847 -0.8731
13528TIP3    H262000   6.197   2.275   0.985  0.2541  0.2895  0.3132
13529TIP3   OH262001   2.386   3.986  15.199 -0.1112 -0.8666  0.3585
13529TIP3    H162002   2.424   3.966  15.114  0.3586  2.1508 -0.2495
13529TIP3    H262003   2.459   4.022  15.250 -0.7677 -1.0041  1.4238
13530TIP3   OH262004   6.627   4.606   1.025 -0.0221  0.3617 -0.1343
13530TIP3    H162005   6.679   4.620   0.945  0.8203  1.6782  0.6111
13530TIP3    H262006   6.604   4.513   1.023  2.1052 -0.1997 -0.6497
13531TIP3   OH262007   3.263   4.362  15.104 -0.4101 -0.5361  0.0753
13531TIP3    H162008   3.267   4.271  15.134  2.1298 -0.5657 -0.1278
13531TIP3    H262009   3.345   4.375  15.056 -1.1986  1.5645 -0.8162
13532TIP3   OH262010   4.983   1.047  15.706 -0.1507 -0.5108  0.0327
13532TIP3    H162011   5.074   1.073  15.722  0.2785 -1.8706 -0.1466
13532TIP3    H262012   4.972   1.054  15.611 -0.0318 -0.9711 -0.0173
13533TIP3   OH262013   4.839   3.436  11.026 -0.0314  0.4569 -0.9705
13533TIP3    H162014   4.778   3.440  10.953 -0.8397  2.6183 -0.2574
13533TIP3    H262015   4.885   3.520  11.024  0.3458  0.3288  0.6449
13534TIP3   OH262016   5.458   2.708   1.491  0.6381  0.1664  0.5360
13534TIP3    H162017   5.544   2.692   1.530  1.1289  0.0384 -0.5550
13534TIP3    H262018   5.473   2.704   1.396 -0.8961 -1.6287  0.3116
13535TIP3   OH262019   4.383   3.724  14.277  0.5080 -0.1955  0.6106
13535TIP3    H162020   4.331   3.664  14.330 -0.3951  0.8463  0.9402
13535TIP3    H262021   4.401   3.676  14.197  0.8715 -1.3584  1.3575
13536TIP3   OH262022   3.068   1.739   3.566 -0.3212  0.6725  0.1666
13536TIP3    H162023   3.034   1.777   3.485 -0.1317  0.8948  0.1909
13536TIP3    H262024   3.106   1.813   3.613  1.6631  0.1998 -0.5877
13537TIP3   OH262025   2.696   1.981  16.614  0.3786 -0.5741 -0.5481
13537TIP3    H162026   2.640   1.971  16.691  0.5350 -2.2615 -0.6276
13537TIP3    H262027   2.731   2.070  16.622 -0.7955 -0.1807  0.5122
13538TIP3   OH262028   3.788   5.355  16.114  0.1915 -1.1799 -0.0321
13538TIP3    H162029   3.708   5.331  16.067 -0.5968  1.2210 -0.0414
13538TIP3    H262030   3.826   5.426  16.062  1.4200 -1.1327  0.8846
13539TIP3   OH262031   5.101   3.399  16.186  0.0685  0.1292 -0.4146
13539TIP3    H162032   5.116   3.452  16.264  0.6224  1.4182 -1.3690
13539TIP3    H262033   5.132   3.453  16.113 -0.6442 -0.9465 -1.5641
13540TIP3   OH262034   5.082   5.038   0.061 -0.3145  0.4032  0.3126
13540TIP3    H162035   5.160   4.986   0.042 -0.6058  0.5690 -1.4677
13540TIP3    H262036   5.097   5.072   0.149  1.9235  0.9848 -0.2436
13541TIP3   OH262037   0.500   2.705  14.804 -0.0072  0.2967  0.6135
13541TIP3    H162038   0.418   2.751  14.786 -0.7861 -1.1971  0.1778
13541TIP3    H262039   0.504   2.636  14.737  1.9499  0.7490  0.2052
13542TIP3   OH262040   4.277   2.351  13.047 -0.0879  0.3467  0.2949
13542TIP3    H162041   4.237   2.373  13.131  0.9269 -0.2741  0.9652
13542TIP3    H262042   4.203   2.338  12.988 -0.7937  1.7150  0.8392
13543TIP3   OH262043   3.448   6.521   2.160 -0.2689  0.1872 -0.4721
13543TIP3    H162044   3.531   6.517   2.111 -0.7388  0.7225 -1.3375
13543TIP3    H262045   3.457   6.453   2.227  0.1341 -1.0736 -1.7353
13544TIP3   OH262046   1.469   5.838  12.803 -0.0734  0.0809  0.0136
13544TIP3    H162047   1.429   5.758  12.837  1.6306 -0.9182 -0.1848
13544TIP3    H262048   1.437   5.845  12.713  0.8718 -1.2148 -0.4494
13545TIP3   OH262049   5.602   1.979  15.075  0.0680  0.3265  0.0899
13545TIP3    H162050   5.673   1.983  15.139  0.0363 -0.9669  0.2358
13545TIP3    H262051   5.525   2.009  15.123 -0.2823 -2.1259  1.1974
13546TIP3   OH262052   1.814   1.328   4.453  0.3424  0.4062  0.1370
13546TIP3    H162053   1.736   1.334   4.398  0.0876 -0.7084  0.3450
13546TIP3    H262054   1.780   1.310   4.541  0.8353 -1.1202  0.0499
13547TIP3   OH262055   1.698   4.271   0.376  0.3860  0.7212 -0.1756
13547TIP3    H162056   1.626   4.228   0.422  1.6504 -0.5351  0.7137
13547TIP3    H262057   1.691   4.363   0.402 -0.7070  0.5636  0.1424
13548TIP3   OH262058   4.812   4.885  15.802 -0.2192  0.1546 -0.2134
13548TIP3    H162059   4.816   4.892  15.707 -2.1440 -2.1390 -0.5768
13548TIP3    H262060   4.731   4.931  15.826  0.6797  1.4504  0.4698
13549TIP3   OH262061   1.822   2.102  16.125 -0.0261  0.0987 -0.0676
13549TIP3    H162062   1.878   2.172  16.159  0.6740 -0.8411  0.8124
13549TIP3    H262063   1.880   2.049  16.071 -0.2891 -0.3642  0.0951
13550TIP3   OH262064   1.000   6.710   1.002 -0.2288 -0.2232  0.4229
13550TIP3    H162065   1.020   6.691   1.094  0.3532 -0.6101  0.2279
13550TIP3    H262066   0.906   6.725   0.999 -0.2492 -0.2275  1.0805
13551TIP3   OH262067   2.075   3.701  13.201  0.0264 -0.1851 -0.1947
13551TIP3    H162068   2.026   3.626  13.234  1.2333 -0.7583  0.3820
13551TIP3    H262069   2.163   3.690  13.238  0.3122  1.3480 -0.3685
13552TIP3   OH262070   6.422   1.415  17.020 -0.7658  0.3766 -0.5658
13552TIP3    H162071   6.340   1.383  16.980 -2.3223  0.7381  2.1105
13552TIP3    H262072   6.395   1.491  17.072  1.2453  0.3642  0.5821
13553TIP3   OH262073   4.162   3.349   2.574 -0.4306  0.3317  0.1214
13553TIP3    H162074   4.135   3.300   2.496 -1.0055  1.0337 -0.1329
13553TIP3    H262075   4.248   3.314   2.596  0.5772  1.4019 -1.9203
13554TIP3   OH262076   2.052   3.430  16.099 -0.2584  0.2721 -0.2341
13554TIP3    H162077   2.057   3.441  16.194  1.4196  1.2321 -0.3991
13554TIP3    H262078   2.138   3.395  16.074  0.1603  2.1112 -1.6217
13555TIP3   OH262079   5.424   2.609   2.391  0.4150  0.0383  0.1293
13555TIP3    H162080   5.437   2.703   2.406 -0.0099  0.1042  0.0984
13555TIP3    H262081   5.349   2.604   2.332 -0.5221 -0.3657  1.3095
13556TIP3   OH262082   1.293   4.282  12.611 -0.6478  0.4292 -0.0366
13556TIP3    H162083   1.353   4.356  12.621  0.3972 -0.6196  1.8244
13556TIP3    H262084   1.246   4.277  12.694 -0.6808 -1.0319 -0.1223
13557TIP3   OH262085   3.089   0.177  11.443  0.2269 -0.3198  0.0511
13557TIP3    H162086   3.105   0.083  11.455 -0.7985 -0.9238 -2.6487
13557TIP3    H262087   3.067   0.186  11.350 -0.3816  2.5090  0.3883
13558TIP3   OH262088   4.348   4.434   3.270  0.3696 -0.1326 -0.0008
13558TIP3    H162089   4.440   4.410   3.262 -0.1254 -2.2733  0.2251
13558TIP3    H262090   4.340   4.468   3.359  1.0579  0.7906 -0.2701
13559TIP3   OH262091   3.039   5.356  10.445  1.0411 -0.2177  0.5293
13559TIP3    H162092   3.073   5.432  10.493  1.6356 -0.2371  0.1539
13559TIP3    H262093   3.028   5.288  10.512 -2.1595  0.9925  1.3973
13560TIP3   OH262094   4.029   2.370  12.947 -0.4217 -0.5178 -0.2206
13560TIP3    H162095   3.971   2.366  13.023  0.4258 -1.6793  0.4092
13560TIP3    H262096   3.972   2.391  12.873 -1.4931 -0.7764  0.5170
13561TIP3   OH262097   5.121   4.032   0.681 -0.0059  0.1818 -0.1191
13561TIP3    H162098   5.062   3.970   0.638 -1.2794  0.8638  0.6142
13561TIP3    H262099   5.204   4.022   0.633  0.0846 -2.6003  0.4344
13562TIP3   OH262100   5.589   3.122   4.312  0.5913 -0.3112  0.3830
13562TIP3    H162101   5.621   3.036   4.285  0.4236  0.1511 -1.4360
13562TIP3    H262102   5.667   3.169   4.341  1.0996 -0.2323 -1.0609
13563TIP3   OH262103   6.421   6.447  14.981  0.4575  0.1100  0.4717
13563TIP3    H162104   6.463   6.462  14.897  0.5880 -1.5148  0.2163
13563TIP3    H262105   6.491   6.459  15.045  1.2113 -1.9319  0.0918
13564TIP3   OH262106   3.817   1.015  16.558 -0.5535  0.3992  0.2127
13564TIP3    H162107   3.850   1.017  16.648 -0.1169  1.2244  0.0446
13564TIP3    H262108   3.741   1.073  16.560 -1.6323 -0.9654  0.4386
13565TIP3   OH262109   6.539   1.468   0.893  0.1899 -0.6947  0.4963
13565TIP3    H162110   6.539   1.556   0.856  0.1601 -1.2401 -0.8664
13565TIP3    H262111   6.537   1.481   0.988 -2.3945  0.7464  0.3211
13566TIP3   OH262112   0.506   1.331  14.746  0.4319  0.0706  0.1421
13566TIP3    H162113   0.458   1.283  14.678  0.0722 -1.5428  1.4952
13566TIP3    H262114   0.468   1.419  14.743  0.1735 -0.0527 -1.4897
13567TIP3   OH262115   2.178   1.382   0.690  0.2922  0.1964  0.0282
13567TIP3    H162116   2.232   1.403   0.766 -0.2304 -0.6137  0.6379
13567TIP3    H262117   2.090   1.411   0.713 -0.2737 -1.7750  0.5602
13568TIP3   OH262118   0.328   3.813   0.056 -0.9850 -0.2720  0.3210
13568TIP3    H162119   0.361   3.903   0.061 -0.2733 -0.5048 -0.0032
13568TIP3    H262120   0.372   3.767   0.128  0.9657 -1.0494 -1.2571
13569TIP3   OH262121   4.093   6.811  16.274 -0.1050 -0.0309 -0.6525
13569TIP3    H162122   4.180   6.784  16.243 -0.3425 -0.0496 -1.3151
13569TIP3    H262123   4.037   6.735  16.259 -0.3916  0.2275 -0.8909
13570TIP3   OH262124   2.271   2.090   5.370 -0.4917  0.2195  0.7861
13570TIP3    H162125   2.335   2.144   5.322  1.3299 -1.8036  0.7728
13570TIP3    H262126   2.220   2.047   5.301  1.0150 -1.3922  0.5929
13571TIP3   OH262127   5.073   0.870  16.832 -0.5084 -0.0638  0.2803
13571TIP3    H162128   4.994   0.921  16.851 -0.2944  0.7033 -0.8006
13571TIP3    H262129   5.145   0.932  16.840  0.1067 -0.9538  2.1024
13572TIP3   OH262130   6.818   5.909  16.975 -0.0303 -0.8652  0.2372
13572TIP3    H162131   6.831   5.814  16.974  3.3884 -0.5630 -2.0781
13572TIP3    H262132   6.907   5.944  16.983 -1.1146  2.1460  0.0063
13573TIP3   OH262133   0.361   4.929   6.359  0.1575  0.4461  0.1187
13573TIP3    H162134   0.351   4.989   6.433  0.6164  0.8226 -0.1185
13573TIP3    H262135   0.327   4.977   6.284 -2.2553 -0.6908  0.4003
13574TIP3   OH262136   1.933   2.639  16.753 -0.0700 -0.7919 -0.1170
13574TIP3    H162137   1.847   2.679  16.763 -0.6869 -1.8760 -0.8678
13574TIP3    H262138   1.936   2.611  16.661  0.5235 -1.9907  0.2443
13575TIP3   OH262139   4.237   1.214   2.794  1.1999 -0.0492  0.4220
13575TIP3    H162140   4.173   1.197   2.864  1.4676  0.4743  0.8022
13575TIP3    H262141   4.282   1.130   2.782 -0.0079 -0.6126 -0.3303
13576TIP3   OH262142   6.637   2.109  14.664  0.6319 -0.8832  0.5326
13576TIP3    H162143   6.655   2.015  14.662  1.3169 -0.7555  0.5574
13576TIP3    H262144   6.710   2.149  14.618  0.2961 -0.3640  0.4372
13577TIP3   OH262145   1.859   1.496   0.392 -0.2395 -0.1203 -0.1620
13577TIP3    H162146   1.888   1.587   0.390  0.9432 -0.3912  1.7753
13577TIP3    H262147   1.912   1.452   0.326 -2.2838  0.8956 -2.6368
13578TIP3   OH262148   5.582   6.455   4.547  0.0775  0.7695 -0.2089
13578TIP3    H162149   5.515   6.387   4.552  1.3851 -0.5684 -0.2087
13578TIP3    H262150   5.593   6.484   4.637 -1.2752  1.8294 -0.3473
13579TIP3   OH262151   1.575   0.685   0.072 -0.0810 -0.1836  0.3773
13579TIP3    H162152   1.640   0.691   0.002 -0.1756  1.5634  0.3917
13579TIP3    H262153   1.618   0.724   0.148 -0.5841 -0.4941  0.8259
13580TIP3   OH262154   5.269   2.107  10.798 -0.6943  0.1313  0.5023
13580TIP3    H162155   5.361   2.132  10.794 -0.6546 -0.1216 -0.2292
13580TIP3    H262156   5.270   2.020  10.840 -0.4689 -0.4964 -0.7586
13581TIP3   OH262157   3.247   0.192   2.510  0.1538  0.6187 -0.1826
13581TIP3    H162158   3.266   0.265   2.569  0.4230 -0.1844  0.7459
13581TIP3    H262159   3.178   0.143   2.555  1.9248 -1.2717  0.5955
13582TIP3   OH262160   1.384   6.162  11.146  0.1934 -0.4669 -0.4475
13582TIP3    H162161   1.422   6.145  11.060 -1.6503 -0.4210 -1.3107
13582TIP3    H262162   1.290   6.154  11.133 -0.0943 -1.3024  1.7689
13583TIP3   OH262163   5.728   2.769   5.748  0.0805 -0.2623  0.0434
13583TIP3    H162164   5.690   2.683   5.766 -2.6381  0.4387 -1.6383
13583TIP3    H262165   5.794   2.753   5.681 -1.0853 -0.9777 -0.9722
13584TIP3   OH262166   3.815   6.690  11.065  0.1037  0.7826 -0.6838
13584TIP3    H162167   3.856   6.772  11.092  1.0323  0.1215 -0.0409
13584TIP3    H262168   3.767   6.713  10.986 -0.8138  2.2650  0.2349
13585TIP3   OH262169   4.858   1.387   5.215  0.3250 -0.0537  0.6243
13585TIP3    H162170   4.932   1.326   5.223  1.0020  0.8408  1.4531
13585TIP3    H262171   4.798   1.360   5.285 -0.1572 -0.7914 -0.0601
13586TIP3   OH262172   5.005   3.756   2.412  0.0078 -0.2563  0.2626
13586TIP3    H162173   5.037   3.672   2.446  0.4995  0.7989  2.5989
13586TIP3    H262174   5.064   3.821   2.449 -2.6735  1.4816  1.8499
13587TIP3   OH262175   3.893   5.935  11.823 -0.2904  0.2713 -0.2837
13587TIP3    H162176   3.934   5.966  11.903  2.3268 -0.7935 -1.1140
13587TIP3    H262177   3.862   5.847  11.844 -2.7009  1.2107  0.4546
13588TIP3   OH262178   6.754   3.962  14.220 -0.0013 -0.3840 -0.4660
13588TIP3    H162179   6.814   3.958  14.145  0.7275 -0.7369  0.1194
13588TIP3    H262180   6.776   4.045  14.263 -0.0643 -0.4218 -0.3604
13589TIP3   OH262181   6.554   0.843  13.505 -0.2190 -0.4056 -0.4824
13589TIP3    H162182   6.491   0.898  13.458  0.3971  0.6053 -0.1487
13589TIP3    H262183   6.590   0.900  13.572  0.9805 -0.9964 -0.5994
13590TIP3   OH262184   5.002   6.291  10.924  0.2360 -0.5300  0.4390
13590TIP3    H162185   5.066   6.287  10.995 -0.1310  1.4121  0.9562
13590TIP3    H262186   5.044   6.345  10.858  0.8093 -2.7984 -1.1555
13591TIP3   OH262187   3.207   1.507   3.473  0.1160 -0.2286 -0.4332
13591TIP3    H162188   3.151   1.577   3.505 -0.8445 -0.8874 -0.6236
13591TIP3    H262189   3.238   1.537   3.388  0.4457  0.3455 -0.1141
13592TIP3   OH262190   4.462   1.384   4.996 -0.5230  0.4690  0.2008
13592TIP3    H162191   4.462   1.322   5.069  1.2915 -0.6975 -0.7077
13592TIP3    H262192   4.501   1.464   5.033 -0.3564  0.1536  0.7183
13593TIP3   OH262193   5.467   6.604   2.124  0.6413  0.2869 -0.5475
13593TIP3    H162194   5.559   6.622   2.106  0.9349 -0.5027  0.1226
13593TIP3    H262195   5.463   6.509   2.137  0.2994  0.6205  2.5356
13594TIP3   OH262196   3.052   2.797   5.031  0.6222  0.1475  0.2510
13594TIP3    H162197   3.080   2.889   5.033  0.8518  0.0750  2.1225
13594TIP3    H262198   2.966   2.799   4.990  1.0922  1.0390 -0.7627
13595TIP3   OH262199   3.422   6.313   5.190  0.7149 -0.2451  0.0276
13595TIP3    H162200   3.401   6.257   5.264  0.5269  0.7418  0.7456
13595TIP3    H262201   3.505   6.278   5.157  1.2162 -0.2360  1.1988
13596TIP3   OH262202   4.104   2.238   3.255 -0.2976  0.0597  0.6771
13596TIP3    H162203   4.175   2.301   3.262  0.4308 -0.7807  1.1848
13596TIP3    H262204   4.074   2.226   3.345 -1.7795  1.1446  0.3664
13597TIP3   OH262205   3.655   2.992   4.676  0.0713 -0.0193  0.2987
13597TIP3    H162206   3.667   2.976   4.769 -0.6608 -1.6114  0.1359
13597TIP3    H262207   3.642   3.087   4.670  0.4883  0.1590  1.7528
13598TIP3   OH262208   2.149   6.812  13.075 -0.2849  0.3680  0.2209
13598TIP3    H162209   2.218   6.797  13.140  0.7350 -1.0885 -1.0964
13598TIP3    H262210   2.196   6.845  12.998 -1.1499  0.1100 -0.4347
13599TIP3   OH262211   4.970   0.384   4.890  0.7573  0.8248  0.1265
13599TIP3    H162212   5.065   0.392   4.898  0.7189  0.2190  1.3551
13599TIP3    H262213   4.935   0.442   4.958  0.2142  1.6116 -0.7938
13600TIP3   OH262214   1.965   5.496   5.812  0.1611  0.0196  0.2620
13600TIP3    H162215   2.028   5.453   5.871  2.0118  0.7015 -1.1287
13600TIP3    H262216   2.017   5.522   5.736 -2.1621 -1.0485 -1.8423
13601TIP3   OH262217   1.922   4.143   0.209 -0.5231  0.0852  0.5358
13601TIP3    H162218   1.925   4.169   0.117  1.6528 -0.0420  0.5161
13601TIP3    H262219   1.863   4.205   0.250 -0.0142  1.3606 -0.5940
13602TIP3   OH262220   3.809   0.764  15.147  0.0217 -0.0558 -0.0703
13602TIP3    H162221   3.905   0.767  15.152 -0.0491  1.6302  0.6662
13602TIP3    H262222   3.788   0.802  15.061 -0.0160  0.1305  0.0221
13603TIP3   OH262223   6.175   2.035   1.565 -0.1839  0.3832 -0.2947
13603TIP3    H162224   6.118   1.981   1.509 -0.4956 -0.1741  0.5450
13603TIP3    H262225   6.127   2.045   1.647  0.0744  1.5762 -0.2695
13604TIP3   OH262226   0.924   2.035   2.540  0.0777  0.4989 -0.0179
13604TIP3    H162227   0.836   2.010   2.512  0.3556 -0.1257 -0.3348
13604TIP3    H262228   0.934   2.126   2.510 -1.8647  1.9969  3.2796
13605TIP3   OH262229   5.424   5.188  10.957 -0.2935  0.0872  0.0398
13605TIP3    H162230   5.465   5.231  11.032 -3.0031  1.1770  1.0055
13605TIP3    H262231   5.439   5.248  10.884  1.2460 -0.3703 -0.0634
13606TIP3   OH262232   6.403   3.345  12.884 -0.1364 -0.9138  0.2514
13606TIP3    H162233   6.437   3.365  12.797  0.2172  0.2063  0.6289
13606TIP3    H262234   6.356   3.263  12.873 -0.4213 -0.5967 -1.0757
13607TIP3   OH262235   3.450   3.550  15.710 -0.7656  0.0466  0.3905
13607TIP3    H162236   3.483   3.516  15.626 -0.8648  2.8138 -0.8982
13607TIP3    H262237   3.478   3.485  15.774  2.1926 -0.6468 -1.3624
13608TIP3   OH262238   2.826   2.593  13.666 -0.1567 -0.2069 -0.1762
13608TIP3    H162239   2.876   2.518  13.635  1.2992  0.8722 -0.6016
13608TIP3    H262240   2.855   2.606  13.756 -0.1651  0.0115 -0.2024
13609TIP3   OH262241   2.695   4.101  16.492 -0.8114 -0.2500 -0.3889
13609TIP3    H162242   2.785   4.074  16.513 -1.1480 -0.7259  0.4966
13609TIP3    H262243   2.640   4.030  16.527 -1.5507  0.1989 -0.6207
13610TIP3   OH262244   1.843   1.544  13.493 -0.1033 -0.2208  0.7429
13610TIP3    H162245   1.784   1.620  13.492  0.2285  0.0359  0.1437
13610TIP3    H262246   1.925   1.576  13.456  0.3586 -0.6306  1.3882
13611TIP3   OH262247   6.402   3.059   4.465 -0.4839 -0.3048  0.0563
13611TIP3    H162248   6.378   2.967   4.462 -0.8422 -0.2546  1.0529
13611TIP3    H262249   6.319   3.106   4.464 -0.2980  0.0299 -0.7106
13612TIP3   OH262250   4.141   3.472   3.683 -0.1173 -0.7745 -0.6391
13612TIP3    H162251   4.050   3.473   3.655  0.3065  0.2518 -2.0726
13612TIP3    H262252   4.192   3.472   3.602  1.1593  0.0749  0.1271
13613TIP3   OH262253   1.897   0.004   0.469 -0.5650  0.1286  0.2795
13613TIP3    H162254   1.863   0.014   0.558  0.4551  0.6799  0.6251
13613TIP3    H262255   1.988  -0.023   0.481 -0.2219  0.8539 -0.5912
13614TIP3   OH262256   5.748   0.357   2.253  0.3384  0.2355 -0.4481
13614TIP3    H162257   5.801   0.437   2.249  0.3961  0.1566 -1.6273
13614TIP3    H262258   5.658   0.387   2.238  0.1572  0.2353  0.5232
13615TIP3   OH262259   3.057   3.090   3.245 -0.0958  0.1520  0.3380
13615TIP3    H162260   3.046   3.124   3.334  0.2452 -0.6912  0.7155
13615TIP3    H262261   3.146   3.057   3.243 -0.8506 -2.0817  0.5088
13616TIP3   OH262262   1.959   0.654   0.651  0.1935 -0.1745 -0.6033
13616TIP3    H162263   1.925   0.587   0.590 -0.2017  1.6998 -2.5738
13616TIP3    H262264   2.053   0.655   0.635  0.2630 -0.5490 -0.2393
13617TIP3   OH262265   4.429   1.296  15.527 -0.2087 -0.2431  0.0264
13617TIP3    H162266   4.339   1.324  15.546 -0.6016 -0.2543 -1.6332
13617TIP3    H262267   4.443   1.320  15.436  0.9140 -1.6888 -0.2299
13618TIP3   OH262268   3.856   0.273   6.277 -0.2939 -0.1432  0.2368
13618TIP3    H162269   3.817   0.286   6.363  0.8682  0.1237  0.7486
13618TIP3    H262270   3.812   0.196   6.242 -0.9564 -0.1064  0.9658
13619TIP3   OH262271   5.605   3.867   5.214  0.3047 -0.6996  0.2075
13619TIP3    H162272   5.684   3.902   5.174  0.5306 -1.0996  0.3090
13619TIP3    H262273   5.565   3.943   5.258  1.4188 -0.8055  1.4548
13620TIP3   OH262274   0.449   1.625   0.016  0.2478 -0.1948 -0.1271
13620TIP3    H162275   0.465   1.590   0.104 -0.0526  0.5484  0.2373
13620TIP3    H262276   0.425   1.717   0.032  1.1463  0.2134 -1.0458
13621TIP3   OH262277   2.335   3.167   5.913  0.2048  0.2371  0.2370
13621TIP3    H162278   2.385   3.233   5.960 -2.1040  1.4841  1.1314
13621TIP3    H262279   2.280   3.126   5.980 -0.1517 -0.8991 -0.7152
13622TIP3   OH262280   0.718   3.619  15.233 -0.0402  0.3116  0.0794
13622TIP3    H162281   0.791   3.633  15.172 -0.4304 -1.5159 -0.8793
13622TIP3    H262282   0.698   3.526  15.225 -0.3043  0.0728  2.8315
13623TIP3   OH262283   6.026   2.615  12.538  0.6778  0.1132 -0.6772
13623TIP3    H162284   6.045   2.521  12.535  0.4073  0.0474 -0.3507
13623TIP3    H262285   5.931   2.620  12.524  0.2986  0.1854  1.5798
13624TIP3   OH262286   0.079   6.802  11.151  0.0777 -0.6368 -0.1878
13624TIP3    H162287   0.152   6.740  11.156  0.3940 -0.2476  0.0511
13624TIP3    H262288   0.093   6.862  11.224 -0.7500 -0.8431  0.1571
13625TIP3   OH262289   3.323   2.290  11.264  0.5148 -0.2110  0.1083
13625TIP3    H162290   3.294   2.344  11.190  0.1196  0.2749  0.6137
13625TIP3    H262291   3.337   2.203  11.226  0.2372  0.0153 -0.5231
13626TIP3   OH262292   4.221   6.598  13.408 -0.2655 -0.2395  0.2696
13626TIP3    H162293   4.150   6.534  13.409 -0.2916 -0.2088  1.4880
13626TIP3    H262294   4.243   6.611  13.500 -0.7529  2.0416  0.1238
13627TIP3   OH262295   0.961   2.191   5.413  0.1128 -0.4736 -0.0613
13627TIP3    H162296   1.008   2.211   5.333 -0.7576 -2.8435 -1.2670
13627TIP3    H262297   1.015   2.125   5.457 -0.1124 -0.2388  0.5755
13628TIP3   OH262298   6.074   0.260   3.724  0.1976 -1.1837 -0.6081
13628TIP3    H162299   6.139   0.218   3.780 -0.4250  0.2982  1.3535
13628TIP3    H262300   5.995   0.207   3.735  0.1222 -0.9903 -0.2088
13629TIP3   OH262301   5.183   3.536  11.504  0.2020  0.2285 -0.1686
13629TIP3    H162302   5.119   3.560  11.437  0.3044  0.6504 -0.1182
13629TIP3    H262303   5.196   3.442  11.492  0.0982  0.2716 -0.6376
13630TIP3   OH262304   4.089   2.622   3.431 -0.1729 -0.2857 -0.2905
13630TIP3    H162305   4.093   2.528   3.451 -0.2987 -0.1078  0.6542
13630TIP3    H262306   4.025   2.629   3.360 -1.1795 -0.7975  0.5319
13631TIP3   OH262307   2.242   4.565   1.181  0.4379  0.4285 -0.1542
13631TIP3    H162308   2.305   4.603   1.242  0.2347  1.6699 -0.6783
13631TIP3    H262309   2.291   4.498   1.133  1.8632  2.4056 -1.6437
13632TIP3   OH262310   5.675   1.847  12.976  0.4709 -0.4650  0.6964
13632TIP3    H162311   5.742   1.821  12.912  0.2847 -1.9569  1.0633
13632TIP3    H262312   5.616   1.904  12.927  0.7810 -0.9465 -0.2628
13633TIP3   OH262313   2.740   2.356   3.933  0.1839 -0.2444  0.0288
13633TIP3    H162314   2.694   2.294   3.989  1.2009 -0.9590  0.1071
13633TIP3    H262315   2.719   2.442   3.970  0.1793 -0.6533  1.0077
13634TIP3   OH262316   2.781   0.027   3.959 -0.4394 -0.0587  0.3701
13634TIP3    H162317   2.731  -0.023   3.895 -0.0728  1.2499 -1.0037
13634TIP3    H262318   2.861  -0.025   3.972 -1.4536 -1.4136  1.4569
13635TIP3   OH262319   2.851   0.551   4.953 -0.0128  0.3468 -0.0241
13635TIP3    H162320   2.772   0.519   4.911 -0.9354  0.6646  1.3941
13635TIP3    H262321   2.840   0.528   5.046  0.0363  3.2144  0.7877
13636TIP3   OH262322   5.744   5.993   3.912  0.1354 -0.0571 -0.5324
13636TIP3    H162323   5.676   6.040   3.863  1.4067  2.0724 -0.3837
13636TIP3    H262324   5.802   5.959   3.844  2.0613  3.1439 -0.7003
13637TIP3   OH262325   4.416   0.715   5.473  0.4559  0.2501  0.2757
13637TIP3    H162326   4.391   0.688   5.562 -3.0619 -0.0653 -0.6236
13637TIP3    H262327   4.424   0.632   5.426  2.0012  0.4315  0.1848
13638TIP3   OH262328   4.826   3.105   5.730 -0.2293 -0.1572  0.3859
13638TIP3    H162329   4.876   3.032   5.694 -0.7449  0.7916 -2.5218
13638TIP3    H262330   4.891   3.157   5.777  1.1680 -0.0845 -1.4852
13639TIP3   OH262331   2.979   2.681   2.079 -1.3673 -0.3216  0.4296
13639TIP3    H162332   2.978   2.588   2.058  0.0458 -0.2983  0.1438
13639TIP3    H262333   3.062   2.713   2.043 -3.0249  1.6461 -1.9626
13640TIP3   OH262334   6.506   5.896  14.865  0.0375  0.0684 -0.3858
13640TIP3    H162335   6.429   5.840  14.861  0.4931 -0.8500  2.0665
13640TIP3    H262336   6.483   5.963  14.930  1.5406 -0.6829  0.9805
13641TIP3   OH262337   1.889   3.550   6.576  0.0063  0.0550 -0.0753
13641TIP3    H162338   1.897   3.631   6.627  1.4651 -0.5839  0.7940
13641TIP3    H262339   1.802   3.554   6.537  0.4819  2.6148 -1.0714
13642TIP3   OH262340   4.617   1.858  13.717 -0.2250  0.0364 -0.1849
13642TIP3    H162341   4.685   1.859  13.784 -1.3999  0.6831  1.0561
13642TIP3    H262342   4.625   1.773  13.675  2.3148  0.6652 -1.1226
13643TIP3   OH262343   0.796   2.863   1.020 -0.8283  0.0320  0.4706
13643TIP3    H162344   0.823   2.936   1.077 -1.1162 -0.9242  1.8701
13643TIP3    H262345   0.703   2.879   1.005 -0.8661  0.0227  0.6834
13644TIP3   OH262346   6.197   1.966   2.004  0.0870  0.2005 -0.2961
13644TIP3    H162347   6.138   1.943   2.076  0.1293 -1.6851 -0.7931
13644TIP3    H262348   6.145   2.022   1.947 -1.0933 -1.0386 -0.4849
13645TIP3   OH262349   5.136   0.797   2.773 -0.1792 -0.1390  0.2985
13645TIP3    H162350   5.183   0.781   2.854 -0.6058  2.1260  1.0651
13645TIP3    H262351   5.115   0.891   2.775 -2.9643 -0.6220 -0.9247
13646TIP3   OH262352   6.419   4.999  13.427  0.7198  0.4310 -0.0390
13646TIP3    H162353   6.476   4.978  13.353  1.4235  0.4710  0.4748
13646TIP3    H262354   6.352   5.055  13.391 -1.6967 -3.1360 -1.6588
13647TIP3   OH262355   0.298   2.638  14.492  0.6465 -0.3420  0.0102
13647TIP3    H162356   0.303   2.718  14.544  0.8483 -0.7215  0.5831
13647TIP3    H262357   0.259   2.666  14.409  1.8069  0.5753 -0.2527
13648TIP3   OH262358   2.114   5.339  15.267 -0.0611 -0.8350 -0.2553
13648TIP3    H162359   2.192   5.378  15.227 -0.8582 -0.0103 -1.0556
13648TIP3    H262360   2.144   5.254  15.301  0.9381 -1.0016 -1.4909
13649TIP3   OH262361   5.249   0.237   5.677 -0.4114 -0.4677  0.1060
13649TIP3    H162362   5.240   0.326   5.644 -0.8487 -0.2559  0.7777
13649TIP3    H262363   5.303   0.245   5.755  0.8239 -0.9989 -0.6555
13650TIP3   OH262364   0.816   3.432  12.856 -0.3846  0.3768  0.3986
13650TIP3    H162365   0.857   3.368  12.797 -1.4095  0.0802 -0.0331
13650TIP3    H262366   0.842   3.404  12.944  0.1109  0.0502  0.1523
13651TIP3   OH262367   4.631   1.540   0.210 -0.0560  0.1986  0.0520
13651TIP3    H162368   4.649   1.528   0.116  1.2203  0.8676  0.1839
13651TIP3    H262369   4.600   1.631   0.217  2.5453  1.1597  0.5553
13652TIP3   OH262370   0.181   0.364   0.265  0.1653  0.8268  0.1549
13652TIP3    H162371   0.189   0.333   0.175 -1.1740  0.8528  0.0127
13652TIP3    H262372   0.271   0.371   0.296  0.6186  0.2195 -0.9766
13653TIP3   OH262373   2.859   2.102   4.442  0.2740 -0.4059  0.4298
13653TIP3    H162374   2.793   2.168   4.463  0.6175  0.1723 -0.2527
13653TIP3    H262375   2.811   2.033   4.396 -0.3525 -1.3406  2.3555
13654TIP3   OH262376   1.167   3.002  10.704  0.0330  0.6539  0.2636
13654TIP3    H162377   1.159   3.054  10.784  2.1017  0.6209  0.5493
13654TIP3    H262378   1.205   3.062  10.640  2.5471 -0.4087  0.6221
13655TIP3   OH262379   6.495   0.513   0.565  0.5545 -0.1878  0.4882
13655TIP3    H162380   6.557   0.555   0.624  2.7301  0.2514 -1.9600
13655TIP3    H262381   6.533   0.428   0.546 -1.5509 -1.5314  1.8202
13656TIP3   OH262382   4.129   2.469  14.185  0.7977 -0.3083 -0.2207
13656TIP3    H162383   4.134   2.421  14.267  2.4922 -0.7961 -0.5707
13656TIP3    H262384   4.145   2.403  14.118  2.4292  0.5865 -0.7592
13657TIP3   OH262385   5.191   0.681   5.353 -0.5337  0.2148  0.1113
13657TIP3    H162386   5.116   0.716   5.401 -0.4738  1.5099 -0.6933
13657TIP3    H262387   5.266   0.696   5.411 -0.4950  1.5575 -0.2649
13658TIP3   OH262388   5.771   3.222   0.093  0.0211  0.2426 -0.1789
13658TIP3    H162389   5.752   3.164   0.020 -1.8986 -1.9916  1.8923
13658TIP3    H262390   5.721   3.302   0.075 -1.7445 -0.9061 -0.5877
13659TIP3   OH262391   0.916   2.953  12.951  0.5418 -0.2409  0.0541
13659TIP3    H162392   0.900   2.861  12.927  0.6771  0.2588 -2.1296
13659TIP3    H262393   0.902   3.002  12.870 -2.0128  2.0187  1.6995
13660TIP3   OH262394   3.497   2.093  14.470 -0.2072 -0.1645 -0.2697
13660TIP3    H162395   3.440   2.159  14.431  1.1334 -0.0163 -2.0961
13660TIP3    H262396   3.555   2.142  14.529 -1.0146 -0.1310  0.5191
13661TIP3   OH262397   5.320   5.137  14.047 -0.0703  0.0729  0.4013
13661TIP3    H162398   5.410   5.159  14.070 -0.2471 -0.4501  1.6874
13661TIP3    H262399   5.268   5.209  14.082 -0.2551 -0.2513  0.8048
13662TIP3   OH262400   0.884   2.106   0.556  0.3332 -0.3508  0.1316
13662TIP3    H162401   0.926   2.023   0.576  2.5841  1.3123  3.1650
13662TIP3    H262402   0.956   2.169   0.548 -1.3257  1.5779 -0.6504
13663TIP3   OH262403   5.426   2.129  15.218 -0.4382 -0.4730 -0.6318
13663TIP3    H162404   5.335   2.118  15.190 -0.5727 -0.9790 -0.0195
13663TIP3    H262405   5.421   2.173  15.303 -0.0176  1.2967 -1.4694
13664TIP3   OH262406   4.368   0.043   2.467 -0.2593  0.3532  0.0940
13664TIP3    H162407   4.311  -0.023   2.427  0.3673  0.4704 -1.0127
13664TIP3    H262408   4.309   0.117   2.485 -0.9077 -0.3688  1.0923
13665TIP3   OH262409   0.238   5.686  11.345 -0.9698  0.4904  0.3060
13665TIP3    H162410   0.266   5.721  11.260  0.4657  0.2168  0.6293
13665TIP3    H262411   0.158   5.637  11.325  0.2174 -0.9828 -1.2472
13666TIP3   OH262412   0.766   3.216  16.409  1.3995 -0.2223 -0.4215
13666TIP3    H162413   0.831   3.261  16.464  1.5469 -1.2498  0.2595
13666TIP3    H262414   0.793   3.237  16.319  1.7087  0.6975 -0.1270
13667TIP3   OH262415   3.925   4.829  13.053  0.3824 -0.4681 -0.2892
13667TIP3    H162416   3.872   4.897  13.011  0.5081  0.4081  0.9262
13667TIP3    H262417   4.014   4.866  13.055  0.7374 -1.2446 -0.8253
13668TIP3   OH262418   5.242   6.069  14.493 -0.1861 -0.1038  0.1928
13668TIP3    H162419   5.329   6.030  14.506 -0.2944 -0.2416  0.5203
13668TIP3    H262420   5.222   6.054  14.401 -0.7759 -1.9323  0.5929
13669TIP3   OH262421   6.142   5.471   0.574  0.5443 -0.2967  0.3119
13669TIP3    H162422   6.203   5.398   0.564  0.3970 -0.1770 -1.9714
13669TIP3    H262423   6.174   5.537   0.512 -0.7140  0.5808  0.5764
13670TIP3   OH262424   1.987   6.284   3.270  0.0324  0.0495 -0.1291
13670TIP3    H162425   1.909   6.235   3.296 -1.1605  0.6691 -2.3222
13670TIP3    H262426   2.048   6.217   3.239  0.7060 -0.5016  2.1959
13671TIP3   OH262427   4.315   5.710   2.348 -0.0007  0.3462 -0.0946
13671TIP3    H162428   4.342   5.776   2.412 -0.7090  0.2670  0.3052
13671TIP3    H262429   4.396   5.669   2.319  0.5248  1.9636 -0.9798
13672TIP3   OH262430   1.072   6.733  11.743 -0.4761  0.1227 -0.1436
13672TIP3    H162431   0.980   6.730  11.717 -0.0599  1.5763 -1.9818
13672TIP3    H262432   1.121   6.733  11.660  1.1912 -0.5345  0.7836
13673TIP3   OH262433   5.945   0.077   0.186 -0.5127  0.0331 -0.2182
13673TIP3    H162434   5.979   0.115   0.267  1.8229  1.4977 -1.7805
13673TIP3    H262435   5.952   0.147   0.121 -3.2940 -0.7500 -1.5294
13674TIP3   OH262436   3.757   5.941   0.858 -0.4980  0.6627  0.5836
13674TIP3    H162437   3.686   5.899   0.906 -0.7175  0.9437  0.5107
13674TIP3    H262438   3.749   5.905   0.769 -0.5535  0.6972  0.5742
13675TIP3   OH262439   3.451   3.234  11.275  0.1397 -0.2747  0.0757
13675TIP3    H162440   3.491   3.321  11.267 -0.3485  0.3721  3.2080
13675TIP3    H262441   3.378   3.236  11.213 -0.9310  2.3012  1.2491
13676TIP3   OH262442   1.863   3.233  13.424  0.1227 -0.7661  0.0002
13676TIP3    H162443   1.850   3.273  13.510  1.9666 -1.6607  0.7575
13676TIP3    H262444   1.947   3.268  13.394 -0.5669 -0.3389 -1.5530
13677TIP3   OH262445   0.443   6.293  11.252 -0.1966 -0.4435 -0.6768
13677TIP3    H162446   0.406   6.299  11.164 -0.8440 -0.6924 -0.4268
13677TIP3    H262447   0.534   6.323  11.242 -0.1152 -0.9472 -1.5150
13678TIP3   OH262448   6.233   2.522   0.431 -0.0751  0.1254  0.0849
13678TIP3    H162449   6.315   2.536   0.383  0.2206 -0.0311  0.5316
13678TIP3    H262450   6.240   2.433   0.465  0.1816  0.5740  1.2699
13679TIP3   OH262451   0.659   2.917   4.021 -0.1441  0.2176 -0.2364
13679TIP3    H162452   0.638   2.975   3.948  0.0309  0.6550  0.0590
13679TIP3    H262453   0.652   2.972   4.099 -0.5230 -0.2975  0.0952
13680TIP3   OH262454   2.645   3.462   2.620  0.0007  0.1683 -0.1346
13680TIP3    H162455   2.588   3.487   2.548 -1.4854  0.4254  1.0635
13680TIP3    H262456   2.732   3.457   2.582 -0.3097  2.7792 -1.4010
13681TIP3   OH262457   0.035   3.310   2.663  0.6637 -0.3988  0.2375
13681TIP3    H162458   0.098   3.241   2.681  1.4753  0.1144 -0.5342
13681TIP3    H262459   0.001   3.336   2.749  1.3863 -0.7889  0.6428
13682TIP3   OH262460   0.761   3.895   2.738  0.0852  0.2363 -0.0623
13682TIP3    H162461   0.714   3.947   2.803 -1.0405 -1.6679  0.7111
13682TIP3    H262462   0.706   3.900   2.660 -0.4216 -0.4047  0.2480
13683TIP3   OH262463   6.548   3.677  11.601 -0.4368 -0.3864  0.1610
13683TIP3    H162464   6.457   3.704  11.589 -0.4565 -0.6987 -0.4359
13683TIP3    H262465   6.548   3.628  11.683 -0.9309 -0.9351 -0.1648
13684TIP3   OH262466   2.714   1.201   5.569 -0.6391  0.3870 -0.2038
13684TIP3    H162467   2.666   1.151   5.634  0.2440  0.0693  0.2042
13684TIP3    H262468   2.727   1.141   5.496  2.3200 -0.7686  1.1295
13685TIP3   OH262469   2.597   1.803   5.758  0.5315  0.0667 -0.0150
13685TIP3    H162470   2.685   1.790   5.792  1.8467  3.7874 -1.4011
13685TIP3    H262471   2.610   1.834   5.669 -2.1019  1.5084 -0.0205
13686TIP3   OH262472   1.492   4.661   1.795 -0.5774 -0.1257  0.0446
13686TIP3    H162473   1.474   4.716   1.718 -0.2228 -2.4363 -1.8177
13686TIP3    H262474   1.506   4.574   1.759 -0.7615 -1.4084  2.8235
13687TIP3   OH262475   6.467   3.683   5.187  0.3702  0.6355  0.2857
13687TIP3    H162476   6.444   3.624   5.259  1.6777 -0.7146 -0.3688
13687TIP3    H262477   6.474   3.769   5.229 -0.5014  0.1640  1.4561
13688TIP3   OH262478   2.337   6.436   3.601  0.5106 -0.5785  1.1339
13688TIP3    H162479   2.286   6.482   3.667  0.6682  2.4992 -0.7170
13688TIP3    H262480   2.428   6.446   3.630  0.5529  0.4478  0.6787
13689TIP3   OH262481   2.151   0.317  16.899 -0.3141  0.3815 -0.3118
13689TIP3    H162482   2.201   0.369  16.962  1.0437 -1.2090 -0.0188
13689TIP3    H262483   2.129   0.237  16.946  0.4507 -0.7060 -1.7266
13690TIP3   OH262484   2.501   6.487   4.018 -0.1069  0.0949 -0.8108
13690TIP3    H162485   2.496   6.571   3.972 -0.1003 -0.8781 -2.6435
13690TIP3    H262486   2.481   6.509   4.109 -0.2692  2.0558 -1.2796
13691TIP3   OH262487   1.190   5.770   1.496  0.6070 -0.1528  0.2147
13691TIP3    H162488   1.149   5.813   1.571  1.0267  1.2934 -0.3477
13691TIP3    H262489   1.125   5.708   1.465 -0.3209  0.5893  0.6286
13692TIP3   OH262490   3.135   2.070  12.758 -0.0080  0.4869  0.1347
13692TIP3    H162491   3.188   1.994  12.783 -0.2770  0.1093 -0.4248
13692TIP3    H262492   3.186   2.113  12.689 -1.5239 -1.3053 -2.2630
13693TIP3   OH262493   3.989   4.975  14.753  0.5939  0.5283 -0.1405
13693TIP3    H162494   3.979   5.013  14.840  0.1110  1.3983 -0.5651
13693TIP3    H262495   3.900   4.951  14.726  0.8703 -0.8229  0.0681
13694TIP3   OH262496   5.388   5.296   6.290  0.5300 -0.1215  0.3467
13694TIP3    H162497   5.437   5.360   6.342 -1.3012  0.8044  1.0026
13694TIP3    H262498   5.428   5.212   6.312  2.4409  0.6671  0.0979
13695TIP3   OH262499   1.086   4.684   5.141 -0.1635  0.6623  1.1127
13695TIP3    H162500   1.125   4.622   5.079 -2.2374  0.4784 -0.0846
13695TIP3    H262501   1.142   4.762   5.135 -0.6848  0.9280 -1.5940
13696TIP3   OH262502   1.242   5.994   2.962  0.2665  0.0649  0.8802
13696TIP3    H162503   1.156   6.012   2.924  1.1187 -0.1772 -1.3132
13696TIP3    H262504   1.263   5.905   2.932  0.3937 -0.7494  3.2018
13697TIP3   OH262505   2.052   5.643  16.212  0.5050  0.2357 -0.2849
13697TIP3    H162506   1.966   5.620  16.245  1.9471 -2.7060  1.9493
13697TIP3    H262507   2.073   5.726  16.255 -0.9098  0.6510 -0.3535
13698TIP3   OH262508   2.959   2.996   2.016  0.3139 -0.3438  0.1571
13698TIP3    H162509   2.977   2.904   2.036 -1.4894 -0.9258 -0.6654
13698TIP3    H262510   2.868   2.997   1.985 -0.5310  2.0284  2.3017
13699TIP3   OH262511   5.187   6.488  11.201 -0.1183  0.4167 -0.2776
13699TIP3    H162512   5.161   6.421  11.264 -0.6791  1.5444  0.7329
13699TIP3    H262513   5.105   6.531  11.175 -0.1021 -0.9265 -2.9250
13700TIP3   OH262514   2.792   6.442  15.442 -0.3249  0.1056  0.4804
13700TIP3    H162515   2.829   6.377  15.502 -2.0396 -1.1368  0.2854
13700TIP3    H262516   2.721   6.483  15.492 -1.1988 -0.3237 -0.3729
13701TIP3   OH262517   4.832   2.396  12.229  0.5531 -0.1907  0.1091
13701TIP3    H162518   4.844   2.362  12.140 -1.0114  1.1193 -0.6600
13701TIP3    H262519   4.744   2.367  12.254 -0.3214  2.1090 -0.0883
13702TIP3   OH262520   0.673   3.508  15.855  0.4867 -0.4800 -0.0351
13702TIP3    H162521   0.757   3.465  15.838 -0.2214 -1.2799 -1.7539
13702TIP3    H262522   0.607   3.442  15.831 -0.6474  0.2689  0.9110
13703TIP3   OH262523   1.025   2.541  11.217  0.0790  1.0646 -0.3272
13703TIP3    H162524   1.056   2.602  11.151  1.4126  3.0955  1.9850
13703TIP3    H262525   0.963   2.592  11.269 -0.4629 -0.2541  0.3587
13704TIP3   OH262526   3.927   4.485  13.172  0.2149  0.6768 -0.3569
13704TIP3    H162527   3.914   4.559  13.231 -2.0015 -0.7267  1.0874
13704TIP3    H262528   3.844   4.437  13.176  1.2415 -1.3870 -1.9630
13705TIP3   OH262529   6.409   6.520  13.348 -0.2642  0.1735  0.3271
13705TIP3    H162530   6.337   6.567  13.306 -1.0494  1.0147  2.4649
13705TIP3    H262531   6.485   6.540  13.294 -0.7526  3.1705  0.5571
13706TIP3   OH262532   1.620   4.345  15.771 -0.4043 -0.8985  0.3247
13706TIP3    H162533   1.715   4.337  15.784 -0.2036 -0.2769 -0.6178
13706TIP3    H262534   1.604   4.440  15.769 -0.8791 -0.9825 -0.5258
13707TIP3   OH262535   5.782   6.712  15.464  0.3603  0.2774  0.4691
13707TIP3    H162536   5.783   6.625  15.424 -1.2257  0.7475 -0.6929
13707TIP3    H262537   5.777   6.772  15.390 -1.7496  1.2228  1.3122
13708TIP3   OH262538   2.124   5.671   5.090  1.2514 -0.0350 -0.2590
13708TIP3    H162539   2.038   5.706   5.067  1.0765 -0.3089 -0.0302
13708TIP3    H262540   2.163   5.738   5.146  1.2019  0.1085 -0.3965
13709TIP3   OH262541   5.375   1.739   5.993 -0.0179 -0.1275  0.0198
13709TIP3    H162542   5.462   1.700   5.978 -0.3410 -1.5960  1.7201
13709TIP3    H262543   5.382   1.781   6.079 -0.4397  1.5413 -0.7071
13710TIP3   OH262544   6.748   3.207  13.991 -0.1971 -0.1124 -0.0891
13710TIP3    H162545   6.698   3.155  13.927 -0.5771 -2.2735  1.8373
13710TIP3    H262546   6.839   3.182  13.976 -0.0482  0.8850 -1.0196
13711TIP3   OH262547   3.683   2.205   4.305  0.3819 -0.0215 -0.3075
13711TIP3    H162548   3.753   2.267   4.284 -0.0784 -0.1778 -2.5584
13711TIP3    H262549   3.610   2.231   4.249 -0.7784 -0.9121  0.7350
13712TIP3   OH262550   3.532   5.895  14.339  0.0478  0.0531 -0.7204
13712TIP3    H162551   3.530   5.861  14.250  1.0261 -0.0671 -0.7029
13712TIP3    H262552   3.464   5.963  14.341 -0.1869 -0.1535 -1.4585
13713TIP3   OH262553   4.374   4.508   5.670  0.0817 -0.0502 -0.3435
13713TIP3    H162554   4.297   4.482   5.618 -0.1520  1.7195 -0.9462
13713TIP3    H262555   4.404   4.589   5.629  2.3706 -0.7400 -0.1882
13714TIP3   OH262556   3.201   4.749   1.631 -0.4058 -0.2208 -0.4106
13714TIP3    H162557   3.160   4.725   1.714  0.9774 -0.1260  0.3397
13714TIP3    H262558   3.227   4.665   1.592 -0.2967 -0.2222 -0.3352
13715TIP3   OH262559   6.017   0.733   4.149  0.2818  0.8592 -0.2087
13715TIP3    H162560   5.938   0.679   4.143  2.2462 -2.4415  0.7857
13715TIP3    H262561   6.050   0.738   4.060 -0.6893  1.7740 -0.5394
13716TIP3   OH262562   1.626   2.460   1.657  0.4421  0.4755 -0.0781
13716TIP3    H162563   1.623   2.529   1.723  1.9699  1.9286 -1.4103
13716TIP3    H262564   1.601   2.504   1.576  1.4194 -0.5266 -0.9633
13717TIP3   OH262565   2.985   3.382   3.943 -0.4312  0.4630 -0.1651
13717TIP3    H162566   3.010   3.441   4.013 -2.1532 -0.6213  1.4521
13717TIP3    H262567   2.915   3.428   3.896 -0.4044  0.5220 -0.1470
13718TIP3   OH262568   2.166   3.648   3.976 -0.8088  0.0814  0.1267
13718TIP3    H162569   2.134   3.660   4.065 -1.2370  1.4483 -0.1879
13718TIP3    H262570   2.097   3.599   3.932 -2.5700  2.8839 -0.5128
13719TIP3   OH262571   6.738   0.306  15.627 -0.3313 -0.5012  0.6560
13719TIP3    H162572   6.709   0.356  15.551  2.3152 -1.8380 -1.4031
13719TIP3    H262573   6.796   0.366  15.674  1.0611 -0.8560 -0.5586
13720TIP3   OH262574   2.971   6.100  16.068 -0.2453  0.0623  0.0232
13720TIP3    H162575   2.961   6.008  16.094 -2.2241 -0.7003 -2.8880
13720TIP3    H262576   2.889   6.142  16.097 -0.6391  0.1590 -1.1662
13721TIP3   OH262577   4.028   2.839   4.301 -0.6225  0.2216  0.2169
13721TIP3    H162578   3.988   2.832   4.215 -0.3891 -0.3483  0.1543
13721TIP3    H262579   4.104   2.782   4.298 -0.9612 -0.2869  0.9956
13722TIP3   OH262580   6.363   0.174  15.279 -0.0115 -0.1597  0.2856
13722TIP3    H162581   6.285   0.146  15.230  0.2883 -0.6131  0.0503
13722TIP3    H262582   6.421   0.209  15.212  0.4683 -0.9349  0.2862
13723TIP3   OH262583   1.527   4.648  12.049  0.0131 -0.0868  0.4376
13723TIP3    H162584   1.543   4.583  12.118  0.0473 -0.5787 -0.0294
13723TIP3    H262585   1.477   4.716  12.093 -0.1752 -0.5080  0.8983
13724TIP3   OH262586   2.203   3.429  13.486  0.0486  0.1098 -0.1614
13724TIP3    H162587   2.179   3.383  13.406  1.0329  0.5718 -0.7325
13724TIP3    H262588   2.298   3.440  13.481  0.1594 -0.0308  1.1628
13725TIP3   OH262589   2.458   3.345  13.040  0.0604  0.0187 -0.0556
13725TIP3    H162590   2.470   3.413  13.106  0.3072 -1.3735  1.3843
13725TIP3    H262591   2.544   3.302  13.033  0.2052  0.4916 -1.7211
13726TIP3   OH262592   3.498   0.210   2.388 -0.2760  0.4259  0.7149
13726TIP3    H162593   3.551   0.229   2.466 -0.3840 -0.6496  1.0669
13726TIP3    H262594   3.411   0.192   2.422 -0.0098 -1.4386  0.5207
13727TIP3   OH262595   4.636   4.331   3.733  0.1482  0.0328  0.4799
13727TIP3    H162596   4.724   4.355   3.762 -0.5880  1.0857  2.0181
13727TIP3    H262597   4.614   4.254   3.784  0.3581 -0.5518 -0.2943
13728TIP3   OH262598   1.522   5.155   6.006 -0.3245  0.0443 -0.0986
13728TIP3    H162599   1.527   5.062   5.981 -1.2082  0.3369 -1.4492
13728TIP3    H262600   1.592   5.166   6.071  0.2064 -1.4195 -0.3833
13729TIP3   OH262601   0.479   1.710  12.299 -0.2733 -0.0602 -0.4176
13729TIP3    H162602   0.492   1.736  12.390 -1.3479  1.8214 -0.7437
13729TIP3    H262603   0.497   1.616  12.298 -1.0635 -0.3078  1.9103
13730TIP3   OH262604   4.185   0.031   0.839  0.5013  0.2638  0.2149
13730TIP3    H162605   4.134  -0.049   0.848 -0.3024  0.3157 -2.7811
13730TIP3    H262606   4.243   0.032   0.916  0.1245 -2.8545  0.6491
13731TIP3   OH262607   3.325   6.428  12.064  0.1268  0.8624 -0.1863
13731TIP3    H162608   3.363   6.478  11.992 -0.4323  2.2899  0.4674
13731TIP3    H262609   3.285   6.494  12.120  0.8964 -0.1670  1.6511
13732TIP3   OH262610   4.441   0.522   4.153 -0.4125  0.4281  0.0803
13732TIP3    H162611   4.441   0.444   4.207  0.8779  1.7571  2.1515
13732TIP3    H262612   4.523   0.517   4.103 -1.1699 -0.3506 -1.1388
13733TIP3   OH262613   1.356   2.490  14.857  0.5190 -0.1938 -0.9161
13733TIP3    H162614   1.391   2.495  14.768  1.0003  0.5443 -0.7006
13733TIP3    H262615   1.293   2.419  14.855  1.0971 -0.6950 -1.6527
13734TIP3   OH262616   5.269   5.053  16.072  0.2908  0.2597  0.0119
13734TIP3    H162617   5.262   5.105  15.992 -0.1152  1.1942  0.6425
13734TIP3    H262618   5.348   5.000  16.059  0.2532  0.4344 -0.9803
13735TIP3   OH262619   4.959   2.329   5.127 -0.0303  0.4082 -0.0397
13735TIP3    H162620   5.040   2.337   5.077 -0.3699  0.8657 -0.5291
13735TIP3    H262621   4.929   2.419   5.139 -0.1591  0.2769  0.6548
13736TIP3   OH262622   1.086   5.404  12.829  0.0128  0.0988  0.1373
13736TIP3    H162623   1.087   5.328  12.771  0.4443  0.5405 -0.4495
13736TIP3    H262624   1.074   5.367  12.916  1.6362 -0.7807  0.0321
13737TIP3   OH262625   1.623   0.715   3.610 -0.3713  0.5995 -0.4578
13737TIP3    H162626   1.719   0.712   3.603 -0.0614  2.3650  1.5252
13737TIP3    H262627   1.603   0.659   3.685 -0.8770  0.3222 -0.7981
13738TIP3   OH262628   3.133   6.034  13.029  0.8261 -0.7245 -0.4047
13738TIP3    H162629   3.089   6.079  12.956  0.9860  1.4352  0.7516
13738TIP3    H262630   3.226   6.049  13.012  0.8798 -0.5957  0.0039
13739TIP3   OH262631   4.888   0.342  12.285  0.2868 -0.0864  0.1221
13739TIP3    H162632   4.913   0.265  12.335  1.6929 -0.4445 -1.0768
13739TIP3    H262633   4.881   0.312  12.195 -1.1182  0.7800 -0.0994
13740TIP3   OH262634   3.563   6.608  10.703  0.7948  0.0968 -0.0664
13740TIP3    H162635   3.635   6.646  10.651  0.4592  0.0458 -0.5674
13740TIP3    H262636   3.546   6.674  10.771  0.4788  0.6780 -0.6988
13741TIP3   OH262637   2.715   3.444   5.399 -0.1249 -0.1488 -0.4112
13741TIP3    H162638   2.712   3.462   5.305 -0.6604 -2.8191 -1.0060
13741TIP3    H262639   2.624   3.447   5.427 -0.0559 -0.1860 -0.1803
13742TIP3   OH262640   4.723   5.227  11.310 -0.2254 -0.2974 -0.4029
13742TIP3    H162641   4.749   5.318  11.298  1.6834 -0.6112  0.8615
13742TIP3    H262642   4.751   5.183  11.230  1.2490 -0.1911  0.0125
13743TIP3   OH262643   3.780   2.713  16.936 -0.2812  0.7488  0.0666
13743TIP3    H162644   3.756   2.766  16.860 -0.8505 -0.3413 -0.5371
13743TIP3    H262645   3.799   2.627  16.901 -1.5188 -0.0583  1.2386
13744TIP3   OH262646   3.722   6.395  15.941  0.0905  0.0470  0.2832
13744TIP3    H162647   3.736   6.445  16.021 -2.8430 -0.0369  0.9720
13744TIP3    H262648   3.651   6.441  15.896 -0.2352 -1.4779 -0.8566
13745TIP3   OH262649   1.615   6.409   4.919  0.4290 -0.0137  0.1413
13745TIP3    H162650   1.690   6.467   4.930  1.0549 -0.2863 -2.0900
13745TIP3    H262651   1.575   6.437   4.836 -1.2740 -0.5914  0.7231
13746TIP3   OH262652   4.468   2.415   2.430 -0.6865  0.8498  0.3781
13746TIP3    H162653   4.526   2.486   2.458  0.8808 -0.2392  0.0173
13746TIP3    H262654   4.383   2.457   2.417  0.1416  2.6078  0.4019
13747TIP3   OH262655   3.475   5.998   3.597  0.0499  0.4913  0.5789
13747TIP3    H162656   3.414   6.063   3.561  0.4441  0.9038  0.6496
13747TIP3    H262657   3.538   6.050   3.647  0.0386  0.0007  1.1069
13748TIP3   OH262658   0.207   0.542  11.665  0.7589  0.1708 -0.6526
13748TIP3    H162659   0.279   0.510  11.611  1.8849  1.0822  0.2649
13748TIP3    H262660   0.128   0.510  11.621  1.6657  0.0822 -2.2907
13749TIP3   OH262661   5.901   5.328  10.475  0.3056  0.0913  0.3279
13749TIP3    H162662   5.891   5.233  10.475 -0.4849  0.1669 -0.2296
13749TIP3    H262663   5.991   5.342  10.503  0.1170 -0.7813  1.4655
13750TIP3   OH262664   3.430   0.943  12.124 -0.0500  0.2085 -0.2707
13750TIP3    H162665   3.355   1.001  12.140 -0.4478 -0.3743  0.0185
13750TIP3    H262666   3.420   0.873  12.189  0.6511  0.0333 -0.3491
13751TIP3   OH262667   4.549   4.358   0.275 -0.0128  0.3616  0.3075
13751TIP3    H162668   4.640   4.368   0.305 -0.0471  0.6599  0.3151
13751TIP3    H262669   4.556   4.322   0.187  0.1036  0.0309  0.4468
13752TIP3   OH262670   5.799   0.287  13.422  0.0357 -0.0077  0.4464
13752TIP3    H162671   5.793   0.383  13.417 -1.7796  0.0651  2.5653
13752TIP3    H262672   5.711   0.256  13.404  0.1256 -1.1546  1.8202
13753TIP3   OH262673   0.446   5.542   2.779  0.1312  0.6515  0.3198
13753TIP3    H162674   0.488   5.496   2.851  1.1737  1.2412  0.1080
13753TIP3    H262675   0.496   5.517   2.701  0.2793  1.5642  0.1006
13754TIP3   OH262676   4.275   6.674   6.335  0.4704 -0.3901  0.3333
13754TIP3    H162677   4.300   6.747   6.278  1.2765 -0.7461  0.2122
13754TIP3    H262678   4.356   6.652   6.382 -0.3525  0.4839  2.2950
13755TIP3   OH262679   6.192   6.344   3.434 -0.5751 -0.4838 -0.3061
13755TIP3    H162680   6.223   6.336   3.344  1.9629  0.8548  0.3506
13755TIP3    H262681   6.226   6.428   3.464  0.1981 -1.6477  2.4268
13756TIP3   OH262682   6.101   1.606  14.626  0.4510  0.1719 -0.1024
13756TIP3    H162683   6.032   1.665  14.654 -1.1999 -1.3341 -0.7944
13756TIP3    H262684   6.093   1.530  14.684  0.5883 -0.6196 -1.0850
13757TIP3   OH262685   6.364   1.257   5.429  0.3622  0.1867 -0.5976
13757TIP3    H162686   6.288   1.309   5.457  0.4045 -0.1614  0.1877
13757TIP3    H262687   6.412   1.240   5.510  2.0267  1.5530 -1.2373
13758TIP3   OH262688   2.749   0.966   2.255  0.8657 -0.0864  0.4321
13758TIP3    H162689   2.743   1.060   2.237  1.4310 -0.3110 -1.1200
13758TIP3    H262690   2.821   0.958   2.317  0.0626  0.5831  1.5009
13759TIP3   OH262691   0.572   6.575  11.734 -0.6821 -0.0324 -0.2448
13759TIP3    H162692   0.594   6.486  11.760 -0.1830  0.5981  1.6140
13759TIP3    H262693   0.479   6.584  11.756 -0.5193  0.1655  0.3841
13760TIP3   OH262694   0.061   4.679  15.056 -0.0395  0.5744  0.5362
13760TIP3    H162695   0.070   4.695  15.150  0.5231 -1.2570  0.8387
13760TIP3    H262696  -0.032   4.665  15.043  0.1717 -2.1748  1.4256
13761TIP3   OH262697   5.226   2.090   0.754 -0.0170 -0.4799 -0.3312
13761TIP3    H162698   5.205   2.148   0.827 -1.4391  1.2937 -2.0399
13761TIP3    H262699   5.142   2.052   0.728  0.1706  0.1417 -1.9812
13762TIP3   OH262700   6.055   5.107   2.153 -0.1326 -0.2200  0.2483
13762TIP3    H162701   6.021   5.153   2.076 -0.7119 -0.5035  0.3296
13762TIP3    H262702   6.057   5.175   2.222  0.3760  0.0299 -0.0079
13763TIP3   OH262703   1.690   5.947   4.066 -0.0069 -0.1576 -0.4163
13763TIP3    H162704   1.729   5.911   4.146  1.3928  0.6654 -0.6951
13763TIP3    H262705   1.602   5.973   4.092  0.5308  0.3981  0.9590
13764TIP3   OH262706   0.331   4.567   1.408 -0.1426 -0.4867 -0.1622
13764TIP3    H162707   0.266   4.569   1.338  0.2398 -0.1012 -0.5104
13764TIP3    H262708   0.415   4.552   1.363  0.2063  0.5093  0.1294
13765TIP3   OH262709   1.670   6.766   0.009  0.2354  0.3927  0.0871
13765TIP3    H162710   1.736   6.814   0.059  0.1419  1.1645 -0.5104
13765TIP3    H262711   1.718   6.694  -0.031  0.0245 -1.2470  2.5720
13766TIP3   OH262712   3.375   2.264  11.694  0.4731  0.2247  0.4763
13766TIP3    H162713   3.461   2.304  11.694  0.7401 -0.3334  1.4090
13766TIP3    H262714   3.330   2.305  11.620  0.7390  2.2051  1.3555
13767TIP3   OH262715   0.952   0.644   0.637  0.6822 -0.1228  0.2730
13767TIP3    H162716   0.930   0.553   0.622 -0.1363  0.3362 -1.6686
13767TIP3    H262717   0.933   0.660   0.730 -2.8690 -0.9594 -0.2009
13768TIP3   OH262718   1.040   3.711   5.825 -0.1838 -0.0249 -0.0385
13768TIP3    H162719   0.963   3.655   5.820 -0.0747 -0.1380 -0.5416
13768TIP3    H262720   1.020   3.774   5.894 -0.7733  0.0125 -0.2380
13769TIP3   OH262721   4.334   4.899   2.148  0.0721  0.6076 -0.6473
13769TIP3    H162722   4.287   4.859   2.221  2.2951  0.2837  0.7029
13769TIP3    H262723   4.304   4.990   2.146 -0.9831  0.2772 -0.2001
13770TIP3   OH262724   0.757   3.581  12.002  0.1958 -0.0103 -0.1654
13770TIP3    H162725   0.766   3.554  12.094 -0.9200 -2.7167 -0.7357
13770TIP3    H262726   0.685   3.644  12.003  0.3819  0.2051  0.8594
13771TIP3   OH262727   5.335   3.771   1.774 -0.3779 -0.5235 -0.4131
13771TIP3    H162728   5.375   3.857   1.760 -0.4996 -0.3893  0.0774
13771TIP3    H262729   5.381   3.735   1.850  0.9416 -1.6534 -1.6901
13772TIP3   OH262730   2.094   5.855   1.440 -0.0832  0.1926 -0.2788
13772TIP3    H162731   2.028   5.786   1.432  0.3743 -0.4697  1.2720
13772TIP3    H262732   2.178   5.809   1.436  0.2313  0.6567  0.6060
13773TIP3   OH262733   0.464   3.725   3.023  0.3858  0.0420  0.5132
13773TIP3    H162734   0.488   3.778   3.099  2.7319  0.4106 -0.4055
13773TIP3    H262735   0.393   3.774   2.982  0.4923  0.9240  1.3308
13774TIP3   OH262736   4.396   4.159  11.375 -0.6168  0.2132 -0.2430
13774TIP3    H162737   4.350   4.139  11.458 -1.0440  1.9342 -0.0321
13774TIP3    H262738   4.466   4.094  11.371  0.7652  1.3508  2.5677
13775TIP3   OH262739   6.674   4.092   1.815  0.3728  0.0999  0.1734
13775TIP3    H162740   6.617   4.066   1.887  1.8271 -0.2648  1.2420
13775TIP3    H262741   6.698   4.183   1.836  2.3804 -0.6259  1.2877
13776TIP3   OH262742   0.704   0.721  15.589  0.2160 -0.0128 -0.5949
13776TIP3    H162743   0.671   0.773  15.516 -0.1296  0.3371 -0.1914
13776TIP3    H262744   0.700   0.630  15.557 -0.8800  0.0477 -0.6552
13777TIP3   OH262745   6.752   5.336  16.441 -0.6032 -0.0116  0.7879
13777TIP3    H162746   6.659   5.323  16.462 -0.1298 -1.6785  2.0958
13777TIP3    H262747   6.798   5.273  16.496  1.1067 -1.5115 -2.0729
13778TIP3   OH262748   2.699   0.262  17.028  0.6113  0.4278 -0.5837
13778TIP3    H162749   2.665   0.323  17.093 -1.4448  1.4324 -2.4979
13778TIP3    H262750   2.792   0.252  17.052 -0.0816  0.4826  2.6246
13779TIP3   OH262751   2.164   1.743  14.281  0.2979 -0.4905  0.0401
13779TIP3    H162752   2.152   1.654  14.315  2.2757 -1.5279 -1.7353
13779TIP3    H262753   2.146   1.735  14.187 -1.8892  1.5842  0.1768
13780TIP3   OH262754   3.115   0.917   2.132  0.4891 -0.2694  0.1201
13780TIP3    H162755   3.108   0.961   2.048  0.3447  0.7242  0.6346
13780TIP3    H262756   3.038   0.860   2.136  0.5718 -0.4252 -0.4764
13781TIP3   OH262757   3.804   1.279  11.874  0.1567  0.1345 -0.1738
13781TIP3    H162758   3.870   1.285  11.805  1.0669  0.9965  0.7345
13781TIP3    H262759   3.779   1.186  11.874 -1.1206  0.3811 -2.7322
13782TIP3   OH262760   1.608   6.658  14.413 -0.7885  0.0156  0.1624
13782TIP3    H162761   1.663   6.727  14.375  0.0513 -0.6138  0.2144
13782TIP3    H262762   1.666   6.611  14.472 -2.1364  1.1775  2.5564
13783TIP3   OH262763   1.113   0.964   2.105 -0.1893  0.9947 -0.3859
13783TIP3    H162764   1.132   1.036   2.166  1.7050  0.3612 -0.1387
13783TIP3    H262765   1.044   0.997   2.048 -0.5498  2.3672  0.8004
13784TIP3   OH262766   6.091   3.008  12.193 -0.7655  0.1060 -0.4203
13784TIP3    H162767   6.093   2.923  12.238 -0.3681  0.7139  0.7570
13784TIP3    H262768   6.134   2.991  12.109 -1.2246 -0.9867 -0.4528
13785TIP3   OH262769   5.434   5.170  12.563 -0.0043 -0.5032 -0.2512
13785TIP3    H162770   5.523   5.133  12.565  0.5652  0.8351  1.2622
13785TIP3    H262771   5.396   5.147  12.648 -1.8704 -2.6687 -1.5519
13786TIP3   OH262772   4.839   4.352  14.878 -0.0410 -0.0589  0.3305
13786TIP3    H162773   4.850   4.318  14.966 -2.1028  1.1285  1.1359
13786TIP3    H262774   4.744   4.355  14.865  0.1939  0.4358 -1.6609
13787TIP3   OH262775   1.926   2.884  16.339  0.2649  0.5314  0.3781
13787TIP3    H162776   1.883   2.803  16.313  0.7071  1.4231 -3.7324
13787TIP3    H262777   1.858   2.933  16.387 -0.3755 -1.6497  1.8431
13788TIP3   OH262778   6.523   4.865   5.192 -1.0936 -0.5890 -0.1142
13788TIP3    H162779   6.589   4.804   5.160  1.5900  0.2044  3.2867
13788TIP3    H262780   6.445   4.847   5.139  0.9932 -3.4780 -2.5290
13789TIP3   OH262781   5.851   3.379  16.624  0.2913  0.2486  0.0241
13789TIP3    H162782   5.936   3.416  16.645  1.1136 -0.5441 -1.7447
13789TIP3    H262783   5.869   3.288  16.599 -1.2248 -0.2805  0.6693
13790TIP3   OH262784   0.422   2.984  14.607 -0.1223 -0.6633 -0.1865
13790TIP3    H162785   0.395   3.048  14.541 -0.3888  0.1017  0.6366
13790TIP3    H262786   0.342   2.966  14.657 -0.3572 -2.6196 -1.1816
13791TIP3   OH262787   5.922   2.825  11.175 -0.1539  0.8010  0.2517
13791TIP3    H162788   5.961   2.743  11.144 -0.0899  0.4539  1.2175
13791TIP3    H262789   5.997   2.877  11.203 -0.3167  0.3192  1.6675
13792TIP3   OH262790   4.956   6.145   1.970 -0.4717  0.6791  0.2789
13792TIP3    H162791   4.908   6.155   1.888  0.9499 -0.9515 -0.8315
13792TIP3    H262792   4.910   6.074   2.016 -0.4766  0.6850  0.2836
13793TIP3   OH262793   0.601   5.898  15.697  0.1830 -0.0941 -0.0104
13793TIP3    H162794   0.681   5.851  15.723  0.7960  0.9214  0.0330
13793TIP3    H262795   0.633   5.972  15.645 -0.7308  0.3424  0.0306
13794TIP3   OH262796   0.660   6.110   1.091 -0.2973  0.1098 -0.0223
13794TIP3    H162797   0.606   6.036   1.118  1.0170 -0.0438  2.4932
13794TIP3    H262798   0.618   6.186   1.132 -0.8140  0.5674 -1.3705
13795TIP3   OH262799   4.158   1.020   4.520 -0.0924 -0.1537  0.9339
13795TIP3    H162800   4.217   1.016   4.445  0.9819 -1.2865  1.8054
13795TIP3    H262801   4.088   1.079   4.491  0.2244 -0.6259 -0.9871
13796TIP3   OH262802   2.595   0.781  11.047  0.0517 -0.6934 -0.7033
13796TIP3    H162803   2.628   0.831  11.122 -2.2691  1.9834 -1.3009
13796TIP3    H262804   2.510   0.747  11.076  0.1156 -1.4997 -1.4174
13797TIP3   OH262805   5.019   6.372   1.732  0.1116 -0.3334 -0.4710
13797TIP3    H162806   5.025   6.459   1.694  1.0833 -0.4418 -0.6057
13797TIP3    H262807   4.926   6.358   1.747  0.0076  1.0426  0.3100
13798TIP3   OH262808   3.704   0.152   3.596 -0.0773  0.1054 -0.4167
13798TIP3    H162809   3.737   0.159   3.686  0.0829  1.3373 -0.5500
13798TIP3    H262810   3.609   0.147   3.606  0.0146 -1.3194 -0.1237
13799TIP3   OH262811   3.300   1.480  11.557 -0.0873 -0.6114  0.3752
13799TIP3    H162812   3.268   1.465  11.646 -0.6406 -0.5921  0.1813
13799TIP3    H262813   3.350   1.561  11.563 -0.6255 -0.2891  0.5445
13800TIP3   OH262814   1.567   5.410   2.164  0.6730  0.3979  0.1438
13800TIP3    H162815   1.518   5.446   2.089  0.6367  1.2286  0.5540
13800TIP3    H262816   1.649   5.459   2.165  1.2531 -0.5394 -0.1455
13801TIP3   OH262817   5.437   4.083   0.607 -0.0756 -0.2671  0.3374
13801TIP3    H162818   5.420   3.992   0.631  1.6278 -0.7942 -0.2478
13801TIP3    H262819   5.514   4.107   0.658  0.2421  0.4163 -0.4363
13802TIP3   OH262820   1.245   0.888  11.967 -0.0319 -0.2679 -0.1865
13802TIP3    H162821   1.178   0.819  11.968  0.4285 -0.9264 -3.3570
13802TIP3    H262822   1.324   0.845  11.998 -0.0310 -0.8775 -0.9830
13803TIP3   OH262823   5.853   0.266  11.941  0.1107 -0.3203  0.8286
13803TIP3    H162824   5.788   0.314  11.889  0.7993  0.7215  0.8994
13803TIP3    H262825   5.936   0.312  11.925  0.2403  0.4921  3.3664
13804TIP3   OH262826   4.559   5.486   0.616  0.2735  0.4256 -0.6501
13804TIP3    H162827   4.491   5.425   0.643  1.3415 -0.8598 -0.7499
13804TIP3    H262828   4.583   5.459   0.527  0.6642  1.0831 -0.7543
13805TIP3   OH262829   3.301   5.938   4.396 -0.5908 -0.3738 -0.4667
13805TIP3    H162830   3.365   5.938   4.468 -0.3898 -0.4056 -0.6442
13805TIP3    H262831   3.222   5.901   4.434 -0.1461 -1.4578 -0.5607
13806TIP3   OH262832   5.393   2.108   1.535  0.6202 -0.0510 -0.1139
13806TIP3    H162833   5.445   2.029   1.516  3.3838  1.7575 -0.6802
13806TIP3    H262834   5.390   2.154   1.451 -2.2068 -0.1530 -0.1420
13807TIP3   OH262835   3.142   4.121   4.881 -0.0674 -0.1416 -0.1054
13807TIP3    H162836   3.174   4.206   4.853 -0.3971 -0.6172 -2.0428
13807TIP3    H262837   3.191   4.102   4.961  1.5288  0.9329 -0.7924
13808TIP3   OH262838   4.286   4.227   1.526  0.2182  0.3459  0.2410
13808TIP3    H162839   4.286   4.223   1.621 -0.0128 -1.3792  0.1915
13808TIP3    H262840   4.241   4.309   1.506  0.8118  1.0414  1.6049
13809TIP3   OH262841   4.371   0.445   5.826  0.1284  0.0009  0.2265
13809TIP3    H162842   4.453   0.423   5.871  0.1639  1.3704  0.8632
13809TIP3    H262843   4.304   0.440   5.894 -0.2868 -0.8234 -0.2294
13810TIP3   OH262844   4.391   3.326   4.734 -0.2005 -0.1426  0.7146
13810TIP3    H162845   4.436   3.312   4.817 -1.1101  1.3552  1.5161
13810TIP3    H262846   4.450   3.383   4.684 -0.2079 -0.0180  0.8470
13811TIP3   OH262847   2.528   4.052   4.611 -0.3221  0.6874  0.0610
13811TIP3    H162848   2.577   4.061   4.530  0.5991 -1.0112  0.3777
13811TIP3    H262849   2.447   4.007   4.585 -0.6843  1.4250 -0.1132
13812TIP3   OH262850   1.538   4.573   3.782 -0.6163  0.1645 -0.4496
13812TIP3    H162851   1.527   4.553   3.875 -1.6484 -2.4783 -1.0445
13812TIP3    H262852   1.625   4.541   3.761 -0.8755 -0.4388 -0.6356
13813TIP3   OH262853   5.054   4.886  15.982  0.4180 -0.0689 -0.0595
13813TIP3    H162854   5.012   4.908  15.898 -0.9158 -0.2492  0.5311
13813TIP3    H262855   5.108   4.962  16.003 -0.6181  0.7281 -0.2278
13814TIP3   OH262856   0.005   4.037  10.918  0.2072 -0.3455  0.2413
13814TIP3    H162857   0.034   4.035  11.009  2.0291 -0.0303 -0.2990
13814TIP3    H262858  -0.053   4.113  10.913  0.0242 -0.4136  1.1477
13815TIP3   OH262859   6.670   3.784   2.517  0.0730 -0.5157  0.3828
13815TIP3    H162860   6.675   3.688   2.514  0.5481 -0.5188 -3.1494
13815TIP3    H262861   6.589   3.803   2.563 -0.5308 -2.6587  0.2916
13816TIP3   OH262862   1.625   0.422   6.220  0.1533 -0.4286 -0.2593
13816TIP3    H162863   1.646   0.512   6.247  2.4151 -1.0307  0.2097
13816TIP3    H262864   1.593   0.380   6.300 -0.1814 -0.2315 -0.2921
13817TIP3   OH262865   1.061   5.566  14.336 -0.2085 -0.1386 -0.6141
13817TIP3    H162866   1.033   5.632  14.400 -0.5463  0.1596 -1.0627
13817TIP3    H262867   1.080   5.617  14.257 -0.9736 -0.6408 -1.1276
13818TIP3   OH262868   5.359   1.614  13.063 -0.3669 -0.4417 -0.3608
13818TIP3    H162869   5.394   1.703  13.059  0.7347 -0.7758  1.0402
13818TIP3    H262870   5.317   1.609  13.149  0.6311 -1.6253  0.0831
13819TIP3   OH262871   3.873   1.842  16.001 -0.2519  0.0287 -0.5778
13819TIP3    H162872   3.867   1.747  16.008  0.9339 -0.0303 -0.0043
13819TIP3    H262873   3.937   1.858  15.931 -0.6751  0.4090 -0.8836
13820TIP3   OH262874   5.900   0.911   5.841 -0.2703 -0.8751  0.4976
13820TIP3    H162875   5.959   0.985   5.844  0.0932 -0.9593 -2.0595
13820TIP3    H262876   5.829   0.933   5.902  1.0455  0.4202  1.6089
13821TIP3   OH262877   1.381   5.630  14.998  0.0134  0.2086 -0.5486
13821TIP3    H162878   1.405   5.669  15.082  1.2751 -0.2937 -0.6644
13821TIP3    H262879   1.464   5.604  14.959 -0.6054 -0.0876 -1.7039
13822TIP3   OH262880   3.353   3.910   3.171 -0.4144  0.1396  0.1569
13822TIP3    H162881   3.349   4.005   3.167  2.0539  0.2548 -2.5833
13822TIP3    H262882   3.303   3.879   3.096  0.2708 -0.6243 -0.0104
13823TIP3   OH262883   4.637   4.439   1.026 -0.4809  0.0343  0.3240
13823TIP3    H162884   4.590   4.508   1.073  0.5190 -0.1111  1.6198
13823TIP3    H262885   4.574   4.405   0.963 -1.8238  0.4254  1.4057
13824TIP3   OH262886   1.602   3.893  10.884  0.2647  0.7329 -0.7738
13824TIP3    H162887   1.606   3.812  10.833 -1.3650  0.5793 -0.6922
13824TIP3    H262888   1.533   3.944  10.842 -0.3904  1.0457  0.6487
13825TIP3   OH262889   1.893   0.629  11.172 -0.0776 -0.5646  0.9561
13825TIP3    H162890   1.913   0.652  11.081  0.1111 -0.5663  0.9980
13825TIP3    H262891   1.927   0.701  11.224 -2.0833  0.5151  0.8869
13826TIP3   OH262892   6.481   2.283   3.272 -0.7819 -0.4188  0.0051
13826TIP3    H162893   6.467   2.362   3.219 -0.3486 -2.2659 -3.0924
13826TIP3    H262894   6.401   2.232   3.260 -0.1397 -1.4611  0.0496
13827TIP3   OH262895   0.409   1.502   2.546 -0.9193 -0.6823  0.1952
13827TIP3    H162896   0.333   1.476   2.598 -1.3355  0.4563  0.1872
13827TIP3    H262897   0.425   1.593   2.571 -1.5221  0.1272 -2.0592
13828TIP3   OH262898   1.631   6.390   0.736 -0.0559 -0.3883 -0.1361
13828TIP3    H162899   1.639   6.478   0.773  0.1476 -0.6728  0.5110
13828TIP3    H262900   1.539   6.366   0.751 -0.2553 -0.0771 -0.8095
13829TIP3   OH262901   4.732   0.889  14.969 -0.1643 -0.0209 -0.9930
13829TIP3    H162902   4.642   0.861  14.952 -0.6236  0.7688 -0.0101
13829TIP3    H262903   4.726   0.985  14.976  0.7014  0.0188 -0.6678
13830TIP3   OH262904   1.233   2.124  10.408 -0.0152 -0.4811  0.2999
13830TIP3    H162905   1.188   2.175  10.341 -1.9856 -0.8175  1.2973
13830TIP3    H262906   1.317   2.100  10.368 -0.9058 -0.2373 -1.8291
13831TIP3   OH262907   3.536   6.470  13.394  0.3146 -0.0689  0.0283
13831TIP3    H162908   3.553   6.450  13.486  0.2650 -0.1133  0.0282
13831TIP3    H262909   3.479   6.398  13.365 -0.6571  0.5793  0.2879
13832TIP3   OH262910   3.605   1.311   2.735 -0.0709  0.4356  0.2203
13832TIP3    H162911   3.615   1.223   2.697 -0.7611  0.7813 -0.8219
13832TIP3    H262912   3.692   1.351   2.725  0.2797 -0.1668  0.8165
13833TIP3   OH262913   3.335   3.763   0.837 -0.3794 -0.2353  0.4517
13833TIP3    H162914   3.385   3.727   0.910 -1.8526 -0.1124  1.5602
13833TIP3    H262915   3.302   3.686   0.791  2.8216 -0.4308 -1.8582
13834TIP3   OH262916   2.761   0.981  15.421  0.0496  0.2988  0.1666
13834TIP3    H162917   2.826   0.923  15.461 -1.9767 -1.6008  0.8882
13834TIP3    H262918   2.728   1.034  15.493  0.5783  1.0891 -0.1558
13835TIP3   OH262919   4.344   4.591   0.198 -0.2499 -0.4859  0.7149
13835TIP3    H162920   4.414   4.526   0.204  0.3175  0.2025  1.8610
13835TIP3    H262921   4.371   4.649   0.127  0.5151 -0.0453  1.3534
13836TIP3   OH262922   0.361   1.186   1.053 -0.3655  0.2766 -0.6719
13836TIP3    H162923   0.401   1.270   1.078 -0.6464  0.0894  0.4383
13836TIP3    H262924   0.390   1.173   0.962  2.3977 -0.0088  0.1487
13837TIP3   OH262925   6.236   0.755  14.525 -0.4050 -0.0048 -0.1915
13837TIP3    H162926   6.179   0.830  14.541 -0.6502 -0.3747  0.7539
13837TIP3    H262927   6.297   0.755  14.599  0.5653  0.1467 -0.9759
13838TIP3   OH262928   0.955   3.625  14.830  0.5281 -0.4783  0.1645
13838TIP3    H162929   0.937   3.717  14.848 -0.2131 -0.5822 -0.0061
13838TIP3    H262930   1.048   3.614  14.848  0.9697  0.6555 -1.2520
13839TIP3   OH262931   0.311   4.499   5.706 -0.5555 -0.4894  0.7175
13839TIP3    H162932   0.368   4.455   5.769  1.6185  0.4279 -0.4948
13839TIP3    H262933   0.269   4.428   5.658  1.7940 -1.3616 -0.2375
13840TIP3   OH262934   3.849   1.481  10.954  0.0348  0.3121  0.3057
13840TIP3    H162935   3.875   1.571  10.933 -1.4900  0.9027  0.8219
13840TIP3    H262936   3.826   1.483  11.047 -2.0636 -0.0518 -0.1444
13841TIP3   OH262937   3.063   5.727   6.528 -0.4127  0.0052  0.1724
13841TIP3    H162938   3.120   5.799   6.557  0.1974 -0.0482 -0.8731
13841TIP3    H262939   2.977   5.769   6.517 -0.1938  0.4527  0.1273
13842TIP3   OH262940   0.217   2.820  14.302 -0.3317 -0.0438  0.1023
13842TIP3    H162941   0.139   2.791  14.255 -1.1220  0.5931  0.9915
13842TIP3    H262942   0.187   2.892  14.357  0.0861 -2.0294  3.1427
13843TIP3   OH262943   5.501   6.108  15.790 -1.0035 -0.1892  0.2604
13843TIP3    H162944   5.558   6.185  15.792 -0.0394 -0.8872  0.4500
13843TIP3    H262945   5.539   6.054  15.720 -3.0714  0.5377 -1.5363
13844TIP3   OH262946   2.998   0.471  12.085 -0.5446  0.2893 -0.2322
13844TIP3    H162947   3.061   0.431  12.144  0.2658 -0.0668 -1.2966
13844TIP3    H262948   2.922   0.412  12.086 -1.2501  1.1333  1.6696
13845TIP3   OH262949   5.983   3.466   4.463 -0.5123  0.0110  0.1863
13845TIP3    H162950   5.977   3.462   4.558 -0.8339  0.6373  0.2036
13845TIP3    H262951   6.056   3.526   4.446 -0.8620  0.4076  0.0533
13846TIP3   OH262952   0.171   1.735   4.994 -0.7061 -0.4883  0.3746
13846TIP3    H162953   0.164   1.642   5.016  1.0959 -0.5395  0.8508
13846TIP3    H262954   0.122   1.779   5.063 -0.3814 -1.0099  0.9510
13847TIP3   OH262955   5.273   4.916  14.822  0.1431 -0.2918 -0.4273
13847TIP3    H162956   5.340   4.969  14.864 -0.8654 -0.2183  1.1454
13847TIP3    H262957   5.255   4.961  14.739  0.9307  0.5335 -0.1564
13848TIP3   OH262958   6.052   3.397   5.146 -0.1345 -0.4550 -0.3020
13848TIP3    H162959   6.060   3.444   5.229  0.9466  0.7883 -1.0866
13848TIP3    H262960   6.090   3.456   5.081 -2.4514 -0.6983 -1.9687
13849TIP3   OH262961   3.859   6.654  11.728 -0.1676  0.0597 -0.2775
13849TIP3    H162962   3.835   6.674  11.818  0.9623  0.0125  0.0481
13849TIP3    H262963   3.947   6.617  11.735  0.1553  0.5819 -1.4568
13850TIP3   OH262964   2.075   6.708  15.131  0.2620  0.0432  0.3931
13850TIP3    H162965   2.047   6.617  15.141 -1.4015  0.3844 -0.6334
13850TIP3    H262966   2.160   6.712  15.174  1.2918 -2.4519 -1.1845
13851TIP3   OH262967   0.204   2.082   4.626 -0.4487 -0.2885 -0.6805
13851TIP3    H162968   0.252   2.153   4.669  0.3214 -0.9389 -0.4440
13851TIP3    H262969   0.246   2.002   4.657 -1.9943 -0.9047 -0.1130
13852TIP3   OH262970   4.599   3.688   2.620 -0.1003  0.4623 -0.7190
13852TIP3    H162971   4.673   3.628   2.605  0.3569  0.9591 -0.4734
13852TIP3    H262972   4.523   3.630   2.626  0.0985  0.0192 -2.0654
13853TIP3   OH262973   5.093   4.947   0.359  0.3092  0.0638  0.2671
13853TIP3    H162974   5.078   4.954   0.453 -0.1517  2.0144  0.0850
13853TIP3    H262975   5.014   4.906   0.324 -0.2778  0.9685  0.5238
13854TIP3   OH262976   3.905   1.070   5.571 -0.4874  0.5916  0.9709
13854TIP3    H162977   3.845   1.048   5.642 -1.4984  0.2808  0.0415
13854TIP3    H262978   3.971   1.000   5.573  0.0046  1.0461  2.1244
13855TIP3   OH262979   2.486   2.814  12.461 -0.3153 -0.0460 -0.4615
13855TIP3    H162980   2.480   2.867  12.381 -0.3755  1.2163  0.3567
13855TIP3    H262981   2.580   2.807  12.477 -0.3229  0.2329 -0.2963
13856TIP3   OH262982   1.646   2.593  10.134  0.1530  0.1927 -0.1459
13856TIP3    H162983   1.574   2.655  10.142  0.3311  0.3057  0.7242
13856TIP3    H262984   1.719   2.635  10.178  0.5962 -0.1489 -0.5512
13857TIP3   OH262985   6.211   2.403   3.409 -0.4478  0.2026 -0.2569
13857TIP3    H162986   6.156   2.335   3.370 -0.2990  0.5120 -1.0273
13857TIP3    H262987   6.238   2.367   3.494  0.1917 -0.9833 -0.9465
13858TIP3   OH262988   6.539   1.600  14.249 -0.1614 -0.0188  0.5826
13858TIP3    H162989   6.478   1.584  14.177  1.5983 -2.2613 -0.5732
13858TIP3    H262990   6.493   1.569  14.327 -1.2913  0.3966  0.1025
13859TIP3   OH262991   3.448   2.080   2.796 -0.6458  0.5907  0.4000
13859TIP3    H162992   3.371   2.024   2.781 -0.8717  0.8360  0.6268
13859TIP3    H262993   3.443   2.101   2.889  0.1582 -0.0645  0.6031
13860TIP3   OH262994   1.691   3.918  13.125  0.2405  0.1122 -0.6533
13860TIP3    H162995   1.741   3.985  13.171  0.5880  2.0603 -3.5803
13860TIP3    H262996   1.757   3.865  13.079  0.0029 -2.6160  1.8310
13861TIP3   OH262997   1.890   3.729   3.442  0.8849 -0.1353 -0.1731
13861TIP3    H162998   1.982   3.740   3.468  0.8250  1.0708 -0.4376
13861TIP3    H262999   1.888   3.753   3.349 -0.1808  2.8048  0.5072
13862TIP3   OH263000   1.365   1.171  13.419 -0.5338 -0.0360 -0.2772
13862TIP3    H163001   1.398   1.139  13.335 -0.3462 -0.3528 -0.0848
13862TIP3    H263002   1.400   1.260  13.425  0.7613 -0.5472  0.1666
13863TIP3   OH263003   1.635   2.921   4.491  0.2224 -0.1957 -0.0906
13863TIP3    H163004   1.672   2.860   4.556 -0.3917 -2.0977 -1.4363
13863TIP3    H263005   1.664   2.886   4.407  0.0894  1.5921 -0.9179
13864TIP3   OH263006   4.165   6.275  13.200 -0.3178 -0.2960  0.4870
13864TIP3    H163007   4.099   6.328  13.246 -0.4788  0.1387 -0.2236
13864TIP3    H263008   4.224   6.340  13.161 -0.7699 -0.5967 -0.7706
13865TIP3   OH263009   5.914   0.245  13.787  0.2702  0.0325  0.0705
13865TIP3    H163010   5.973   0.279  13.720 -0.2731  1.2122  0.1600
13865TIP3    H263011   5.957   0.265  13.870  0.2976 -0.1720  0.1061
13866TIP3   OH263012   0.239   2.168   5.342 -0.4988 -0.6388  0.1470
13866TIP3    H163013   0.255   2.129   5.256  1.2356  0.0458  0.1086
13866TIP3    H263014   0.233   2.094   5.402 -1.2610 -1.0990 -0.4821
13867TIP3   OH263015   6.464   4.889  10.619  0.8106 -0.1524  0.6745
13867TIP3    H163016   6.491   4.942  10.544  0.8493 -0.4203  0.5016
13867TIP3    H263017   6.484   4.944  10.695  0.8900  0.0645  0.4976
13868TIP3   OH263018   1.601   6.074  12.769 -0.3006 -0.9714 -0.0190
13868TIP3    H163019   1.565   6.107  12.686 -1.7286 -0.3276  0.8250
13868TIP3    H263020   1.554   5.992  12.785 -0.3679 -0.8570  0.3817
13869TIP3   OH263021   2.030   5.549   3.169  0.5017  0.5272  0.1927
13869TIP3    H163022   1.942   5.545   3.132  1.1944 -0.7457 -1.4747
13869TIP3    H263023   2.024   5.614   3.239 -2.0736 -0.5269  1.0737
13870TIP3   OH263024   6.750   6.372  13.134 -0.1185 -0.0170  0.1418
13870TIP3    H163025   6.692   6.442  13.105  0.4606  0.9478  1.2131
13870TIP3    H263026   6.823   6.374  13.073 -0.6400 -0.4605 -0.5117
13871TIP3   OH263027   3.239   6.793  16.940  0.0141  0.0486 -0.6120
13871TIP3    H163028   3.291   6.864  16.902  0.5061  0.9870  1.6217
13871TIP3    H263029   3.277   6.779  17.027 -2.8508  0.1783  0.8016
13872TIP3   OH263030   6.286   4.293   2.459  0.1476  0.3575  0.4422
13872TIP3    H163031   6.200   4.290   2.417  0.9164 -1.0313 -1.1654
13872TIP3    H263032   6.270   4.268   2.549 -0.9350 -1.8629 -0.2928
13873TIP3   OH263033   1.760   4.421  12.756  0.1073  0.5475 -0.4884
13873TIP3    H163034   1.762   4.515  12.772  2.0783  0.5413 -0.4181
13873TIP3    H263035   1.746   4.413  12.661 -1.9822  0.8230 -0.2450
13874TIP3   OH263036   0.606   0.439  16.792 -0.5870 -0.9956  0.3714
13874TIP3    H163037   0.620   0.460  16.885  2.3420  2.6454 -0.6255
13874TIP3    H263038   0.685   0.392  16.766 -0.5846 -0.4659 -0.6199
13875TIP3   OH263039   6.764   4.675  11.104  0.0367  0.4103  0.2648
13875TIP3    H163040   6.725   4.607  11.049  1.5324  0.1257 -0.5238
13875TIP3    H263041   6.690   4.724  11.139 -1.0495 -1.0850  0.1570
13876TIP3   OH263042   4.894   3.684   3.894  0.0747  0.1255  0.0381
13876TIP3    H163043   4.904   3.760   3.951 -0.0034  0.4300 -0.3449
13876TIP3    H263044   4.809   3.696   3.853  0.4280  0.2861 -0.6743
13877TIP3   OH263045   3.504   3.706  11.383 -0.5591 -0.3498 -0.0192
13877TIP3    H163046   3.563   3.779  11.362  0.5746 -1.5915 -1.3667
13877TIP3    H263047   3.494   3.711  11.478 -0.1533  1.2759 -0.0210
13878TIP3   OH263048   3.950   0.699  13.830 -0.0305  0.3730  0.4404
13878TIP3    H163049   3.881   0.766  13.834 -0.8285 -0.4639  1.2477
13878TIP3    H263050   3.975   0.696  13.738 -0.9581  0.8107  0.1546
13879TIP3   OH263051   2.889   4.672  12.740 -0.1596  0.2683  0.5436
13879TIP3    H163052   2.927   4.695  12.655 -1.7114 -0.4577 -0.3853
13879TIP3    H263053   2.939   4.595  12.768 -0.2898 -0.1010 -0.2003
13880TIP3   OH263054   1.799   4.675   4.971  0.5889  0.3475 -0.0380
13880TIP3    H163055   1.821   4.674   4.877 -0.1479 -0.4139 -0.2058
13880TIP3    H263056   1.834   4.593   5.005 -0.1777  0.0864  0.1197
13881TIP3   OH263057   3.339   0.923  13.150  0.8543 -0.0802  0.1446
13881TIP3    H163058   3.323   0.887  13.237  0.4292 -1.0941 -0.3440
13881TIP3    H263059   3.375   0.850  13.100  0.5023  0.3211 -0.7065
13882TIP3   OH263060   1.059   5.687   3.615 -0.3614  0.2752  0.4585
13882TIP3    H163061   1.152   5.689   3.596  0.0843  1.3031  2.4509
13882TIP3    H263062   1.042   5.769   3.662 -2.4367  0.4736 -0.5263
13883TIP3   OH263063   1.654   6.780   1.367  0.3216 -0.6988  0.1487
13883TIP3    H163064   1.639   6.760   1.275  0.6432  0.2211 -0.1128
13883TIP3    H263065   1.729   6.726   1.392  0.6871 -0.4100 -0.3251
13884TIP3   OH263066   0.128   2.877   5.941 -0.3922  0.0164 -0.2414
13884TIP3    H163067   0.153   2.945   5.878 -1.2358  0.0923 -0.5025
13884TIP3    H263068   0.059   2.918   5.993  0.1138 -0.1384  0.5664
13885TIP3   OH263069   5.165   3.505  13.774  0.1914 -0.4815 -0.4587
13885TIP3    H163070   5.144   3.413  13.793  0.7583 -0.7891 -1.2832
13885TIP3    H263071   5.252   3.502  13.736  0.1329  0.3922 -0.6714
13886TIP3   OH263072   2.450   3.647  16.384 -0.2444 -0.4339 -0.1349
13886TIP3    H163073   2.404   3.725  16.355 -0.0762 -0.9033 -1.8045
13886TIP3    H263074   2.438   3.645  16.478  0.1434  1.8459  0.0147
13887TIP3   OH263075   0.463   2.007  15.996  0.2601 -0.4769  0.0845
13887TIP3    H163076   0.370   2.019  16.017  0.4368  0.0423  0.6238
13887TIP3    H263077   0.509   2.044  16.072  0.9251  0.4988 -0.7597
13888TIP3   OH263078   0.221   2.129   3.259  0.8457 -0.1247  0.0032
13888TIP3    H163079   0.172   2.202   3.220  1.1931  0.1634  0.1051
13888TIP3    H263080   0.234   2.068   3.187  1.1847  0.2453 -0.2535
13889TIP3   OH263081   0.405   1.455   1.156  0.6911 -0.0354 -0.3169
13889TIP3    H163082   0.323   1.498   1.180  0.7575  0.5539 -1.1026
13889TIP3    H263083   0.462   1.526   1.127  0.7954 -0.6195 -1.6659
13890TIP3   OH263084   6.137   5.419  14.990 -0.2758  0.2460  0.0686
13890TIP3    H163085   6.134   5.491  15.053 -2.1321 -1.3169  1.8911
13890TIP3    H263086   6.048   5.412  14.957  0.0509 -0.7301 -0.6449
13891TIP3   OH263087   4.978   5.034  16.873 -0.0813  0.1957  0.0665
13891TIP3    H163088   4.884   5.016  16.877  0.0096 -0.7251 -1.2971
13891TIP3    H263089   5.016   4.982  16.944 -0.6901  1.5349  1.4386
13892TIP3   OH263090   4.680   4.218   1.254  0.5161 -0.0312  0.0396
13892TIP3    H163091   4.764   4.234   1.212  0.4297 -1.4472 -0.7320
13892TIP3    H263092   4.698   4.224   1.348  1.6415 -1.0476 -0.0953
13893TIP3   OH263093   3.908   2.499  11.800 -0.0271 -0.8427  0.0599
13893TIP3    H163094   3.885   2.407  11.818 -0.6394 -0.6663  0.2010
13893TIP3    H263095   3.971   2.494  11.728 -1.0781 -1.3194 -0.8787
13894TIP3   OH263096   3.371   3.873   4.588  0.0595 -0.1611 -0.4680
13894TIP3    H163097   3.277   3.889   4.599 -0.1012 -1.0589 -0.4871
13894TIP3    H263098   3.390   3.799   4.645  1.3006  1.5947  1.5733
13895TIP3   OH263099   2.967   5.815  16.185 -0.7131 -0.7278  0.1697
13895TIP3    H163100   2.886   5.767  16.169 -0.9885 -0.2015 -0.0257
13895TIP3    H263101   3.036   5.749  16.175 -1.2383 -2.1033  4.0372
13896TIP3   OH263102   1.829   6.384   1.324  0.0198 -0.7915 -0.3403
13896TIP3    H163103   1.750   6.414   1.278  0.2901 -0.3522 -0.5174
13896TIP3    H263104   1.874   6.329   1.260  0.3629 -0.2323 -0.5831
13897TIP3   OH263105   4.890   6.419   0.219  0.6101  0.1836  0.5544
13897TIP3    H163106   4.900   6.514   0.211 -0.9730  0.4515  1.2980
13897TIP3    H263107   4.895   6.387   0.129  2.7155  0.7437  0.4104
13898TIP3   OH263108   0.773   2.815  15.805 -0.4434 -0.6117  0.6257
13898TIP3    H163109   0.689   2.860  15.802  0.6998  1.6476  0.1557
13898TIP3    H263110   0.767   2.759  15.882 -2.2352 -0.2120  0.8219
13899TIP3   OH263111   5.778   3.353   4.319  0.3934 -0.4523 -0.6006
13899TIP3    H163112   5.704   3.412   4.301 -0.3843 -0.8634  1.0339
13899TIP3    H263113   5.842   3.408   4.364  0.3923 -0.4571 -0.5933
13900TIP3   OH263114   6.115   3.811  13.622 -0.0678 -0.0259  0.4549
13900TIP3    H163115   6.149   3.872  13.687  0.3363 -1.0802  1.2688
13900TIP3    H263116   6.047   3.860  13.576  0.0017  0.9135  1.3275
13901TIP3   OH263117   0.221   4.818  15.318 -0.2187 -0.2968  0.5240
13901TIP3    H163118   0.180   4.732  15.329  0.1853 -0.4933  0.5353
13901TIP3    H263119   0.186   4.871  15.389 -0.7491 -0.3436  0.3001
13902TIP3   OH263120   4.018   5.604  16.724  0.0671  0.5059  0.2653
13902TIP3    H163121   4.090   5.624  16.784  1.0249 -0.2050 -0.6033
13902TIP3    H263122   4.001   5.510  16.737  0.2432  0.3562 -0.5122
13903TIP3   OH263123   5.895   4.223  14.621 -0.0019 -0.0565  0.2930
13903TIP3    H163124   5.918   4.308  14.658  2.3009 -1.0217  1.3139
13903TIP3    H263125   5.821   4.241  14.563 -0.5371  2.3679  1.5706
13904TIP3   OH263126   4.889   6.583   0.731 -0.2389 -0.4202  0.0023
13904TIP3    H163127   4.890   6.488   0.721 -1.7747 -1.1561  4.4011
13904TIP3    H263128   4.968   6.603   0.782  1.3211  1.1471 -2.8069
13905TIP3   OH263129   3.736   1.765   0.264  0.4127  0.4607 -0.0224
13905TIP3    H163130   3.746   1.824   0.189  1.3309  0.4532  0.0865
13905TIP3    H263131   3.646   1.733   0.257 -0.0371  1.6840 -0.2271
13906TIP3   OH263132   6.761   6.369  10.215 -0.1976  0.7426  0.3952
13906TIP3    H163133   6.787   6.459  10.237  0.8508  1.2158 -2.4560
13906TIP3    H263134   6.843   6.325  10.194 -0.9233 -0.2518 -0.4082
13907TIP3   OH263135   5.253   6.002  12.378  0.0097  0.0788 -0.1207
13907TIP3    H163136   5.197   5.972  12.450 -0.1157  1.1715  0.2555
13907TIP3    H263137   5.342   5.986  12.409 -0.0318  0.8694  0.4508
13908TIP3   OH263138   0.904   3.924  10.281 -0.1562 -0.3452 -0.4385
13908TIP3    H163139   0.890   3.878  10.199  0.8257 -4.8496  1.6338
13908TIP3    H263140   0.999   3.924  10.293 -0.2625  0.6355  0.5239
13909TIP3   OH263141   4.717   4.079  14.762 -0.1146  0.7215 -0.2242
13909TIP3    H163142   4.754   4.121  14.684  0.7819 -2.0915 -1.4291
13909TIP3    H263143   4.792   4.037  14.804 -0.9777  0.2463  0.8822
13910TIP3   OH263144   2.511   3.972   3.726  0.1854  0.4948 -0.8021
13910TIP3    H163145   2.480   4.061   3.708 -0.2810  0.2420 -1.3035
13910TIP3    H263146   2.567   3.951   3.651  0.8322  0.6080 -0.3554
13911TIP3   OH263147   0.875   1.595  16.480  0.0485  0.1411 -0.7202
13911TIP3    H163148   0.968   1.580  16.491 -0.1383 -1.3755 -1.0234
13911TIP3    H263149   0.864   1.613  16.386  0.0056 -0.0092 -0.7451
13912TIP3   OH263150   4.154   2.754  14.189 -0.5451 -0.0106 -0.8469
13912TIP3    H163151   4.218   2.749  14.118 -0.4880 -1.0766 -0.7390
13912TIP3    H263152   4.135   2.663  14.211 -2.2177  0.2745 -0.9798
13913TIP3   OH263153   0.717   1.721   2.661  0.2242 -0.3281 -0.6640
13913TIP3    H163154   0.661   1.673   2.723 -0.2500 -1.0670 -1.6189
13913TIP3    H263155   0.751   1.652   2.603  3.7900 -0.2025  1.0661
13914TIP3   OH263156   0.835   4.395   1.507  0.1649 -0.2312 -0.0405
13914TIP3    H163157   0.846   4.488   1.528  2.2224 -0.1783 -1.1540
13914TIP3    H263158   0.881   4.349   1.578  1.6587 -0.2606 -0.9857
13915TIP3   OH263159   6.105   6.068   0.109  0.4896 -0.6009  0.0666
13915TIP3    H163160   6.184   6.064   0.055 -0.4535 -2.2153 -1.2781
13915TIP3    H263161   6.054   6.140   0.070  0.9409 -0.0413  0.4807
13916TIP3   OH263162   5.194   6.731  10.983 -0.2476  0.2560  0.1745
13916TIP3    H163163   5.112   6.689  11.007 -1.1675  2.0847  0.4113
13916TIP3    H263164   5.241   6.742  11.066  0.0189 -0.3297  0.1049
13917TIP3   OH263165   0.545   1.158   1.745 -0.6408  0.1676 -0.2665
13917TIP3    H163166   0.514   1.137   1.656  0.3996  1.9644 -1.1165
13917TIP3    H263167   0.634   1.123   1.748 -0.2317  1.1585 -0.3976
13918TIP3   OH263168   2.928   4.518   0.035 -0.6735 -0.1098  0.0407
13918TIP3    H163169   2.913   4.613   0.035 -3.6692 -0.4273  2.6399
13918TIP3    H263170   2.842   4.480   0.047  0.5821 -3.1655  0.2697
13919TIP3   OH263171   1.707   6.197  12.070 -0.4208  0.1847  0.2185
13919TIP3    H163172   1.686   6.103  12.073  0.9356 -0.1738 -0.3201
13919TIP3    H263173   1.803   6.199  12.072 -0.3608  1.4703 -1.6970
13920TIP3   OH263174   3.323   4.375   2.402  0.0242 -0.1794  0.0552
13920TIP3    H163175   3.254   4.433   2.372 -1.6893 -2.4925 -0.7925
13920TIP3    H263176   3.404   4.418   2.376 -1.1544  1.7260 -0.6280
13921TIP3   OH263177   1.813   5.062  12.207 -0.2840  0.3183  0.1942
13921TIP3    H163178   1.843   4.976  12.236  0.9734  0.7014  0.0598
13921TIP3    H263179   1.874   5.087  12.138  0.2340  1.9192  1.1832
13922TIP3   OH263180   0.301   2.152   0.804  0.1413 -0.6692 -0.3946
13922TIP3    H163181   0.366   2.196   0.750 -0.9207  1.9231  0.2893
13922TIP3    H263182   0.353   2.101   0.866  1.4819 -0.0231 -0.9416
13923TIP3   OH263183   2.666   0.434  16.074  0.1156 -0.3448 -0.2749
13923TIP3    H163184   2.601   0.426  16.144 -0.5024  1.2115 -0.6274
13923TIP3    H263185   2.726   0.361  16.088 -0.4160 -0.4855  1.4235
13924TIP3   OH263186   5.244   6.565   0.281 -0.5534 -0.3595  0.5355
13924TIP3    H163187   5.177   6.578   0.214  0.4239  0.6659 -0.2834
13924TIP3    H263188   5.195   6.561   0.364 -1.6315  0.1744 -0.0563
13925TIP3   OH263189   5.486   4.067  15.820 -0.7993 -0.3155 -0.2469
13925TIP3    H163190   5.427   4.000  15.785 -1.1725  0.6967 -1.6645
13925TIP3    H263191   5.473   4.142  15.762  1.8756 -0.0466 -0.6310
13926TIP3   OH263192   2.441   3.819   2.836  0.3845 -0.1556  0.0278
13926TIP3    H163193   2.378   3.750   2.815 -0.5117  0.5375  0.3567
13926TIP3    H263194   2.497   3.824   2.759 -0.6868 -0.0248 -0.7746
13927TIP3   OH263195   5.363   0.764   0.554  0.4501 -0.5356 -0.2860
13927TIP3    H163196   5.288   0.716   0.588  0.9924 -0.1244  1.6325
13927TIP3    H263197   5.431   0.699   0.543  0.1467 -0.7394 -1.0551
13928TIP3   OH263198   3.321   4.075  15.228 -0.5934 -0.5020 -0.3447
13928TIP3    H163199   3.414   4.052  15.231  0.5217  3.3220 -0.0324
13928TIP3    H263200   3.275   3.992  15.237  2.7757 -2.3715  1.6331
13929TIP3   OH263201   1.185   4.517  13.177 -0.0679 -0.1832  0.3138
13929TIP3    H163202   1.135   4.473  13.246 -0.5773  0.3689  0.3057
13929TIP3    H263203   1.253   4.565  13.223  1.1899 -1.8307  0.2562
13930TIP3   OH263204   6.781   0.242   5.721 -0.2857 -0.0812  0.1627
13930TIP3    H163205   6.823   0.175   5.668 -0.2344  1.4107 -1.7658
13930TIP3    H263206   6.692   0.248   5.686 -1.1355 -0.8763  2.0161
13931TIP3   OH263207   1.214   4.735   5.553  0.0708  0.2609 -0.2217
13931TIP3    H163208   1.207   4.680   5.631  4.8277 -2.7355 -1.4351
13931TIP3    H263209   1.257   4.814   5.583 -0.9544  0.5280  0.5962
13932TIP3   OH263210   3.313   3.438   1.962 -0.1896 -0.1479  0.1923
13932TIP3    H163211   3.278   3.447   2.050 -0.9117 -1.4641  0.0623
13932TIP3    H263212   3.374   3.365   1.967  1.4973  1.1908  0.0779
13933TIP3   OH263213   6.387   4.975  12.383 -0.5447 -0.4078  0.1722
13933TIP3    H163214   6.382   4.894  12.434 -1.6695 -0.6285 -0.2707
13933TIP3    H263215   6.465   4.964  12.329  0.0288 -0.6455  1.0171
13934TIP3   OH263216   5.094   0.084   1.992 -0.2982  0.7927 -0.4813
13934TIP3    H163217   5.187   0.070   2.013 -1.1462 -2.2710  1.9466
13934TIP3    H263218   5.078   0.025   1.918 -0.2674  1.5641 -1.1109
13935TIP3   OH263219   0.829   5.378   5.387  0.2262  0.2221 -0.0664
13935TIP3    H163220   0.875   5.445   5.337  0.9747  0.3183  0.7317
13935TIP3    H263221   0.860   5.390   5.477  1.5034 -2.1135 -0.1246
13936TIP3   OH263222   1.108   3.901   1.669  0.1256 -0.1813  0.1830
13936TIP3    H163223   1.035   3.840   1.674 -0.2215  0.2642  0.6269
13936TIP3    H263224   1.122   3.929   1.759  1.0787 -0.5275  0.1535
13937TIP3   OH263225   5.480   4.635  12.159 -0.4683  0.0966  0.1735
13937TIP3    H163226   5.478   4.730  12.175  0.2905  0.2631 -0.6361
13937TIP3    H263227   5.506   4.598  12.243  0.3215  0.6958  0.2069
13938TIP3   OH263228   2.791   1.712  16.851 -0.3741  0.6875  0.5777
13938TIP3    H163229   2.731   1.784  16.870  0.0098  1.3365 -0.5825
13938TIP3    H263230   2.750   1.663  16.780  0.3231  0.9721 -0.0310
13939TIP3   OH263231   4.378   5.545   2.646 -0.0202  0.2598  0.2350
13939TIP3    H163232   4.299   5.599   2.643  0.0667  0.3991  0.3964
13939TIP3    H263233   4.349   5.462   2.684 -0.1392  0.2171  0.0557
13940TIP3   OH263234   1.439   3.139   0.814  0.9126 -0.6479  0.3955
13940TIP3    H163235   1.499   3.081   0.860  2.9252  0.7819 -0.2878
13940TIP3    H263236   1.407   3.087   0.741  2.4566 -1.0336 -0.0465
13941TIP3   OH263237   4.193   0.696   3.413 -0.3471 -0.3418  0.6526
13941TIP3    H163238   4.225   0.770   3.360  1.9200 -0.7134  1.3898
13941TIP3    H263239   4.170   0.629   3.349 -0.9408  0.4098  0.0427
13942TIP3   OH263240   0.783   4.929  13.329 -0.0593  0.4008  0.0037
13942TIP3    H163241   0.710   4.960  13.383  0.9395  0.6886  1.2183
13942TIP3    H263242   0.806   5.005  13.275  1.4216  1.4357  1.9373
13943TIP3   OH263243   4.271   4.214   1.077 -0.4051  0.5918  0.5028
13943TIP3    H163244   4.329   4.156   1.128 -1.1203 -1.3217 -0.7608
13943TIP3    H263245   4.327   4.287   1.051  0.5161  0.5508  2.1981
13944TIP3   OH263246   1.876   6.626   6.200  0.1336 -0.2010  0.3487
13944TIP3    H163247   1.950   6.669   6.243  0.2277  0.4379 -0.4269
13944TIP3    H263248   1.857   6.550   6.256  1.7884 -0.7519  0.2269
13945TIP3   OH263249   5.720   5.693  16.821  0.3363  0.0640 -0.2893
13945TIP3    H163250   5.665   5.615  16.807 -0.0146  0.4159 -0.8990
13945TIP3    H263251   5.748   5.718  16.734  0.5267  0.5755 -0.0826
13946TIP3   OH263252   2.046   1.508   5.090 -0.0179 -0.0336 -0.8463
13946TIP3    H163253   2.070   1.556   5.169 -0.1614  0.9595 -1.3834
13946TIP3    H263254   1.960   1.472   5.109  0.0856 -0.0634 -0.4313
13947TIP3   OH263255   5.225   3.552  16.015  0.3924  0.1140  0.0434
13947TIP3    H163256   5.282   3.525  15.943  0.7154  0.1411  0.2896
13947TIP3    H263257   5.160   3.608  15.973  0.6793  0.2653 -0.2053
13948TIP3   OH263258   2.999   4.882   2.271  0.0862 -0.3300 -0.4869
13948TIP3    H163259   2.967   4.822   2.204  0.1886 -1.7780  0.7002
13948TIP3    H263260   3.091   4.896   2.249  0.1871 -1.0058 -0.5200
13949TIP3   OH263261   3.075   3.593   4.100  0.2569  0.4663  0.6730
13949TIP3    H163262   3.149   3.587   4.160 -1.6599  0.1971  3.1813
13949TIP3    H263263   3.032   3.675   4.123  0.1962  1.0644 -1.3543
13950TIP3   OH263264   5.265   0.426  14.950  0.2354  0.4332 -0.2495
13950TIP3    H163265   5.226   0.352  14.903 -0.0362  1.0338 -0.9870
13950TIP3    H263266   5.190   0.478  14.978  0.4354  0.5467  0.0731
13951TIP3   OH263267   1.312   5.393  15.358 -0.3455 -0.1220 -0.0875
13951TIP3    H163268   1.405   5.382  15.338 -0.1403 -0.0704  0.7919
13951TIP3    H263269   1.279   5.304  15.371  0.0012 -0.0660  1.3513
13952TIP3   OH263270   5.349   0.515   4.214  0.5175  0.3109 -0.4490
13952TIP3    H163271   5.270   0.462   4.203  1.0374 -0.3232 -1.2636
13952TIP3    H263272   5.360   0.559   4.130 -0.0496  1.9537  0.2949
13953TIP3   OH263273   5.346   2.701   5.826  0.0825 -0.2785  0.3455
13953TIP3    H163274   5.441   2.695   5.838  0.3170  0.4121 -0.9252
13953TIP3    H263275   5.326   2.794   5.836 -0.3317 -0.3041 -0.1800
13954TIP3   OH263276   1.770   3.008  11.850  0.0084  0.3789 -0.7436
13954TIP3    H163277   1.776   2.947  11.776 -1.0178 -0.5765 -0.0742
13954TIP3    H263278   1.800   2.957  11.926  1.0641  1.3517 -0.4688
13955TIP3   OH263279   4.363   2.186  15.616  0.1609  0.1756 -0.2779
13955TIP3    H163280   4.377   2.245  15.690 -1.8359 -0.6346  0.8273
13955TIP3    H263281   4.314   2.238  15.553 -0.4332  0.1145  0.1227
13956TIP3   OH263282   6.281   3.030   2.856  0.2913  0.5444 -0.4558
13956TIP3    H163283   6.210   2.966   2.859  1.2484 -0.6110 -1.5069
13956TIP3    H263284   6.237   3.114   2.838 -0.9401  0.1563  0.5828
13957TIP3   OH263285   0.920   2.367  15.781  0.0740  0.7755  0.0678
13957TIP3    H163286   0.884   2.357  15.693 -0.1357  1.7419  0.0268
13957TIP3    H263287   0.917   2.462  15.797 -1.3659  0.5048  1.7094
13958TIP3   OH263288   4.710   2.973   2.100 -0.2793  0.1888 -0.2347
13958TIP3    H163289   4.683   3.011   2.016 -0.5443  2.0050  0.6165
13958TIP3    H263290   4.805   2.985   2.102 -0.0684 -1.1697 -0.8563
13959TIP3   OH263291   4.055   2.117  13.392  0.0437  0.0189 -0.9735
13959TIP3    H163292   4.081   2.055  13.460  1.5460 -0.4744 -1.9429
13959TIP3    H263293   3.995   2.068  13.336 -0.0652 -0.0345 -0.8101
13960TIP3   OH263294   3.950   5.658   3.125  0.5041  0.0060 -0.2902
13960TIP3    H163295   3.923   5.580   3.076  0.0368  0.7778 -1.3022
13960TIP3    H263296   3.980   5.625   3.209 -1.4441 -1.1018  0.0177
13961TIP3   OH263297   4.824   0.106   4.559 -0.3720  0.4464 -0.0550
13961TIP3    H163298   4.746   0.150   4.525 -0.2655  0.0279 -0.8664
13961TIP3    H263299   4.884   0.177   4.584 -0.4514  0.7614 -0.7515
13962TIP3   OH263300   0.458   6.118   1.341  0.1929 -0.3402 -0.1171
13962TIP3    H163301   0.453   6.023   1.330 -0.7252 -0.3823  0.5870
13962TIP3    H263302   0.473   6.130   1.435 -0.5173  0.2338 -0.0760
13963TIP3   OH263303   2.680   5.181  14.852 -0.1267 -0.1630  0.3402
13963TIP3    H163304   2.585   5.188  14.856 -0.3659 -1.7228 -1.2439
13963TIP3    H263305   2.702   5.119  14.922 -0.4246 -0.6860 -0.0182
13964TIP3   OH263306   4.209   6.783   1.898  0.2761  0.3346 -0.5098
13964TIP3    H163307   4.302   6.785   1.873 -0.2490 -0.0666 -2.6645
13964TIP3    H263308   4.162   6.803   1.817 -1.5381  0.7958  0.6020
13965TIP3   OH263309   5.890   1.789   5.656 -0.1751 -0.2383 -0.2987
13965TIP3    H163310   5.934   1.707   5.678 -1.6642 -0.6050  1.5694
13965TIP3    H263311   5.936   1.856   5.707 -1.1134 -0.4845  0.9268
13966TIP3   OH263312   2.840   4.553   0.314  0.0246  0.1062 -0.2491
13966TIP3    H163313   2.884   4.513   0.239  0.4393 -0.1227  0.1051
13966TIP3    H263314   2.827   4.644   0.289  1.0219  0.2649 -0.2352
13967TIP3   OH263315   1.915   2.614  15.702  0.2865 -0.0971 -0.0903
13967TIP3    H163316   1.969   2.668  15.645  0.0915 -1.8650 -2.0648
13967TIP3    H263317   1.828   2.617  15.662 -0.5060  0.6705  1.6069
13968TIP3   OH263318   5.134   5.395  14.117  0.0278  0.0931 -0.1621
13968TIP3    H163319   5.056   5.394  14.173 -0.2635  1.0251 -0.5411
13968TIP3    H263320   5.123   5.472  14.062 -0.1621 -1.3108 -2.2033
13969TIP3   OH263321   0.961   4.478  12.726 -0.1669 -0.5624 -0.0609
13969TIP3    H163322   0.966   4.405  12.787  0.2903 -0.2735  0.2501
13969TIP3    H263323   1.024   4.542  12.759 -1.4649  0.5162  0.3909
13970TIP3   OH263324   3.654   4.494  15.571 -0.0783 -0.2706 -0.4325
13970TIP3    H163325   3.719   4.495  15.500  1.2858  1.0127  0.7810
13970TIP3    H263326   3.664   4.408  15.611  1.8699  0.3838  0.5799
13971TIP3   OH263327   5.761   0.980  15.866 -0.5828 -0.1843 -0.1233
13971TIP3    H163328   5.666   0.973  15.870 -0.7024  1.6087  0.6650
13971TIP3    H263329   5.785   1.038  15.938  1.1966 -1.1666  0.1475
13972TIP3   OH263330   3.072   3.723   4.533  1.0201  0.3517 -0.0953
13972TIP3    H163331   3.097   3.654   4.595 -0.2177 -0.3457 -0.3310
13972TIP3    H263332   3.069   3.803   4.585  0.8925 -0.0690  0.5592
13973TIP3   OH263333   0.059   6.192  12.261  0.0721 -0.1430 -0.0499
13973TIP3    H163334   0.032   6.106  12.227  1.9261 -1.0250  0.5617
13973TIP3    H263335   0.120   6.225  12.195 -0.4784  0.6369 -0.1829
13974TIP3   OH263336   0.025   0.684  15.601  0.3805 -0.3518 -0.1420
13974TIP3    H163337   0.076   0.657  15.524  1.0065 -0.3456  0.2673
13974TIP3    H263338   0.054   0.625  15.670  0.0082 -0.1839  0.1540
13975TIP3   OH263339   3.316   2.650   5.562  0.9056  0.3436  0.1802
13975TIP3    H163340   3.252   2.579   5.553  2.3615 -0.8133 -1.6416
13975TIP3    H263341   3.275   2.724   5.517  1.0833 -0.5975 -1.6230
13976TIP3   OH263342   4.918   2.564   1.541 -0.4019  0.5992 -0.7349
13976TIP3    H163343   4.864   2.612   1.478  1.1750  0.8193 -1.9725
13976TIP3    H263344   5.008   2.572   1.508  0.2567 -0.8614  0.5432
13977TIP3   OH263345   3.442   2.609   3.515 -0.0880 -0.5124 -0.0510
13977TIP3    H163346   3.489   2.639   3.437 -0.6698 -0.6494 -0.4601
13977TIP3    H263347   3.376   2.548   3.481  0.4769 -1.5563  0.6714
13978TIP3   OH263348   2.413   6.223  13.430  0.1537  0.5775  0.4971
13978TIP3    H163349   2.362   6.191  13.504  0.6838  1.8537  1.4579
13978TIP3    H263350   2.476   6.284  13.469 -0.0355  1.8377 -1.0759
13979TIP3   OH263351   4.255   3.766  16.911 -0.4658 -0.0560 -0.2028
13979TIP3    H163352   4.269   3.676  16.881 -0.9952 -0.8229  1.6997
13979TIP3    H263353   4.300   3.820  16.845 -0.5763 -1.6532 -1.6756
13980TIP3   OH263354   2.971   5.780   3.771  0.4331 -0.2709  0.3218
13980TIP3    H163355   2.980   5.871   3.799 -1.0020 -0.4562  1.5128
13980TIP3    H263356   2.975   5.730   3.852  0.0093 -1.1706 -0.2024
13981TIP3   OH263357   1.534   2.054  16.495 -0.0641 -0.4242 -0.3444
13981TIP3    H163358   1.486   2.000  16.432 -1.2124 -0.0225  0.1573
13981TIP3    H263359   1.503   2.143  16.479  0.3176 -0.1938  0.1778
13982TIP3   OH263360   5.076   6.170   0.181 -0.3924  0.5084  0.1944
13982TIP3    H163361   5.050   6.230   0.111 -0.6857 -0.2569 -0.3565
13982TIP3    H263362   5.171   6.161   0.171 -0.4337  0.4025 -0.1051
13983TIP3   OH263363   6.129   3.338  12.658  0.7074 -0.1274  0.0331
13983TIP3    H163364   6.036   3.334  12.634  1.1795 -1.9966 -1.8138
13983TIP3    H263365   6.161   3.417  12.616 -0.0186  0.5273  0.6711
13984TIP3   OH263366   4.963   5.613  13.395 -0.2871  0.1252  0.1655
13984TIP3    H163367   4.947   5.553  13.323  0.1996  0.1600  0.0268
13984TIP3    H263368   5.051   5.649  13.379 -0.7587  1.2431 -0.0169
13985TIP3   OH263369   3.568   0.986  10.996 -0.5689  0.1056  0.1078
13985TIP3    H163370   3.582   0.958  10.906 -0.3373 -1.2084  0.5352
13985TIP3    H263371   3.483   1.031  10.994 -0.8498 -0.4398 -0.6473
13986TIP3   OH263372   2.485   2.632   5.115 -0.1259 -0.9251 -0.0220
13986TIP3    H163373   2.409   2.664   5.067  0.2432  1.2318  0.7138
13986TIP3    H263374   2.467   2.653   5.206  0.6265 -1.9527  0.3983
13987TIP3   OH263375   2.560   5.270  16.503  0.2493  0.4448 -0.4764
13987TIP3    H163376   2.466   5.264  16.517  0.5370  0.6779  2.1986
13987TIP3    H263377   2.596   5.199  16.556  1.5443 -1.1013 -3.2122
13988TIP3   OH263378   1.696   3.713   1.861  0.2906 -0.6194  0.2760
13988TIP3    H163379   1.621   3.725   1.920  0.3098  0.6212  0.0612
13988TIP3    H263380   1.696   3.619   1.842 -1.1090 -0.6695  0.4163
13989TIP3   OH263381   6.813   5.328   3.289 -0.0572  0.3273 -0.1800
13989TIP3    H163382   6.761   5.406   3.309  1.0849  0.8045  1.0125
13989TIP3    H263383   6.870   5.355   3.217 -0.8787  0.0250 -0.9779
13990TIP3   OH263384   0.421   5.830   4.366 -0.3915  0.0687 -0.0961
13990TIP3    H163385   0.412   5.866   4.454  0.3999 -0.8158  0.3596
13990TIP3    H263386   0.510   5.855   4.339 -0.6564  0.3991 -0.6748
13991TIP3   OH263387   3.726   3.933   1.382 -0.2733  0.3946 -0.1928
13991TIP3    H163388   3.812   3.963   1.350 -0.3994 -0.0147 -0.9410
13991TIP3    H263389   3.694   4.006   1.435  0.9041  0.2286  0.8085
13992TIP3   OH263390   0.693   3.627   1.460  0.3980  0.0647  0.1477
13992TIP3    H163391   0.605   3.666   1.454  0.9431  1.3176 -0.0534
13992TIP3    H263392   0.680   3.535   1.435 -0.7504  0.3883 -0.5428
13993TIP3   OH263393   6.760   5.643  14.575  0.8351  0.3401 -0.2840
13993TIP3    H163394   6.683   5.590  14.594  0.5836  0.8201  0.0529
13993TIP3    H263395   6.726   5.723  14.535  1.2172  0.2272 -0.8581
13994TIP3   OH263396   4.557   1.200   1.677 -0.1009  0.1072  0.1939
13994TIP3    H163397   4.565   1.284   1.723  0.7704 -1.1168  2.3818
13994TIP3    H263398   4.634   1.197   1.620  0.1649  0.5465  0.5220
13995TIP3   OH263399   2.810   6.713   1.623  0.3122 -0.2764 -0.6550
13995TIP3    H163400   2.880   6.651   1.605 -1.1427 -1.6496 -1.8352
13995TIP3    H263401   2.848   6.799   1.603  1.8058 -0.9266 -0.7147
13996TIP3   OH263402   0.777   1.013  11.902  0.1984 -0.3690 -0.9710
13996TIP3    H163403   0.871   1.027  11.893  0.2917 -0.1644  0.1799
13996TIP3    H263404   0.766   0.918  11.895  1.1790 -1.0830  3.8078
13997TIP3   OH263405   2.377   0.677   1.976  0.2530  0.3736  0.6857
13997TIP3    H163406   2.436   0.673   2.051 -1.1426  1.1842  1.8823
13997TIP3    H263407   2.435   0.678   1.900  1.6939 -2.4989  1.5913
13998TIP3   OH263408   3.909   0.058  13.045 -0.1473 -0.2621  0.2286
13998TIP3    H163409   3.906   0.011  13.128 -1.5970  1.9423  1.5036
13998TIP3    H263410   4.002   0.059  13.021  0.2586 -1.1254  1.6693
13999TIP3   OH263411   5.133   2.493  16.340 -0.3331  0.1810  0.0627
13999TIP3    H163412   5.206   2.455  16.291 -1.3730 -2.6895  0.5080
13999TIP3    H263413   5.079   2.535  16.274 -0.4156 -1.4180 -0.9534
14000TIP3   OH263414   6.451   1.945   1.048 -0.1069 -0.2903  0.4070
14000TIP3    H163415   6.520   1.879   1.042 -0.6596 -0.9751  1.3936
14000TIP3    H263416   6.423   1.943   1.139 -3.6320 -2.3435 -0.5217
14001TIP3   OH263417   2.936   0.536  16.810  0.1299 -0.2866  0.0080
14001TIP3    H163418   2.963   0.463  16.754  0.8858 -1.5144  1.8614
14001TIP3    H263419   2.843   0.522  16.826 -0.0651  0.0151 -0.8508
14002TIP3   OH263420   2.240   2.568   2.290  0.1172 -0.3355 -0.8146
14002TIP3    H163421   2.276   2.481   2.310 -0.4635 -0.2597  0.6659
14002TIP3    H263422   2.283   2.626   2.353 -0.6653  0.1860 -0.7545
14003TIP3   OH263423   4.823   6.489  11.798 -0.0510  0.2167  0.0686
14003TIP3    H163424   4.836   6.480  11.893 -1.7338 -0.8721  0.2490
14003TIP3    H263425   4.862   6.409  11.761 -1.5565 -0.5893  0.1304
14004TIP3   OH263426   6.031   6.759   5.714  0.1306 -0.5391 -0.1454
14004TIP3    H163427   5.982   6.725   5.789  0.6411 -3.1169 -0.8853
14004TIP3    H263428   6.112   6.793   5.752 -1.2592  2.0169  0.8559
14005TIP3   OH263429   2.819   2.305  12.254  0.6294 -0.1230 -0.4932
14005TIP3    H163430   2.831   2.224  12.205 -1.3547  0.9253 -2.9174
14005TIP3    H263431   2.727   2.328  12.241  0.6876  1.6486  1.5899
14006TIP3   OH263432   4.437   0.954   5.312  0.2369  0.5343 -0.5033
14006TIP3    H163433   4.373   0.959   5.383  2.2676 -0.1174  1.4571
14006TIP3    H263434   4.468   0.863   5.314  2.3975  1.2315 -0.2941
14007TIP3   OH263435   5.264   0.469   0.402 -0.5951 -0.2174 -0.4278
14007TIP3    H163436   5.220   0.515   0.474 -0.1724  1.2339 -1.0680
14007TIP3    H263437   5.324   0.409   0.446 -1.3262 -0.3581  0.4338
14008TIP3   OH263438   6.216   2.765  16.028  0.2271 -0.1015 -0.5799
14008TIP3    H163439   6.203   2.838  15.967 -1.3638  0.2192  0.0968
14008TIP3    H263440   6.263   2.805  16.102  0.2346  0.0068 -0.6427
14009TIP3   OH263441   0.203   3.058  15.365  0.8045  0.1120  0.1726
14009TIP3    H163442   0.264   3.124  15.331  0.4879  0.4115  0.1899
14009TIP3    H263443   0.117   3.089  15.339  0.5405  0.4315  1.3863
14010TIP3   OH263444   0.068   2.460  15.946 -0.0002  0.1871 -0.8440
14010TIP3    H163445   0.119   2.387  15.909 -0.4818  0.2105 -1.5749
14010TIP3    H263446   0.129   2.534  15.946  0.1080  0.1009 -1.2919
14011TIP3   OH263447   0.824   2.928  15.205  0.5017  0.2197  0.0365
14011TIP3    H163448   0.888   2.929  15.135  0.1219  0.6820 -0.3122
14011TIP3    H263449   0.799   2.836  15.215  0.4127  0.1782 -0.5656
14012TIP3   OH263450   3.227   6.480   1.957 -0.4609  0.0276 -0.1452
14012TIP3    H163451   3.207   6.459   2.048 -0.9376  1.6126  0.1455
14012TIP3    H263452   3.149   6.452   1.909 -0.4116 -0.3651  0.0008
14013TIP3   OH263453   5.402   4.385  11.461  0.0823  0.0465 -0.0458
14013TIP3    H163454   5.488   4.373  11.421 -0.3164 -1.9938 -0.4410
14013TIP3    H263455   5.346   4.415  11.389  0.3144  0.6999  0.0456
14014TIP3   OH263456   4.608   0.237   4.456  0.3071  0.0580  0.1614
14014TIP3    H163457   4.542   0.277   4.400  0.5253  3.6929  2.1539
14014TIP3    H263458   4.566   0.228   4.541  1.4696 -0.4649  0.7117
14015TIP3   OH263459   0.952   6.009   2.920 -0.3062  0.1090 -0.0130
14015TIP3    H163460   0.979   6.074   2.855  0.8474  0.3646  0.7081
14015TIP3    H263461   0.871   5.972   2.884 -0.2030  0.9207 -1.1266
14016TIP3   OH263462   5.074   2.349   3.167 -0.4551  0.0990 -0.3128
14016TIP3    H163463   5.157   2.388   3.140 -0.0369 -0.6131 -0.0884
14016TIP3    H263464   5.047   2.296   3.093  1.0961 -2.4991  0.8498
14017TIP3   OH263465   4.622   4.874  12.365  0.6567 -0.5875  0.9318
14017TIP3    H163466   4.646   4.850  12.455 -0.1524 -1.0820  1.0267
14017TIP3    H263467   4.528   4.855  12.360  0.6114 -0.1635  0.1079
14018TIP3   OH263468   3.493   3.446   2.196  0.1271 -0.4420  0.6957
14018TIP3    H163469   3.435   3.522   2.206  0.3521 -0.0472 -0.7162
14018TIP3    H263470   3.561   3.459   2.262  1.9932  2.3690 -1.5109
14019TIP3   OH263471   0.380   5.245   4.415  0.3628  0.6981 -0.4905
14019TIP3    H163472   0.382   5.220   4.323 -0.2193 -0.3387 -0.2344
14019TIP3    H263473   0.401   5.338   4.415 -0.0410  0.8043 -1.7004
14020TIP3   OH263474   1.491   5.255   4.756 -0.2238 -0.3486 -0.6843
14020TIP3    H163475   1.550   5.256   4.831  0.7829 -0.9268 -1.4564
14020TIP3    H263476   1.512   5.175   4.709 -2.0966 -0.9334 -0.6312
14021TIP3   OH263477   3.751   2.972  11.953 -0.5002 -0.2489 -0.5465
14021TIP3    H163478   3.821   2.934  11.900  0.7764 -0.6438  1.3286
14021TIP3    H263479   3.755   3.066  11.933 -0.1334 -0.4094 -1.2593
14022TIP3   OH263480   0.402   6.018  11.336  0.0475 -0.6904 -0.0942
14022TIP3    H163481   0.342   5.969  11.280 -2.0162  1.6782 -0.1418
14022TIP3    H263482   0.421   6.098  11.287 -2.4889  1.8584  2.6665
14023TIP3   OH263483   0.410   4.055   5.434  0.2806  0.4084  0.0461
14023TIP3    H163484   0.459   4.136   5.426  0.1455  0.6622  1.5727
14023TIP3    H263485   0.329   4.079   5.479 -1.1507 -0.0602 -2.0880
14024TIP3   OH263486   0.114   5.616   1.900 -0.1487  0.5391  0.2141
14024TIP3    H163487   0.094   5.615   1.993 -0.8682  0.7735  0.0678
14024TIP3    H263488   0.187   5.554   1.890 -0.1645  0.4024  0.9034
14025TIP3   OH263489   4.936   0.455  12.638 -0.0226 -0.0493  0.1629
14025TIP3    H163490   4.943   0.536  12.688 -1.6201 -0.0445  0.4419
14025TIP3    H263491   5.025   0.420  12.636  1.0327  2.4018 -1.1887
14026TIP3   OH263492   1.507   3.828   2.873 -0.3389 -0.3372  0.0341
14026TIP3    H163493   1.437   3.818   2.937 -1.0273  0.1093 -0.6200
14026TIP3    H263494   1.502   3.920   2.846  1.3067  0.0241  0.8606
14027TIP3   OH263495   6.057   1.316   0.212 -0.4533  0.0198  0.5663
14027TIP3    H163496   6.113   1.368   0.269 -1.0527  2.0230 -0.5494
14027TIP3    H263497   6.117   1.278   0.148 -0.0506 -0.3129  1.1367
14028TIP3   OH263498   2.548   4.674   5.657 -0.1997 -0.0605  0.7122
14028TIP3    H163499   2.581   4.631   5.736 -1.8956  1.4259  2.3094
14028TIP3    H263500   2.478   4.617   5.626 -1.4332  0.7269  1.9561
14029TIP3   OH263501   4.589   5.477  15.411  0.1798 -0.2079 -0.1625
14029TIP3    H163502   4.667   5.518  15.448 -0.2610  0.0935  0.4604
14029TIP3    H263503   4.623   5.408  15.353  0.9095  0.3099 -0.3709
14030TIP3   OH263504   3.674   3.897  11.237 -0.3081 -0.6678  0.0518
14030TIP3    H163505   3.747   3.957  11.221 -1.4103  1.4608  2.3943
14030TIP3    H263506   3.710   3.810  11.221  1.9811  0.4463 -1.3464
14031TIP3   OH263507   3.466   0.876   4.647 -0.2727  0.1439  0.0331
14031TIP3    H163508   3.388   0.926   4.624 -0.8409 -0.6454  0.1817
14031TIP3    H263509   3.537   0.920   4.601 -0.9512  0.2904 -0.9170
14032TIP3   OH263510   6.377   6.296   4.227 -0.0307 -0.0108  0.6539
14032TIP3    H163511   6.448   6.272   4.168 -0.9348  1.0312 -0.9263
14032TIP3    H263512   6.390   6.389   4.245 -1.2742  0.3619 -0.1635
14033TIP3   OH263513   0.771   1.247  11.236  0.4186  0.3809  0.3809
14033TIP3    H163514   0.683   1.257  11.272  0.0430 -0.7390 -0.1747
14033TIP3    H263515   0.772   1.159  11.199  1.0371  1.1627 -1.6190
14034TIP3   OH263516   3.715   3.305   3.883 -0.1931  0.0961  0.1263
14034TIP3    H163517   3.667   3.346   3.811 -2.3180 -0.5217  1.1136
14034TIP3    H263518   3.667   3.331   3.962  1.2875 -0.3310  1.2144
14035TIP3   OH263519   0.291   3.166  14.468  0.7737  0.0264  0.5977
14035TIP3    H163520   0.207   3.210  14.484  1.0495  0.4192  0.9917
14035TIP3    H263521   0.352   3.238  14.450  0.7258 -0.3369 -1.1127
14036TIP3   OH263522   4.105   6.510  11.686 -0.3754 -0.4153  0.3428
14036TIP3    H163523   4.129   6.419  11.666 -0.7948 -0.7533  1.2707
14036TIP3    H263524   4.169   6.537  11.753 -0.5156 -0.1803  0.3833
14037TIP3   OH263525   0.701   1.806   0.278 -0.0145  0.1363 -0.3199
14037TIP3    H163526   0.753   1.877   0.315 -3.8218  1.1457  3.8719
14037TIP3    H263527   0.701   1.823   0.184  3.0760  2.7964 -0.0154
14038TIP3   OH263528   3.414   4.651  14.843  0.5756 -0.2455  0.1972
14038TIP3    H163529   3.448   4.585  14.783 -0.6804 -0.0061 -0.8407
14038TIP3    H263530   3.409   4.731  14.790 -0.9890 -0.1443  0.4491
14039TIP3   OH263531   0.379   4.679   1.860  0.1993  0.1858  0.1559
14039TIP3    H163532   0.403   4.757   1.910 -2.1716 -0.3659  2.3767
14039TIP3    H263533   0.453   4.619   1.871  1.3874  1.5152 -0.3248
14040TIP3   OH263534   4.297   6.489  13.092  0.0287  0.0138 -0.1985
14040TIP3    H163535   4.255   6.575  13.082  0.6178  0.2849 -0.3883
14040TIP3    H263536   4.380   6.508  13.135 -0.4802 -0.6409  1.1145
14041TIP3   OH263537   1.473   5.811   1.749 -0.2728  0.2778  0.3502
14041TIP3    H163538   1.546   5.807   1.687 -1.1320  1.7565 -0.8311
14041TIP3    H263539   1.509   5.858   1.825  0.3919 -0.2740  0.3813
14042TIP3   OH263540   3.900   0.655   2.227  0.0124  0.4889 -0.0459
14042TIP3    H163541   3.819   0.611   2.200  0.4538 -0.6886  0.4735
14042TIP3    H263542   3.875   0.707   2.303 -0.5224  1.1786 -0.6760
14043TIP3   OH263543   3.214   5.366  12.001  0.2270 -0.2926 -0.1562
14043TIP3    H163544   3.219   5.338  11.910  0.1500 -1.4318  0.1705
14043TIP3    H263545   3.211   5.462  11.997 -1.3008 -0.3608 -1.4211
14044TIP3   OH263546   6.477   5.352  16.244  0.3080  0.1480  0.1156
14044TIP3    H163547   6.556   5.406  16.242  1.1901 -1.1247 -0.2161
14044TIP3    H263548   6.422   5.392  16.311  1.5799  0.5759  0.9341
14045TIP3   OH263549   2.983   3.251   0.751  0.1595  0.3125 -0.0151
14045TIP3    H163550   2.920   3.180   0.747  0.7367 -0.1758 -0.7178
14045TIP3    H263551   2.942   3.316   0.808 -1.2044  0.2393 -0.8589
14046TIP3   OH263552   2.147   1.611  16.520 -0.5454  0.1231 -0.4387
14046TIP3    H163553   2.062   1.604  16.475 -0.1983 -0.3807 -1.0358
14046TIP3    H263554   2.194   1.532  16.493 -0.3830 -0.2854  0.9540
14047TIP3   OH263555   0.248   6.152  13.779  0.4617  0.1546 -0.5087
14047TIP3    H163556   0.178   6.112  13.728  0.3061 -0.9630  0.5383
14047TIP3    H263557   0.294   6.208  13.717  1.0053 -2.0375 -2.2211
14048TIP3   OH263558   4.783   0.219  12.011  0.1471  0.3112  0.1146
14048TIP3    H163559   4.860   0.251  11.963 -0.5265  0.6094 -0.7858
14048TIP3    H263560   4.708   0.252  11.962 -0.5687 -0.4495  0.6635
14049TIP3   OH263561   2.573   0.422   5.204 -0.3674  0.4260  0.3181
14049TIP3    H163562   2.584   0.401   5.297 -2.5227 -0.6631  0.3723
14049TIP3    H263563   2.619   0.351   5.159 -2.6743 -1.3519  0.5771
14050TIP3   OH263564   3.797   4.392  15.881 -0.0436  0.0300  0.2419
14050TIP3    H163565   3.769   4.483  15.875  1.1813  0.3911 -4.9706
14050TIP3    H263566   3.730   4.343  15.832  0.9432 -1.3422  0.2112
14051TIP3   OH263567   0.046   5.881   0.505  0.1774 -0.1784 -0.4479
14051TIP3    H163568  -0.013   5.956   0.510 -0.4022 -0.6876  0.8860
14051TIP3    H263569   0.124   5.908   0.554  0.4408 -0.0567 -0.9228
14052TIP3   OH263570   2.339   1.832  12.378  0.3306 -0.1941 -0.1453
14052TIP3    H163571   2.376   1.919  12.388 -1.4941  0.6450 -0.2294
14052TIP3    H263572   2.378   1.798  12.297  0.3734  0.9199 -0.6030
14053TIP3   OH263573   3.662   3.632   5.365  0.0484  0.0429 -0.3213
14053TIP3    H163574   3.580   3.660   5.405 -1.1957  0.2149 -2.8047
14053TIP3    H263575   3.672   3.541   5.391 -0.4782  0.2505  0.6662
14054TIP3   OH263576   0.304   5.531  12.320  0.3169  0.2010  0.1867
14054TIP3    H163577   0.241   5.513  12.390  0.3626 -2.0663 -0.2849
14054TIP3    H263578   0.378   5.573  12.364 -0.3085  0.2266  1.2291
14055TIP3   OH263579   2.917   5.122  10.620 -0.6014 -0.4774 -1.3347
14055TIP3    H163580   2.982   5.062  10.658  1.2687  2.7344  1.1858
14055TIP3    H263581   2.834   5.076  10.629  0.4866 -2.2105  1.8332
14056TIP3   OH263582   0.663   2.268   2.282  0.0363 -0.0947 -0.3446
14056TIP3    H163583   0.630   2.353   2.311  0.3766 -0.1025  0.0844
14056TIP3    H263584   0.598   2.236   2.220  0.6186  1.1471 -1.6664
14057TIP3   OH263585   4.023   4.588   2.401  0.1225 -0.0579  0.1077
14057TIP3    H163586   4.019   4.501   2.361  1.1469  0.3870 -1.0081
14057TIP3    H263587   4.036   4.648   2.328 -2.2369  1.2470  0.6812
14058TIP3   OH263588   5.323   2.481   5.431  0.0800 -0.5830 -0.3562
14058TIP3    H163589   5.276   2.444   5.356 -2.3691  1.8868 -0.2230
14058TIP3    H263590   5.287   2.435   5.507 -0.1070 -0.6219 -0.4662
14059TIP3   OH263591   3.862   4.756   1.315 -0.1219 -0.0683 -0.1616
14059TIP3    H163592   3.801   4.781   1.384  1.2713  0.6677  0.8691
14059TIP3    H263593   3.839   4.812   1.241 -1.7822 -1.0230 -0.3934
14060TIP3   OH263594   4.749   0.293   2.541  0.0003 -0.4931 -0.5448
14060TIP3    H163595   4.775   0.246   2.462  1.7949  0.8211 -0.8185
14060TIP3    H263596   4.654   0.305   2.532 -0.5110 -3.7714 -0.5314
14061TIP3   OH263597   4.461   1.689   4.928 -0.2776  0.6706  0.1382
14061TIP3    H163598   4.422   1.768   4.890  0.9704  0.9152 -0.6897
14061TIP3    H263599   4.428   1.618   4.873  0.9385  0.9501 -1.0290
14062TIP3   OH263600   1.763   5.140   6.184 -0.1479  0.3023 -0.4336
14062TIP3    H163601   1.786   5.198   6.257 -2.9436 -0.7445  1.4695
14062TIP3    H263602   1.846   5.102   6.156  1.1959  1.7424  1.3243
14063TIP3   OH263603   5.358   4.477  13.984  0.7287 -0.0063  0.6368
14063TIP3    H163604   5.406   4.559  13.972 -1.8535  1.4995 -0.1135
14063TIP3    H263605   5.383   4.448  14.072 -0.1180  2.9197  1.9715
14064TIP3   OH263606   5.101   3.498   2.522  0.8057  0.4418 -0.1337
14064TIP3    H163607   5.101   3.457   2.609  1.1934  2.6690  0.9854
14064TIP3    H263608   5.114   3.425   2.462 -2.3112 -1.6207  1.4052
14065TIP3   OH263609   5.695   0.698  11.747 -0.1687 -0.2978 -0.2469
14065TIP3    H163610   5.698   0.606  11.771  0.9897 -0.9221 -2.5074
14065TIP3    H263611   5.781   0.732  11.771  0.3071 -0.4612 -1.6351
14066TIP3   OH263612   1.560   2.617  15.279 -0.0102  0.0492  0.2298
14066TIP3    H163613   1.472   2.641  15.248 -0.2138 -0.4068  0.4528
14066TIP3    H263614   1.601   2.573  15.205  0.3952  1.1296 -0.2115
14067TIP3   OH263615   3.404   5.039  12.914  0.3317  0.7449 -0.2568
14067TIP3    H163616   3.433   4.948  12.926  0.4913  0.6561 -1.2374
14067TIP3    H263617   3.448   5.067  12.834 -0.9244  1.1777 -0.8084
14068TIP3   OH263618   2.720   5.230   3.749 -0.8503 -0.7427  0.8957
14068TIP3    H163619   2.663   5.200   3.820  0.0402 -1.9759  1.1324
14068TIP3    H263620   2.809   5.216   3.782 -0.4186 -1.1960 -0.3869
14069TIP3   OH263621   2.353   3.546   2.747 -0.0122  0.5899  0.1247
14069TIP3    H163622   2.443   3.518   2.731  0.0444  0.6575  0.3196
14069TIP3    H263623   2.300   3.491   2.689  0.2702  1.6036 -1.1263
14070TIP3   OH263624   0.739   1.422  12.364 -0.9343 -0.0863 -0.4650
14070TIP3    H163625   0.649   1.405  12.335 -1.6633  1.0153  1.0103
14070TIP3    H263626   0.776   1.335  12.380 -1.8151 -0.5510 -0.8917
14071TIP3   OH263627   0.168   4.684   4.084  0.0031  0.2396  0.3976
14071TIP3    H163628   0.180   4.592   4.108 -1.3102  0.2124  1.0733
14071TIP3    H263629   0.249   4.727   4.111  0.5447 -0.6763  0.2757
14072TIP3   OH263630   0.458   3.632   1.148 -0.3256 -0.0953 -0.1184
14072TIP3    H163631   0.396   3.704   1.158 -0.2541 -0.0294 -0.1473
14072TIP3    H263632   0.407   3.553   1.168 -0.0845  0.0567  1.1747
14073TIP3   OH263633   0.447   0.802   1.009  0.0223 -0.1419  0.5990
14073TIP3    H163634   0.453   0.841   0.922 -2.1759  1.5705  1.1086
14073TIP3    H263635   0.379   0.734   1.001  0.0331 -0.1945  0.9049
14074TIP3   OH263636   5.279   6.401  15.940  0.4392  0.6974 -0.0197
14074TIP3    H163637   5.336   6.450  15.999 -0.3156 -0.2872  1.5927
14074TIP3    H263638   5.190   6.429  15.964  0.1468  0.9093 -1.2921
14075TIP3   OH263639   6.221   3.017   4.149  0.1643  0.0476  0.0519
14075TIP3    H163640   6.145   2.978   4.191 -0.7225  1.1815 -0.4388
14075TIP3    H263641   6.184   3.077   4.084  1.4811  0.4445 -0.3558
14076TIP3   OH263642   5.269   1.439  13.770 -0.5814 -0.9215 -0.2081
14076TIP3    H163643   5.336   1.471  13.711 -0.3657 -0.0613  0.4911
14076TIP3    H263644   5.316   1.419  13.852 -1.2464  0.2196  0.4709
14077TIP3   OH263645   1.992   1.511   2.550 -0.0795  0.3856 -0.4715
14077TIP3    H163646   1.923   1.578   2.551 -0.6532 -0.1961 -0.3351
14077TIP3    H263647   2.051   1.536   2.621 -1.0275  0.0012  0.4813
14078TIP3   OH263648   6.062   2.203   3.961 -0.0179 -0.2549 -0.0328
14078TIP3    H163649   6.047   2.132   4.024  1.4158  0.8512  1.6642
14078TIP3    H263650   6.153   2.192   3.934  0.0859  0.6946 -0.0858
14079TIP3   OH263651   3.033   5.626  14.205  0.2076 -0.3884  0.1237
14079TIP3    H163652   3.100   5.678  14.160  0.8045  0.9172  2.3677
14079TIP3    H263653   2.950   5.661  14.173  0.5846 -0.6262 -1.1622
14080TIP3   OH263654   1.105   4.589   1.868  0.4417 -0.0107  0.3233
14080TIP3    H163655   1.181   4.620   1.918 -0.0147 -0.5843  1.3995
14080TIP3    H263656   1.144   4.540   1.795  1.1884  3.0723 -1.5183
14081TIP3   OH263657   3.223   5.266   2.862 -0.1114  0.1555 -0.1960
14081TIP3    H163658   3.202   5.176   2.888  1.0863  0.0924  0.5937
14081TIP3    H263659   3.212   5.317   2.942  1.7112  0.2833 -0.0015
14082TIP3   OH263660   3.286   5.926  11.155  0.0074  0.2267 -0.2766
14082TIP3    H163661   3.339   5.874  11.096  1.7376  0.8285  0.6727
14082TIP3    H263662   3.302   6.017  11.129 -2.0955  0.3807 -1.1989
14083TIP3   OH263663   3.682   5.679   5.343  0.5504  0.3884 -0.4038
14083TIP3    H163664   3.670   5.720   5.257 -1.2032  0.9195  0.0452
14083TIP3    H263665   3.720   5.593   5.324 -1.4193 -0.2322 -1.8988
14084TIP3   OH263666   1.639   4.564  13.023 -0.1571  0.0538 -0.3929
14084TIP3    H163667   1.574   4.538  13.089  0.3209  2.3224  1.0921
14084TIP3    H263668   1.723   4.559  13.069  0.0898  2.6658 -0.4212
14085TIP3   OH263669   4.538   2.632  15.867  0.4332  0.2926  0.2899
14085TIP3    H163670   4.559   2.726  15.863  0.5937  0.2446 -0.0734
14085TIP3    H263671   4.624   2.589  15.871  0.4640  0.0688 -1.7106
14086TIP3   OH263672   2.836   1.975   6.405  0.3311 -0.2833 -0.2495
14086TIP3    H163673   2.769   1.940   6.346 -0.2977  2.1819 -1.1195
14086TIP3    H263674   2.895   2.023   6.347 -0.0213  1.7918  1.0067
14087TIP3   OH263675   1.335   5.765  10.888  0.0495  0.3993  0.5782
14087TIP3    H163676   1.355   5.672  10.894  1.0700  0.5668 -0.0067
14087TIP3    H263677   1.295   5.775  10.801  0.6297  0.6236  0.3360
14088TIP3   OH263678   5.167   0.623  13.578 -0.4281 -0.6091 -0.1183
14088TIP3    H163679   5.178   0.571  13.499 -2.5993 -1.3516 -0.0229
14088TIP3    H263680   5.229   0.586  13.641  0.5275 -0.7366 -1.1125
14089TIP3   OH263681   0.813   3.667   5.239 -0.9225 -0.4680 -0.4639
14089TIP3    H163682   0.732   3.708   5.269 -0.2323  0.9821 -0.4921
14089TIP3    H263683   0.867   3.663   5.318 -0.7550 -0.7610 -0.5953
14090TIP3   OH263684   2.292   3.174  16.340  0.1557 -0.9955  0.0343
14090TIP3    H163685   2.375   3.217  16.318 -0.8491  0.2925 -1.5309
14090TIP3    H263686   2.277   3.113  16.268 -1.4446  0.6688 -1.1650
14091TIP3   OH263687   2.078   3.618  12.613  0.6073 -0.5229  0.0297
14091TIP3    H163688   2.061   3.524  12.613  1.1145 -0.6249 -0.9700
14091TIP3    H263689   2.101   3.637  12.704 -1.8866 -0.8830  0.8139
14092TIP3   OH263690   1.870   1.738   2.249 -0.1322 -0.3560 -0.1229
14092TIP3    H163691   1.795   1.744   2.307 -0.4972 -1.7970 -0.4033
14092TIP3    H263692   1.946   1.753   2.305 -0.5590 -0.2682  0.4366
14093TIP3   OH263693   3.721   0.224   1.397  0.0492 -0.3753 -0.1150
14093TIP3    H163694   3.684   0.145   1.438  0.5834 -0.4803  0.1686
14093TIP3    H263695   3.815   0.211   1.401  0.1355  0.2185 -0.1966
14094TIP3   OH263696   0.983   6.249   2.732 -0.1418 -0.1127 -0.1742
14094TIP3    H163697   1.066   6.226   2.691 -0.2247  3.3797 -2.8028
14094TIP3    H263698   1.008   6.306   2.805 -0.1659 -0.1368 -0.1474
14095TIP3   OH263699   4.721   2.884   1.459 -0.3791 -0.2312 -0.5738
14095TIP3    H163700   4.814   2.893   1.437 -0.1698 -0.4348  0.1797
14095TIP3    H263701   4.675   2.899   1.377  0.2522  1.2065 -0.6912
14096TIP3   OH263702   1.408   3.488   4.431  0.0014  0.0292  0.5889
14096TIP3    H163703   1.330   3.456   4.385  0.2275 -1.7163  1.3210
14096TIP3    H263704   1.416   3.580   4.404 -1.5398 -0.1153 -0.5224
14097TIP3   OH263705   1.213   3.530  14.954 -0.2920 -0.7076  0.4738
14097TIP3    H163706   1.302   3.561  14.937 -1.1469  2.9854  1.7022
14097TIP3    H263707   1.225   3.452  15.009  2.1211 -1.4002 -0.8640
14098TIP3   OH263708   3.049   4.804  15.984 -0.2645  0.5015  0.2618
14098TIP3    H163709   3.090   4.849  16.058  1.8749  0.4664 -0.8264
14098TIP3    H263710   3.064   4.711  16.002 -0.5300  0.4511  0.2194
14099TIP3   OH263711   1.719   1.090   3.409 -0.0675  0.8165 -0.7101
14099TIP3    H163712   1.809   1.076   3.439  0.1438 -0.3496 -1.8296
14099TIP3    H263713   1.728   1.143   3.330 -0.4299  1.2794 -0.4493
14100TIP3   OH263714   1.893   3.977  15.031  0.3617  0.3938  0.2300
14100TIP3    H163715   1.933   4.063  15.047  0.2008  0.4563  0.2915
14100TIP3    H263716   1.968   3.919  15.016  0.4680  0.5595  0.1125
14101TIP3   OH263717   1.795   3.175  13.947 -0.5402  0.1296  0.2384
14101TIP3    H163718   1.724   3.208  14.002 -0.5217 -0.5835  0.7063
14101TIP3    H263719   1.811   3.086  13.980 -0.5482 -0.3201 -0.9523
14102TIP3   OH263720   2.164   4.237  17.011 -0.1058 -0.0105  0.1721
14102TIP3    H163721   2.232   4.211  16.949 -0.4860 -2.6740  0.7483
14102TIP3    H263722   2.200   4.214  17.097 -1.5470 -1.1684  0.5109
14103TIP3   OH263723   0.138   5.341  10.608 -0.4185 -0.3642 -0.4522
14103TIP3    H163724   0.205   5.282  10.576 -0.2658 -0.2497 -0.3423
14103TIP3    H263725   0.110   5.390  10.530  0.8648  0.8344 -0.2100
14104TIP3   OH263726   3.066   3.858   1.912 -0.0658 -0.5138  0.1831
14104TIP3    H163727   3.026   3.910   1.842 -0.1311  0.6277  1.0271
14104TIP3    H263728   2.993   3.813   1.954 -0.4530  1.0484  1.3016
14105TIP3   OH263729   2.659   5.567  16.819  0.0163 -0.0362  0.3504
14105TIP3    H163730   2.628   5.656  16.835 -0.1847  0.2606 -1.4625
14105TIP3    H263731   2.754   5.573  16.824  0.0015  0.2760  0.2781
14106TIP3   OH263732   0.905   5.554  12.607 -0.0375  0.0617 -0.1387
14106TIP3    H163733   0.874   5.519  12.691  2.0441 -0.6136  0.4287
14106TIP3    H263734   0.834   5.537  12.546 -0.6972 -1.5600  0.9976
14107TIP3   OH263735   2.124   1.753  14.006 -0.5402 -0.4784  1.0161
14107TIP3    H163736   2.096   1.742  13.915  0.6915 -2.2008  0.8017
14107TIP3    H263737   2.128   1.848  14.018  0.0809 -0.1989 -0.9914
14108TIP3   OH263738   5.436   1.517   4.122  0.4137 -0.0947 -0.2436
14108TIP3    H163739   5.419   1.592   4.180  1.4463 -0.2804  0.3250
14108TIP3    H263740   5.366   1.456   4.141 -1.7911  1.5958 -2.3245
14109TIP3   OH263741   0.075   4.761   5.254  0.2762  0.3761  0.4106
14109TIP3    H163742   0.041   4.838   5.299 -0.1826  0.0094  0.7092
14109TIP3    H263743   0.000   4.726   5.206  0.7315  0.6751 -0.5245
14110TIP3   OH263744   4.913   4.180   1.399  0.0778 -0.7530  0.0991
14110TIP3    H163745   4.994   4.227   1.384 -0.6297  0.2008 -0.8715
14110TIP3    H263746   4.895   4.192   1.492 -0.1021  0.9481 -0.1371
14111TIP3   OH263747   3.058   2.209   6.369  0.8468 -0.3556  0.3992
14111TIP3    H163748   2.995   2.242   6.433  0.0842  0.5485 -0.7772
14111TIP3    H263749   3.140   2.254   6.391  0.5667  0.0279  0.6868
14112TIP3   OH263750   2.075   2.857   1.375 -0.0024 -0.2511  0.3593
14112TIP3    H163751   2.069   2.941   1.419  1.6773 -0.8145  1.7833
14112TIP3    H263752   1.985   2.836   1.350 -0.2716  2.7994 -1.7809
14113TIP3   OH263753   3.173   3.338   4.250 -0.0757  0.3371  0.0081
14113TIP3    H163754   3.193   3.425   4.287 -0.1565  0.0601  0.7263
14113TIP3    H263755   3.241   3.324   4.185 -0.0907  0.9644 -0.1505
14114TIP3   OH263756   1.498   6.308   1.198  0.4696  0.1387  0.2467
14114TIP3    H163757   1.514   6.214   1.208  0.0302  0.0438  0.0943
14114TIP3    H263758   1.403   6.316   1.193  0.5246  0.5162 -0.4480
14115TIP3   OH263759   2.237   6.064   5.406  0.3825 -0.1641 -0.5903
14115TIP3    H163760   2.163   6.124   5.402 -1.1515 -1.9461 -0.2439
14115TIP3    H263761   2.312   6.119   5.428 -0.3521  2.0590 -3.1782
14116TIP3   OH263762   6.144   1.036  13.926  0.3977 -0.1259 -0.1226
14116TIP3    H163763   6.213   1.066  13.985  1.0356 -2.4193  0.3692
14116TIP3    H263764   6.082   0.990  13.982  0.3630 -1.2561 -1.0600
14117TIP3   OH263765   2.325   1.701   1.109  0.6514 -0.5573  0.1017
14117TIP3    H163766   2.352   1.620   1.151  0.1816 -0.9030 -0.2544
14117TIP3    H263767   2.261   1.739   1.169  1.4441 -0.0555  0.6410
14118TIP3   OH263768   0.651   0.009  12.131  0.2438 -0.1311 -0.3417
14118TIP3    H163769   0.631   0.089  12.083  0.9967 -0.1898 -0.7718
14118TIP3    H263770   0.700  -0.044  12.068 -0.6013 -1.1092 -0.1997
14119TIP3   OH263771   1.815   3.206  16.666  0.0149 -0.1815  0.6267
14119TIP3    H163772   1.800   3.138  16.600  0.5140  0.5827 -0.2952
14119TIP3    H263773   1.828   3.157  16.747  0.3628 -1.2002 -0.0173
14120TIP3   OH263774   5.676   5.956  11.114  0.1682 -0.3794 -0.1265
14120TIP3    H163775   5.720   6.035  11.083 -1.3706  1.7265  2.6177
14120TIP3    H263776   5.644   5.913  11.034  1.7727  1.2613 -1.7462
14121TIP3   OH263777   3.677   3.269   4.592 -0.5028 -0.1552 -0.3893
14121TIP3    H163778   3.740   3.296   4.659  0.0522  0.2907 -1.0744
14121TIP3    H263779   3.595   3.258   4.640 -0.8331  2.9451 -0.0346
14122TIP3   OH263780   1.652   1.667  16.319  0.3874  0.2153  0.2942
14122TIP3    H163781   1.586   1.609  16.281  1.0179 -1.0019  0.9892
14122TIP3    H263782   1.667   1.733  16.251  0.3455 -0.9860 -0.9366
14123TIP3   OH263783   5.848   4.383  12.569 -0.3938 -0.0491  0.1712
14123TIP3    H163784   5.861   4.477  12.582  1.7602  0.0687 -2.0991
14123TIP3    H263785   5.931   4.343  12.593 -0.7588 -1.1918 -0.3720
14124TIP3   OH263786   2.925   3.136   3.831  0.4216  0.5250  0.1237
14124TIP3    H163787   2.945   3.220   3.874  1.4082  0.4244 -0.1200
14124TIP3    H263788   2.987   3.074   3.869  0.0269  0.0076 -0.0605
14125TIP3   OH263789   5.605   4.519  12.791  0.7753 -0.0356 -0.2732
14125TIP3    H163790   5.632   4.428  12.779  1.5783  0.1208  0.2377
14125TIP3    H263791   5.686   4.569  12.779  0.1682  0.6943 -1.4655
14126TIP3   OH263792   4.012   5.667   0.510 -0.0714  0.0249 -0.0819
14126TIP3    H163793   4.060   5.603   0.456 -0.9036  0.6448 -1.6148
14126TIP3    H263794   3.931   5.684   0.461  0.7185  3.3101 -0.4725
14127TIP3   OH263795   6.474   5.437   3.021  0.1713 -0.8294 -0.3714
14127TIP3    H163796   6.569   5.427   3.013  0.2948 -1.0999  1.1623
14127TIP3    H263797   6.440   5.348   3.007  0.1814 -0.8118 -0.5035
14128TIP3   OH263798   3.167   4.655  15.119  0.2829  1.1563  0.1929
14128TIP3    H163799   3.208   4.569  15.125 -1.4224  0.3438  0.9057
14128TIP3    H263800   3.170   4.689  15.209  0.2943  1.5321  0.0538
14129TIP3   OH263801   3.368   3.382  14.417 -0.2053  0.1288  0.2304
14129TIP3    H163802   3.351   3.339  14.500  1.7396  1.3684  1.3362
14129TIP3    H263803   3.353   3.314  14.351 -0.7060 -1.1809  1.6497
14130TIP3   OH263804   0.100   1.689  14.638  0.1112  0.2648  0.1854
14130TIP3    H163805   0.178   1.658  14.685  0.1591  0.4789  0.2481
14130TIP3    H263806   0.107   1.785  14.641  0.7029  0.2802 -1.2152
14131TIP3   OH263807   5.047   6.280   5.488 -0.4185 -0.3268 -0.2450
14131TIP3    H163808   5.002   6.364   5.491  0.0907 -0.0826  0.9096
14131TIP3    H263809   4.985   6.218   5.526 -0.0895 -0.1200  0.6611
14132TIP3   OH263810   5.904   5.823  10.512  0.2368 -0.5983 -0.1157
14132TIP3    H163811   5.913   5.785  10.425  0.1638 -0.1365 -0.3307
14132TIP3    H263812   5.993   5.822  10.548  0.4025 -0.0783 -0.5028
14133TIP3   OH263813   1.391   0.984  13.702 -0.0937 -0.3794  0.0562
14133TIP3    H163814   1.420   1.028  13.622  0.4130 -0.5243  0.1575
14133TIP3    H263815   1.385   1.054  13.767  2.8943 -0.7095  0.8377
14134TIP3   OH263816   0.734   3.896  12.973  0.6403 -0.1465 -0.6508
14134TIP3    H163817   0.702   3.908  13.062 -0.5524 -1.8520 -0.7924
14134TIP3    H263818   0.817   3.850  12.983  0.8184  0.2232 -0.4103
14135TIP3   OH263819   1.995   5.361  16.236 -0.0739 -0.2445 -0.3177
14135TIP3    H163820   1.912   5.346  16.282  0.1845  0.4631  0.4049
14135TIP3    H263821   2.006   5.456  16.236  1.5784 -0.3882  1.1469
14136TIP3   OH263822   4.888   0.391  15.263 -0.3357 -0.3608 -0.1433
14136TIP3    H163823   4.909   0.469  15.314 -0.4351  0.6568 -1.6090
14136TIP3    H263824   4.972   0.346  15.253 -0.1548 -0.0962  0.1550
14137TIP3   OH263825   0.358   1.361   4.362  0.0435 -0.0386 -0.4858
14137TIP3    H163826   0.398   1.345   4.277 -1.1590 -1.8533 -0.7664
14137TIP3    H263827   0.275   1.405   4.342  1.0517  2.1993 -0.0166
14138TIP3   OH263828   3.325   2.337  12.786  0.0332  0.2697  0.5346
14138TIP3    H163829   3.326   2.429  12.812 -1.2243  0.8357 -1.1778
14138TIP3    H263830   3.233   2.311  12.797  0.2887 -0.6323  0.5370
14139TIP3   OH263831   0.861   3.814   4.531 -0.2603  0.4313  0.2111
14139TIP3    H163832   0.770   3.825   4.559  0.3073 -0.1719  2.5017
14139TIP3    H263833   0.905   3.893   4.560  0.1690  0.2074  0.1782
14140TIP3   OH263834   1.775   1.015   5.196 -0.0692 -0.1982  0.3177
14140TIP3    H163835   1.794   1.102   5.160 -0.6037 -0.2579 -0.1379
14140TIP3    H263836   1.812   1.016   5.284  0.8370  0.1269 -0.0639
14141TIP3   OH263837   0.444   1.170   1.999 -0.0190  0.6406 -0.3269
14141TIP3    H163838   0.352   1.144   2.000  0.3448 -0.9259  2.0073
14141TIP3    H263839   0.469   1.169   1.907 -2.2491  0.7732 -0.9699
14142TIP3   OH263840   3.302   2.978   3.273  0.4995 -0.0625 -0.1975
14142TIP3    H163841   3.281   2.994   3.366 -2.1756 -0.6689 -0.6061
14142TIP3    H263842   3.348   2.894   3.274  0.2852 -0.1866  0.5703
14143TIP3   OH263843   1.784   5.287  12.826 -0.8914 -0.8598 -0.1993
14143TIP3    H163844   1.689   5.297  12.833 -0.9075  1.7860 -2.3856
14143TIP3    H263845   1.799   5.268  12.733  0.7039 -1.4170  0.1475
14144TIP3   OH263846   5.179   0.095   4.822 -0.3372 -0.2296  0.1314
14144TIP3    H163847   5.214   0.124   4.907 -1.7243 -1.0686  1.0380
14144TIP3    H263848   5.144   0.008   4.840  1.3706 -1.4202 -1.8740
14145TIP3   OH263849   3.729   0.966   0.593 -0.6669 -1.0754 -0.0016
14145TIP3    H163850   3.786   0.924   0.657 -0.4874  1.7528  1.8701
14145TIP3    H263851   3.642   0.931   0.613 -0.7510  0.3291  2.4433
14146TIP3   OH263852   1.534   1.180   0.067 -0.9436  0.4432 -0.0221
14146TIP3    H163853   1.497   1.125  -0.002 -0.5335  1.4198 -1.0610
14146TIP3    H263854   1.481   1.260   0.065 -0.5802  0.7036  0.4305
14147TIP3   OH263855   3.714   0.698  16.402  0.3656  0.0071 -0.1551
14147TIP3    H163856   3.759   0.685  16.485 -0.6881  1.0242  0.5995
14147TIP3    H263857   3.624   0.722  16.426 -0.5972 -1.8241 -1.5985
14148TIP3   OH263858   2.665   3.448  11.735  0.2654  0.1386 -0.3100
14148TIP3    H163859   2.641   3.416  11.648 -1.1403 -1.9717  0.7821
14148TIP3    H263860   2.636   3.380  11.795 -0.1006  2.1608  1.9634
14149TIP3   OH263861   3.679   3.510   6.329  0.0877  0.3089 -0.2706
14149TIP3    H163862   3.668   3.415   6.340 -0.4407  0.5156  1.2292
14149TIP3    H263863   3.774   3.523   6.336  0.0686  0.0074  0.6907
14150TIP3   OH263864   3.187   4.555   6.176  0.7410  0.5071  0.1823
14150TIP3    H163865   3.149   4.579   6.260 -2.7823  1.4006 -1.4858
14150TIP3    H263866   3.143   4.473   6.152 -0.1956  1.5027 -1.7862
14151TIP3   OH263867   3.671   3.607   0.747  0.0990  0.0284  0.3642
14151TIP3    H163868   3.599   3.565   0.699 -0.3200 -0.2934  1.2432
14151TIP3    H263869   3.687   3.689   0.700  1.0427 -1.1600 -1.4905
14152TIP3   OH263870   0.698   6.231  12.697  0.2651  0.3074  0.1889
14152TIP3    H163871   0.763   6.300  12.701  0.0360  0.5226  0.2511
14152TIP3    H263872   0.747   6.153  12.673  0.9957 -0.0914  2.6450
14153TIP3   OH263873   0.538   0.059   5.726 -0.1551  0.5481  0.4068
14153TIP3    H163874   0.552   0.015   5.809  1.3062 -0.1277 -0.1693
14153TIP3    H263875   0.574  -0.000   5.660 -2.5848  0.3741 -0.9104
14154TIP3   OH263876   3.537   3.277  16.183 -0.2795 -0.1476  0.8466
14154TIP3    H163877   3.454   3.304  16.223  0.2293  0.1580  1.7243
14154TIP3    H263878   3.594   3.354  16.192  0.0940 -0.3420  0.2235
14155TIP3   OH263879   2.157   2.801  10.859  0.1691 -0.0328 -0.6478
14155TIP3    H163880   2.086   2.848  10.815 -0.3706 -1.0950 -0.9482
14155TIP3    H263881   2.234   2.856  10.844 -0.5834  1.1604 -0.2791
14156TIP3   OH263882   2.242   0.314  13.662  0.0195  0.4769 -0.1800
14156TIP3    H163883   2.317   0.261  13.635  0.3561  1.3555 -1.0286
14156TIP3    H263884   2.216   0.360  13.582 -1.4796  0.1349  0.0834
14157TIP3   OH263885   6.116   1.859  11.136 -0.3141 -0.2367  0.2480
14157TIP3    H163886   6.110   1.764  11.129 -2.5763 -0.1249 -0.2658
14157TIP3    H263887   6.110   1.889  11.045 -1.2152  0.4357  0.5227
14158TIP3   OH263888   5.444   2.297   0.861  0.5961  0.0510 -0.5610
14158TIP3    H163889   5.451   2.383   0.904  1.6852  0.7499 -2.0522
14158TIP3    H263890   5.384   2.248   0.917 -0.0811  1.7864  0.3237
14159TIP3   OH263891   0.935   4.997  14.767  0.2673 -0.1287 -0.2355
14159TIP3    H163892   0.994   5.047  14.711 -1.0577 -0.7193 -2.2642
14159TIP3    H263893   0.958   5.024  14.856  1.1611  2.3109 -1.1168
14160TIP3   OH263894   3.124   3.005  12.893 -0.0398  0.0910 -0.1446
14160TIP3    H163895   3.163   3.044  12.971 -0.7136 -0.5795  0.5468
14160TIP3    H263896   3.197   2.963  12.848  0.5643  1.4738 -0.5131
14161TIP3   OH263897   4.771   5.380  12.660  0.1275  0.1289  0.4582
14161TIP3    H163898   4.698   5.441  12.672  0.3220  0.0043  2.8134
14161TIP3    H263899   4.805   5.400  12.573 -1.0093  2.0663  0.3984
14162TIP3   OH263900   3.589   2.337  15.841 -0.0448 -0.4157  0.0875
14162TIP3    H163901   3.587   2.293  15.757 -1.8015  0.8415 -0.5895
14162TIP3    H263902   3.676   2.377  15.846  0.2663 -0.9598 -0.8673
14163TIP3   OH263903   2.590   5.417  10.784  0.4046 -0.0802 -0.6611
14163TIP3    H163904   2.570   5.346  10.723  0.5676 -0.6961 -0.0084
14163TIP3    H263905   2.588   5.496  10.730  0.6087 -0.6218 -1.4808
14164TIP3   OH263906   1.458   6.580  11.825 -0.0346 -0.4159 -0.1905
14164TIP3    H163907   1.391   6.586  11.894  1.4251 -0.5889  1.3103
14164TIP3    H263908   1.530   6.532  11.866  1.7179  1.2513 -1.1569
14165TIP3   OH263909   5.238   1.931   4.053  0.1639 -0.2959 -0.8552
14165TIP3    H163910   5.309   1.973   4.101 -1.0392 -0.6300  1.3120
14165TIP3    H263911   5.212   1.995   3.987  2.1963 -0.0329 -1.4630
14166TIP3   OH263912   4.701   2.015   0.793  0.3425 -0.2418  0.0787
14166TIP3    H163913   4.609   2.010   0.765  1.0080 -0.4434 -2.3065
14166TIP3    H263914   4.719   1.928   0.829 -0.4091 -0.1647  0.6809
14167TIP3   OH263915   1.564   4.716   3.296 -0.3845  0.1866  0.0285
14167TIP3    H163916   1.525   4.631   3.319 -2.1094  0.8615 -0.2108
14167TIP3    H263917   1.653   4.696   3.270 -0.7732 -1.5598 -0.0571
14168TIP3   OH263918   0.178   3.858   1.946 -0.3227  0.0540 -0.2005
14168TIP3    H163919   0.155   3.899   2.029 -0.6697  1.2315 -0.8519
14168TIP3    H263920   0.263   3.897   1.923 -0.9657  0.9599 -1.1513
14169TIP3   OH263921   4.839   2.909   4.602  0.0955  0.2762 -0.6555
14169TIP3    H163922   4.848   2.959   4.521  1.1933 -0.0482 -0.7516
14169TIP3    H263923   4.901   2.950   4.662 -0.8244  0.6109  0.0797
14170TIP3   OH263924   2.361   4.328  12.868  0.2755  0.2302  0.2135
14170TIP3    H163925   2.330   4.282  12.946 -1.0417  0.8344  0.0651
14170TIP3    H263926   2.290   4.318  12.804  2.0850 -1.9305 -1.6579
14171TIP3   OH263927   0.004   0.186  17.020 -0.1928  0.0450 -0.3237
14171TIP3    H163928   0.049   0.238  16.954  0.8494 -1.2256 -0.6490
14171TIP3    H263929  -0.062   0.245  17.057  1.9204  2.0913  0.3833
14172TIP3   OH263930   4.458   4.003   5.728  0.3258  0.1409 -0.6219
14172TIP3    H163931   4.551   4.018   5.747  0.0634 -0.0049  0.8670
14172TIP3    H263932   4.458   3.932   5.664  1.2224 -0.5694  0.1376
14173TIP3   OH263933   5.558   3.110  14.676 -0.1306  0.7647  0.1954
14173TIP3    H163934   5.597   3.065  14.751  0.4274  2.3417  0.8915
14173TIP3    H263935   5.606   3.076  14.600  1.4234  1.3752  0.8632
14174TIP3   OH263936   2.912   2.601  11.625  0.2230  0.2708 -0.4967
14174TIP3    H163937   2.868   2.672  11.673  1.2424  1.0319 -0.6608
14174TIP3    H263938   2.997   2.592  11.667  0.1322 -0.8342 -0.5206
14175TIP3   OH263939   6.063   6.407   1.716  0.2367 -0.8850 -0.6464
14175TIP3    H163940   6.147   6.385   1.677  0.4706 -0.5725 -0.3289
14175TIP3    H263941   6.084   6.429   1.807 -0.3883 -2.3861 -0.1057
14176TIP3   OH263942   5.359   5.424  10.755  0.1457 -0.1371  0.3169
14176TIP3    H163943   5.416   5.496  10.781 -0.2586  0.4437 -0.3734
14176TIP3    H263944   5.313   5.456  10.678 -1.7370 -0.2661  1.3247
14177TIP3   OH263945   4.457   5.309  12.835 -0.3930  0.3774 -0.8429
14177TIP3    H163946   4.543   5.268  12.831 -0.2662  0.7123 -1.7522
14177TIP3    H263947   4.443   5.325  12.928  0.6673  0.6168 -0.7073
14178TIP3   OH263948   3.389   4.272  11.673 -0.0953 -1.0704 -0.4635
14178TIP3    H163949   3.465   4.330  11.673 -0.8353 -0.0581  0.4830
14178TIP3    H263950   3.409   4.207  11.741 -0.8886  0.3596  1.2002
14179TIP3   OH263951   5.990   2.875   4.169  0.2139 -0.5046  0.7036
14179TIP3    H163952   5.949   2.959   4.150 -1.5016 -1.1603  1.3106
14179TIP3    H263953   5.946   2.813   4.111  1.0566 -1.0906  0.6634
14180TIP3   OH263954   4.055   4.528   5.782  0.0241 -0.0000 -0.2728
14180TIP3    H163955   4.113   4.556   5.853 -1.1664  0.2870  0.6204
14180TIP3    H263956   4.003   4.457   5.819 -0.8650  0.3902 -0.7343
14181TIP3   OH263957   3.881   3.924  11.989  0.5262  0.1318 -0.5238
14181TIP3    H163958   3.945   3.853  11.982  1.5489  1.1203 -2.1104
14181TIP3    H263959   3.922   3.987  12.048 -0.7917 -0.9515  1.6288
14182TIP3   OH263960   1.214   5.137   3.398 -0.1020  0.8933 -0.7871
14182TIP3    H163961   1.168   5.101   3.321 -2.2930  1.9520 -0.0673
14182TIP3    H263962   1.245   5.059   3.445  0.8995  0.2157 -2.4962
14183TIP3   OH263963   0.030   5.862   1.283 -0.7747  0.0751  1.0012
14183TIP3    H163964   0.077   5.916   1.346 -0.6174  1.8347 -0.5297
14183TIP3    H263965  -0.059   5.897   1.285 -0.3834  1.3549 -0.9021
14184TIP3   OH263966   6.205   0.046  15.536 -0.0547  0.6170 -0.3232
14184TIP3    H163967   6.151   0.089  15.470 -0.9681 -0.2877 -0.1894
14184TIP3    H263968   6.146   0.033  15.611  0.6617  0.6391  0.2568
14185TIP3   OH263969   4.100   3.756   1.826  0.0506 -0.2378 -0.5966
14185TIP3    H163970   4.071   3.665   1.824  0.8760 -0.5011 -0.8028
14185TIP3    H263971   4.034   3.803   1.776 -1.9229 -0.2513  1.7919
14186TIP3   OH263972   4.000   4.241  10.831  0.3443 -0.2570 -0.3831
14186TIP3    H163973   4.035   4.152  10.834  0.7733 -0.0914 -0.4530
14186TIP3    H263974   4.076   4.297  10.820  0.3152  0.2907  1.7313
14187TIP3   OH263975   4.004   0.715  10.819 -0.0436  0.9124  0.0883
14187TIP3    H163976   3.929   0.756  10.777 -0.6965 -2.7511 -2.7883
14187TIP3    H263977   3.966   0.648  10.877  0.8993 -0.4511 -0.8024
14188TIP3   OH263978   0.428   1.086   4.471  0.1270  0.0361 -0.3103
14188TIP3    H163979   0.358   1.149   4.455 -1.8048 -2.4257 -2.5644
14188TIP3    H263980   0.488   1.098   4.397 -0.0556 -0.4768 -0.5463
14189TIP3   OH263981   4.450   1.983  16.045  0.0414  0.0061 -0.0399
14189TIP3    H163982   4.454   1.971  15.950 -0.3513 -0.5341  0.0058
14189TIP3    H263983   4.478   1.899  16.081  1.3720  0.5815  0.3432
14190TIP3   OH263984   1.427   6.669  13.695 -0.0599  0.3177  0.0346
14190TIP3    H163985   1.361   6.724  13.653 -1.4017 -0.3281  1.1883
14190TIP3    H263986   1.502   6.726  13.706 -0.3543  1.0446 -1.4491
14191TIP3   OH263987   3.341   5.266  16.954  0.2300 -0.0485 -0.2410
14191TIP3    H163988   3.430   5.247  16.922  0.6142  2.1995 -0.6556
14191TIP3    H263989   3.288   5.274  16.875 -0.0538 -0.0928 -0.0559
14192TIP3   OH263990   6.110   1.618   1.264 -0.2312 -0.4289 -0.7906
14192TIP3    H163991   6.118   1.524   1.250 -0.4932 -0.8374  1.4577
14192TIP3    H263992   6.080   1.652   1.180 -0.4891 -2.3905 -1.5448
14193TIP3   OH263993   5.763   6.503  15.029  0.3206 -0.1439  0.3527
14193TIP3    H163994   5.835   6.445  15.053  0.4655 -0.3658 -0.5983
14193TIP3    H263995   5.779   6.527  14.938 -1.1074 -0.6576 -0.0670
14194TIP3   OH263996   6.748   1.171   5.459 -0.1350 -0.3189  0.2899
14194TIP3    H163997   6.756   1.096   5.517 -0.3461 -0.2014  0.4727
14194TIP3    H263998   6.657   1.200   5.468 -0.4709 -0.9205 -0.8723
14195TIP3   OH263999   1.753   2.151   2.502  0.2502 -0.0691 -0.3960
14195TIP3    H164000   1.657   2.158   2.504  0.2655  0.2776 -0.7451
14195TIP3    H264001   1.770   2.064   2.468  0.0573 -0.3853  0.3060
14196TIP3   OH264002   2.537   6.527  11.890 -0.5179  0.2159  0.3110
14196TIP3    H164003   2.454   6.506  11.848 -0.4550 -0.4773  0.5143
14196TIP3    H264004   2.516   6.597  11.951 -0.9082  0.2003  0.1983
14197TIP3   OH264005   1.788   1.562  12.408 -0.1164 -0.0806 -0.0602
14197TIP3    H164006   1.716   1.537  12.465 -0.2577 -1.2904 -0.7559
14197TIP3    H264007   1.848   1.611  12.465 -0.3250 -1.1461  1.0954
14198TIP3   OH264008   1.080   5.849   4.942 -0.8646  0.1022  0.4736
14198TIP3    H164009   1.047   5.859   5.031  0.1382  2.3058  0.6793
14198TIP3    H264010   1.156   5.791   4.951 -0.3590  0.8399  1.2092
14199TIP3   OH264011   6.179   2.706  14.817  0.1083  0.2974 -0.4615
14199TIP3    H164012   6.250   2.708  14.752  0.0073 -0.0573 -0.5868
14199TIP3    H264013   6.099   2.702  14.764 -0.0569  1.6267 -0.3356
14200TIP3   OH264014   3.622   0.009  11.761  0.0928 -0.3356  0.1353
14200TIP3    H164015   3.568  -0.033  11.694  0.1636  0.0983 -0.1974
14200TIP3    H264016   3.711  -0.017  11.740  0.4199  1.8834 -1.5270
14201TIP3   OH264017   5.532   3.713  14.673 -0.0256  0.1114  0.0274
14201TIP3    H164018   5.497   3.742  14.588 -1.1245 -1.5056 -0.1255
14201TIP3    H264019   5.472   3.643  14.700  0.0270  0.9091  2.3863
14202TIP3   OH264020   1.606   6.225  14.087  0.4151 -0.1941 -0.5159
14202TIP3    H164021   1.672   6.196  14.024 -0.5122 -0.6121 -1.3135
14202TIP3    H264022   1.582   6.313  14.058 -0.0754 -0.4203 -0.8042
14203TIP3   OH264023   5.791   3.654  12.763  0.0262  0.3175 -0.5130
14203TIP3    H164024   5.861   3.687  12.819 -1.6211 -0.9030  2.4837
14203TIP3    H264025   5.731   3.727  12.753  0.3201  0.5377 -0.6764
14204TIP3   OH264026   5.008   5.432   4.586  0.4014 -0.1175  0.1232
14204TIP3    H164027   5.060   5.474   4.517 -0.2188  0.4796  0.0150
14204TIP3    H264028   4.918   5.451   4.563  0.2113  2.2532  2.4198
14205TIP3   OH264029   1.514   3.506  12.131  0.0692  0.0891  0.4865
14205TIP3    H164030   1.507   3.545  12.218  0.5197  0.6770  0.2643
14205TIP3    H264031   1.509   3.580  12.071 -2.0102 -0.4458 -0.0819
14206TIP3   OH264032   5.035   2.165  13.856  0.8809 -0.1088  0.3578
14206TIP3    H164033   5.110   2.209  13.816  0.3350  0.7706  0.2760
14206TIP3    H264034   4.961   2.188  13.799  0.5604 -1.0415  0.3805
14207TIP3   OH264035   1.119   4.843   1.102 -0.3659 -0.0347 -0.3293
14207TIP3    H164036   1.056   4.879   1.164  0.3404 -0.1448  0.4630
14207TIP3    H264037   1.204   4.874   1.132  0.2779 -2.2668  0.3729
14208TIP3   OH264038   0.466   4.023  15.717 -0.0714  0.1403  0.6613
14208TIP3    H164039   0.447   3.931  15.702 -1.6874  0.6199 -0.5373
14208TIP3    H264040   0.561   4.027  15.726  0.0621 -1.5704  0.3301
14209TIP3   OH264041   4.206   1.687   2.764 -0.1964  0.3770  0.2395
14209TIP3    H164042   4.158   1.737   2.699  1.5004  1.5621 -0.1631
14209TIP3    H264043   4.243   1.613   2.715  1.0324  1.2376 -0.1756
14210TIP3   OH264044   3.289   4.786  12.173  0.4719  0.1746 -0.0257
14210TIP3    H164045   3.308   4.705  12.219  2.6977  0.7293  0.1434
14210TIP3    H264046   3.323   4.855  12.230  0.1622  1.1132 -0.9411
14211TIP3   OH264047   0.385   0.936  14.863 -0.4910 -0.0670 -0.0026
14211TIP3    H164048   0.329   0.868  14.825  1.2596 -1.9849  0.6469
14211TIP3    H264049   0.344   0.957  14.947 -1.4510  0.2518 -0.5392
14212TIP3   OH264050   5.888   3.736  10.908  0.0080 -0.3824 -0.0502
14212TIP3    H164051   5.923   3.770  10.825  1.7760  0.5234  0.9942
14212TIP3    H264052   5.946   3.663  10.930 -0.1540 -0.3191  0.5965
14213TIP3   OH264053   5.998   0.710   6.426 -0.2970 -0.4315  0.2855
14213TIP3    H164054   6.053   0.682   6.498 -2.3005  2.1144  3.0633
14213TIP3    H264055   6.001   0.806   6.429 -0.9421 -0.2034 -2.7053
14214TIP3   OH264056   0.182   2.274   3.485  0.0185 -0.4498  0.2576
14214TIP3    H164057   0.174   2.203   3.421  0.5992 -0.1825 -0.1113
14214TIP3    H264058   0.237   2.339   3.443 -1.9492  1.0684 -0.1327
14215TIP3   OH264059   2.583   2.097   6.528  0.0764 -0.4438  0.0077
14215TIP3    H164060   2.665   2.074   6.483  0.4138 -0.0733  0.4247
14215TIP3    H264061   2.550   2.013   6.561  0.8360 -0.4573  0.7469
14216TIP3   OH264062   4.621   1.833   2.550 -0.0816  0.3205  0.4555
14216TIP3    H164063   4.562   1.908   2.539 -0.2098  0.5116  2.1444
14216TIP3    H264064   4.649   1.811   2.461 -1.0513  1.5545 -0.1889
14217TIP3   OH264065   4.713   1.980   2.291  0.4235 -0.0571 -0.5667
14217TIP3    H164066   4.711   1.894   2.249 -0.6695  0.0907 -0.8552
14217TIP3    H264067   4.791   1.977   2.347 -0.0989 -1.6011  0.1726
14218TIP3   OH264068   1.660   4.888  13.879  0.6076  0.1422  0.4733
14218TIP3    H164069   1.569   4.914  13.866  0.8546 -0.0305 -1.9308
14218TIP3    H264070   1.711   4.957  13.839  1.4299 -1.0275 -0.5641
14219TIP3   OH264071   0.484   4.831  15.126 -0.0704 -0.2384  1.0217
14219TIP3    H164072   0.461   4.923  15.115 -3.0459 -0.9773  0.0236
14219TIP3    H264073   0.407   4.792  15.168  0.4862 -2.5176  0.0951
14220TIP3   OH264074   5.421   5.653  16.588  0.3439  0.5657 -0.1089
14220TIP3    H164075   5.471   5.717  16.538 -0.9380  1.2254 -0.5939
14220TIP3    H264076   5.368   5.608  16.522 -0.4554  0.5923  0.5026
14221TIP3   OH264077   4.668   4.165  11.222 -0.2064  0.5997  0.3461
14221TIP3    H164078   4.702   4.133  11.306  0.1836  1.7157  0.6255
14221TIP3    H264079   4.734   4.136  11.158  1.3756  2.7680  0.8868
14222TIP3   OH264080   5.604   3.604   4.518 -0.4285 -0.3601 -0.6733
14222TIP3    H164081   5.630   3.574   4.430  2.1796 -2.1971  0.5976
14222TIP3    H264082   5.617   3.698   4.516 -1.6272 -0.1691 -2.5962
14223TIP3   OH264083   5.999   4.022   3.355 -0.0850 -0.1660  0.0825
14223TIP3    H164084   6.074   4.079   3.366  2.5795 -3.3591  0.0334
14223TIP3    H264085   5.986   3.982   3.441  0.3660 -1.9290 -0.6232
14224TIP3   OH264086   2.530   4.562   4.175 -0.5044  0.3388  0.0523
14224TIP3    H164087   2.512   4.493   4.110 -1.1216  2.2213 -1.8693
14224TIP3    H264088   2.449   4.613   4.179 -0.8718 -0.3146  3.1751
14225TIP3   OH264089   0.613   4.016  13.207  0.3716  0.0795  0.4968
14225TIP3    H164090   0.569   4.046  13.127 -1.9056 -1.9002  0.9005
14225TIP3    H264091   0.573   4.067  13.277 -0.9157 -1.2998  0.8031
14226TIP3   OH264092   1.500   3.921   4.687 -0.6360 -0.0874 -0.0716
14226TIP3    H164093   1.469   3.903   4.598  1.1345  1.1646 -0.9936
14226TIP3    H264094   1.429   3.890   4.743 -2.3087  0.1166 -1.9429
14227TIP3   OH264095   5.579   1.948   0.230  0.1987  0.6484  0.2915
14227TIP3    H164096   5.586   2.030   0.278  0.3396  1.0506 -0.4040
14227TIP3    H264097   5.606   1.970   0.141  0.4215 -0.1947  0.1459
14228TIP3   OH264098   6.317   0.172  13.739 -0.3862  0.5011 -0.1741
14228TIP3    H164099   6.306   0.160  13.645 -0.4667  0.0019 -0.1036
14228TIP3    H264100   6.249   0.118  13.779 -0.6722  1.1029  0.1632
14229TIP3   OH264101   0.662   3.868  16.512 -0.4775 -0.3573  0.0610
14229TIP3    H164102   0.593   3.929  16.487 -1.4384 -0.1386  2.8446
14229TIP3    H264103   0.739   3.899  16.465 -1.4388  1.6747 -0.3130
14230TIP3   OH264104   6.793   5.459  15.990 -0.5295 -0.0835  0.0819
14230TIP3    H164105   6.843   5.416  16.059  4.5817 -0.1975 -3.1788
14230TIP3    H264106   6.741   5.389  15.950 -2.2444 -0.3381  2.5572
14231TIP3   OH264107   1.504   0.969  16.328 -0.6758 -0.1043  0.5344
14231TIP3    H164108   1.519   1.062  16.313 -0.3325 -0.0857  0.9676
14231TIP3    H264109   1.412   0.963  16.352 -1.5096 -0.2326 -2.3054
14232TIP3   OH264110   6.647   6.614   3.706 -0.8782 -0.2807 -0.3263
14232TIP3    H164111   6.579   6.570   3.656 -1.5039 -0.4563  0.6707
14232TIP3    H264112   6.615   6.703   3.717 -0.3546 -0.0061 -0.9422
14233TIP3   OH264113   4.868   2.048  10.430 -0.1652 -0.2356  1.0358
14233TIP3    H164114   4.826   2.118  10.380 -1.4126 -0.5769  1.5708
14233TIP3    H264115   4.935   2.013  10.371  0.8060  1.6934  0.9366
14234TIP3   OH264116   5.163   6.180   2.955 -0.2471  0.0945 -0.2650
14234TIP3    H164117   5.162   6.232   2.875 -1.8229  1.5345  0.6243
14234TIP3    H264118   5.251   6.141   2.957  0.4541  1.4743 -1.7633
14235TIP3   OH264119   4.080   0.831   4.953 -0.1961  0.7355 -0.3362
14235TIP3    H164120   4.050   0.918   4.982 -0.5754  0.8968 -1.1887
14235TIP3    H264121   4.162   0.848   4.907 -1.1030  0.8801 -1.9742
14236TIP3   OH264122   3.163   5.792   4.575 -0.1688 -0.0663  0.5601
14236TIP3    H164123   3.070   5.807   4.590 -0.5082 -2.8186  1.7021
14236TIP3    H264124   3.202   5.786   4.662  0.6725 -1.0405  0.1421
14237TIP3   OH264125   4.545   4.404  11.015 -0.0418 -0.2121 -0.0069
14237TIP3    H164126   4.500   4.460  10.952  0.2224  0.2910  0.2422
14237TIP3    H264127   4.632   4.392  10.978 -0.3238 -1.0516 -0.4095
14238TIP3   OH264128   3.389   2.755   4.907 -0.5667  0.3599  0.4197
14238TIP3    H164129   3.459   2.690   4.900 -0.7433  0.2363 -0.2657
14238TIP3    H264130   3.418   2.814   4.976 -0.0462 -0.0129  0.5256
14239TIP3   OH264131   3.903   1.937   1.259 -0.1983  0.0278 -0.2551
14239TIP3    H164132   3.897   2.006   1.325  0.5550  0.7900 -0.9563
14239TIP3    H264133   3.813   1.905   1.250 -0.2222 -0.4758  1.5149
14240TIP3   OH264134   1.421   0.004  11.656 -0.5425 -0.1768  0.1385
14240TIP3    H164135   1.385  -0.033  11.576  0.6424 -2.5356  0.5852
14240TIP3    H264136   1.461  -0.071  11.701  0.3013  1.3559  2.1246
14241TIP3   OH264137   1.494   0.360  10.958  0.2275 -0.3353  0.2364
14241TIP3    H164138   1.486   0.442  10.910  1.8876  0.5625  1.4343
14241TIP3    H264139   1.535   0.300  10.896 -1.1973 -0.3867 -0.7205
14242TIP3   OH264140   4.560   4.769   0.691 -0.1285  0.2380  0.5654
14242TIP3    H164141   4.466   4.755   0.683 -0.0096 -0.2273 -0.1706
14242TIP3    H264142   4.569   4.836   0.758 -0.8913 -0.9562  1.9186
14243TIP3   OH264143   1.957   5.730   3.362  0.6827 -0.0509 -0.4319
14243TIP3    H164144   1.980   5.808   3.311 -0.6125 -0.2713 -1.3936
14243TIP3    H264145   1.910   5.764   3.438  2.7849  0.2944  0.8183
14244TIP3   OH264146   2.677   4.706  13.406  0.6394 -0.0134  0.6142
14244TIP3    H164147   2.761   4.705  13.451  1.9745 -0.4872 -1.7114
14244TIP3    H264148   2.680   4.629  13.348 -0.9328  0.5662 -0.2980
14245TIP3   OH264149   0.714   6.357  11.494  0.0824  0.3211  0.1459
14245TIP3    H164150   0.710   6.450  11.517 -2.0216  0.5011 -0.6283
14245TIP3    H264151   0.716   6.357  11.398 -1.9368 -0.3700  0.0429
14246TIP3   OH264152   3.512   3.238   6.145  0.3839  0.0749  0.1357
14246TIP3    H164153   3.435   3.222   6.200 -0.3641  0.8570 -0.6457
14246TIP3    H264154   3.524   3.333   6.148  1.2959 -0.0380  0.2100
14247TIP3   OH264155   0.629   5.193  16.938  0.3331 -0.0193 -0.3400
14247TIP3    H164156   0.591   5.108  16.961 -0.4101  0.0871 -1.1145
14247TIP3    H264157   0.554   5.248  16.915  0.7372  1.0838  0.8495
14248TIP3   OH264158   0.331   5.569  16.096 -0.4190  0.2341 -0.1388
14248TIP3    H164159   0.266   5.508  16.062 -0.2203  0.7295 -1.4393
14248TIP3    H264160   0.412   5.518  16.099 -0.8580 -0.4679  1.7429
14249TIP3   OH264161   0.380   5.574   0.561  0.1709 -0.0362 -0.6256
14249TIP3    H164162   0.286   5.570   0.545  0.4209  0.2510 -2.3021
14249TIP3    H264163   0.416   5.618   0.484  1.6336  0.2989  0.2089
14250TIP3   OH264164   5.752   2.608   0.563 -0.1592 -0.0539  0.2212
14250TIP3    H164165   5.809   2.542   0.601 -0.5620 -0.2690  0.4623
14250TIP3    H264166   5.740   2.673   0.632  0.1117  0.1926  0.0370
14251TIP3   OH264167   0.135   0.389  14.457  0.1775 -0.1242  0.3679
14251TIP3    H164168   0.216   0.339  14.453  0.8427  0.9838 -0.6268
14251TIP3    H264169   0.122   0.421  14.368 -0.4006  1.1807  0.8931
14252TIP3   OH264170   4.585   4.534  15.734  0.3833 -0.4396  0.7849
14252TIP3    H164171   4.492   4.520  15.752  0.5386 -2.0351  0.5491
14252TIP3    H264172   4.619   4.576  15.812 -0.3259 -0.8734  1.3382
14253TIP3   OH264173   5.000   1.338  13.666  0.3463 -0.4617  0.0876
14253TIP3    H164174   5.054   1.375  13.597  1.3311 -0.7428  0.6871
14253TIP3    H264175   5.014   1.395  13.741  0.3295 -0.9086  0.4365
14254TIP3   OH264176   3.582   3.481  11.263  0.0337  0.6964 -0.0661
14254TIP3    H164177   3.673   3.489  11.234 -0.6748  0.6470 -2.5509
14254TIP3    H264178   3.560   3.567  11.297  1.1955  0.5015  1.2641
14255TIP3   OH264179   2.213   1.462   1.512  0.5463  0.2086  0.2918
14255TIP3    H164180   2.271   1.389   1.536 -0.0817 -0.6784 -0.7710
14255TIP3    H264181   2.125   1.426   1.521  0.1816  1.1938  0.7979
14256TIP3   OH264182   3.282   4.250  16.830 -0.2723  0.0361  0.3796
14256TIP3    H164183   3.271   4.320  16.894 -1.2420  2.2419 -2.0388
14256TIP3    H264184   3.211   4.188  16.849  0.5271 -0.3428  2.4642
14257TIP3   OH264185   3.600   0.832   6.109 -0.3396  0.1174 -0.1387
14257TIP3    H164186   3.591   0.850   6.015  0.5569  2.6577  0.2055
14257TIP3    H264187   3.516   0.857   6.147 -0.8563 -1.3144 -0.2657
14258TIP3   OH264188   5.897   3.573   2.131 -0.1226 -0.2362 -0.4310
14258TIP3    H164189   5.896   3.663   2.098  0.4504  0.8609  2.2536
14258TIP3    H264190   5.813   3.536   2.104 -0.9324  1.5441 -0.4986
14259TIP3   OH264191   3.718   4.414   3.800 -0.1348 -0.0182  0.6683
14259TIP3    H164192   3.767   4.434   3.880  1.7223  0.1730 -0.4575
14259TIP3    H264193   3.696   4.499   3.764 -1.5016 -0.1004  1.2355
14260TIP3   OH264194   2.444   2.057  14.031 -0.2116 -0.6643  0.1893
14260TIP3    H164195   2.415   2.048  13.940 -0.0628  1.1515 -0.0793
14260TIP3    H264196   2.537   2.038  14.029 -0.1764 -0.4731 -0.0855
14261TIP3   OH264197   4.951   1.487   3.953  0.3338  0.2071  0.2348
14261TIP3    H164198   4.950   1.506   4.047 -2.4404  0.0891  0.3064
14261TIP3    H264199   4.959   1.573   3.912  0.4998  0.3531  0.5651
14262TIP3   OH264200   3.354   5.807  12.955  0.6128 -0.0549 -0.1929
14262TIP3    H164201   3.327   5.863  12.882  0.5820  1.0239  0.6174
14262TIP3    H264202   3.347   5.863  13.032  2.2024 -0.6677  0.4416
14263TIP3   OH264203   2.531   4.632   4.832 -0.1608 -0.7788 -0.1394
14263TIP3    H164204   2.619   4.669   4.830 -0.4658 -0.0389 -0.3140
14263TIP3    H264205   2.491   4.669   4.911 -0.9647  0.4811 -1.0951
14264TIP3   OH264206   3.149   3.500   2.493 -0.5318  0.0767 -0.1353
14264TIP3    H164207   3.054   3.511   2.499 -0.7290 -2.0588  2.8755
14264TIP3    H264208   3.183   3.589   2.503 -2.2131  0.5788  1.8845
14265TIP3   OH264209   2.459   2.971   4.252 -0.0452 -0.2137  0.1824
14265TIP3    H164210   2.431   2.909   4.319  0.1303 -3.7886 -2.7066
14265TIP3    H264211   2.554   2.962   4.248  0.2717  2.0503  1.1918
14266TIP3   OH264212   3.452   0.319   1.355  0.1428 -0.4907 -0.0852
14266TIP3    H164213   3.526   0.260   1.362  0.5412  0.0215  0.0598
14266TIP3    H264214   3.390   0.288   1.421  0.5829 -0.4135  0.3692
14267TIP3   OH264215   6.287   3.059   5.661  0.5552  0.0264 -0.1851
14267TIP3    H164216   6.291   2.975   5.615 -0.2874 -0.3454  0.3748
14267TIP3    H264217   6.334   3.044   5.742 -1.5628 -0.6889  1.0075
14268TIP3   OH264218   3.791   5.284  13.079  0.1787 -0.0682  0.4629
14268TIP3    H164219   3.764   5.262  13.168  0.5932 -2.0256  0.1583
14268TIP3    H264220   3.780   5.203  13.030  1.4693  0.5336 -0.9126
14269TIP3   OH264221   6.301   0.831  13.100 -0.1922 -0.0224 -0.2246
14269TIP3    H164222   6.263   0.887  13.033 -1.0035 -0.0178  0.2306
14269TIP3    H264223   6.270   0.867  13.183  0.1307 -0.5181  0.1231
14270TIP3   OH264224   3.107   6.392   5.978 -0.1750  0.0864  0.3913
14270TIP3    H164225   3.180   6.345   6.018 -0.6886 -0.2653  0.9244
14270TIP3    H264226   3.047   6.410   6.050  0.1906  1.9439  0.2782
14271TIP3   OH264227   5.633   3.178   2.570  0.0931  0.4388 -0.5841
14271TIP3    H164228   5.677   3.222   2.497  1.8662  0.4199  0.4253
14271TIP3    H264229   5.543   3.211   2.567  0.2129  0.6938 -2.5475
14272TIP3   OH264230   5.996   6.453   3.795  0.3141 -0.7728  0.1091
14272TIP3    H164231   6.043   6.395   3.856 -1.8760 -0.3595  2.3656
14272TIP3    H264232   5.919   6.403   3.768  0.7091 -0.5374 -1.5663
14273TIP3   OH264233   4.353   1.867   5.555 -0.0876  0.5358  0.1616
14273TIP3    H164234   4.262   1.874   5.582 -1.2738 -0.1735 -3.2003
14273TIP3    H264235   4.350   1.858   5.460  3.4940  0.0717 -0.0676
14274TIP3   OH264236   1.788   6.096  13.903 -0.5838 -0.1438 -0.1130
14274TIP3    H164237   1.881   6.077  13.914 -0.3680  1.5591  1.4188
14274TIP3    H264238   1.786   6.179  13.856 -1.3742 -0.7424 -1.1747
14275TIP3   OH264239   3.032   4.390   5.822 -0.1181 -0.3930 -0.2293
14275TIP3    H164240   2.977   4.362   5.895 -0.0113  0.4619  0.1820
14275TIP3    H264241   2.979   4.454   5.775 -1.3625 -2.9758 -2.6284
14276TIP3   OH264242   6.034   4.089   5.360 -0.1663 -0.0389  0.4127
14276TIP3    H164243   6.047   4.007   5.312 -1.3476 -0.4154  0.7059
14276TIP3    H264244   5.946   4.117   5.338 -0.8361 -0.3261  2.4983
14277TIP3   OH264245   5.512   4.547  11.906 -0.1408 -0.2122 -0.2350
14277TIP3    H164246   5.516   4.611  11.835 -0.2905 -1.0778 -1.0372
14277TIP3    H264247   5.509   4.600  11.985  0.9961  0.7592 -0.8101
14278TIP3   OH264248   2.310   3.782   2.379  0.4860 -0.3234 -0.3914
14278TIP3    H164249   2.222   3.754   2.353 -0.1889  2.7044 -1.8301
14278TIP3    H264250   2.295   3.846   2.448  1.4548  0.9509 -1.3150
14279TIP3   OH264251   5.979   4.222  10.449 -0.4627 -0.5383 -0.0195
14279TIP3    H164252   5.970   4.303  10.398  0.5388 -0.2142  0.3075
14279TIP3    H264253   6.063   4.186  10.423  0.5898  0.1907  2.1504
14280TIP3   OH264254   0.807   0.783   2.426 -0.3553  0.4741 -0.2526
14280TIP3    H164255   0.757   0.785   2.508  1.2516  1.9257  0.7774
14280TIP3    H264256   0.866   0.708   2.436 -0.2045  0.6117 -0.0906
14281TIP3   OH264257   5.137   2.668  14.974  0.8016  0.0824 -0.2323
14281TIP3    H164258   5.063   2.727  14.958  0.0994 -0.3522  1.2504
14281TIP3    H264259   5.100   2.598  15.028  2.0427 -0.7630 -0.4468
14282TIP3   OH264260   0.238   6.363   1.982 -0.1633 -0.3133  0.1227
14282TIP3    H164261   0.326   6.343   1.950 -0.4802  0.3191 -1.2021
14282TIP3    H264262   0.200   6.277   2.003  0.9375 -0.5555  1.2645
14283TIP3   OH264263   1.124   6.298  13.878 -0.6702  0.6160  0.1870
14283TIP3    H164264   1.183   6.367  13.846 -1.2393  0.2086 -1.8937
14283TIP3    H264265   1.139   6.224  13.819 -1.9363 -0.1374  0.7652
14284TIP3   OH264266   3.394   2.802   4.205  0.1981  1.0192 -0.3685
14284TIP3    H164267   3.301   2.805   4.182  0.0036  0.6810  0.3711
14284TIP3    H264268   3.426   2.723   4.163 -0.2876  0.0881  0.9653
14285TIP3   OH264269   6.296   5.778  13.872  0.1978 -0.3692  0.0235
14285TIP3    H164270   6.233   5.808  13.937 -0.4645 -1.0821 -0.2715
14285TIP3    H264271   6.363   5.846  13.869  0.3545 -0.4250  1.6100
14286TIP3   OH264272   6.252   5.350   0.924 -0.2182  0.0336 -0.4465
14286TIP3    H164273   6.323   5.373   0.863  1.9712  0.4427  2.1088
14286TIP3    H264274   6.286   5.372   1.010 -3.8032  0.9970  0.8855
14287TIP3   OH264275   4.483   1.760  12.998  0.7950  0.7766 -0.3780
14287TIP3    H164276   4.532   1.779  13.078  1.6450  0.3414 -0.7775
14287TIP3    H264277   4.443   1.675  13.015  0.7358  0.8185 -0.3059
14288TIP3   OH264278   6.369   6.346  16.200  0.3391 -0.3096  0.3127
14288TIP3    H164279   6.275   6.332  16.209  0.5340 -1.7249  0.4223
14288TIP3    H264280   6.398   6.373  16.287 -0.0131  0.4918  0.1873
14289TIP3   OH264281   5.271   5.880  12.088  0.3546  0.0021 -0.1601
14289TIP3    H164282   5.201   5.814  12.084  1.1854 -0.8790 -0.4666
14289TIP3    H264283   5.258   5.923  12.173  0.3247 -1.1742  0.4614
14290TIP3   OH264284   2.605   6.291  11.988  0.1663  0.0805 -0.0473
14290TIP3    H164285   2.591   6.385  11.977  0.0782  0.4052  2.3308
14290TIP3    H264286   2.697   6.282  12.010 -0.2032 -0.1364  1.5811
14291TIP3   OH264287   0.555   3.955  10.593  0.1150 -0.1404  0.3474
14291TIP3    H164288   0.553   3.965  10.688  2.6536 -0.0030  0.4344
14291TIP3    H264289   0.642   3.984  10.567 -0.8519  0.8442 -2.1744
14292TIP3   OH264290   4.691   5.900  13.980  0.3206  0.2256 -0.0420
14292TIP3    H164291   4.736   5.818  13.962 -0.9082 -0.2900 -0.8847
14292TIP3    H264292   4.742   5.967  13.934  2.0976  0.1776  1.7386
14293TIP3   OH264293   0.407   0.102   2.836  0.0737  0.1196  0.0513
14293TIP3    H164294   0.329   0.157   2.842  0.0034 -0.1548  2.3824
14293TIP3    H264295   0.387   0.025   2.889  1.8393 -0.0748  0.4906
14294TIP3   OH264296   0.515   5.352   0.634  0.3872 -0.1819  0.3978
14294TIP3    H164297   0.494   5.367   0.726 -0.1066  0.7094  0.1562
14294TIP3    H264298   0.463   5.417   0.586  0.5619 -0.6895 -0.5200
14295TIP3   OH264299   2.853   4.013   4.104 -0.2845  0.2014 -0.1121
14295TIP3    H164300   2.886   3.964   4.179 -0.9651  0.4956  0.3887
14295TIP3    H264301   2.798   3.950   4.057  1.2011 -0.4015 -1.1477
14296TIP3   OH264302   5.630   6.632  15.971 -0.2768 -0.5833  0.5243
14296TIP3    H164303   5.585   6.713  15.947 -0.4962 -0.4061  1.5240
14296TIP3    H264304   5.561   6.573  16.001 -0.4061 -1.8873 -2.0211
14297TIP3   OH264305   2.568   6.212   6.741  0.2487 -0.6217 -0.1956
14297TIP3    H164306   2.657   6.193   6.712  0.0168 -0.3664 -1.1054
14297TIP3    H264307   2.549   6.144   6.806  1.0885 -0.7031 -0.0314
14298TIP3   OH264308   6.148   0.726  12.811 -0.1393 -0.1217 -0.4816
14298TIP3    H164309   6.094   0.729  12.890 -0.8335 -2.0348 -0.8285
14298TIP3    H264310   6.164   0.633  12.796  2.7453  0.3177 -0.7938
14299TIP3   OH264311   3.453   5.783  14.822  0.0870  0.4136  0.2563
14299TIP3    H164312   3.392   5.779  14.896 -0.2761  0.1501 -0.0535
14299TIP3    H264313   3.536   5.812  14.861  0.1198 -0.5216  0.9106
14300TIP3   OH264314   3.253   0.916  16.585 -0.2290  0.0677 -0.0256
14300TIP3    H164315   3.166   0.892  16.616 -0.4437  2.4107  1.3777
14300TIP3    H264316   3.240   1.001  16.542  1.1707 -0.1479 -0.9295
14301TIP3   OH264317   0.950   0.341   6.078 -0.1082 -0.1015  0.0788
14301TIP3    H164318   0.998   0.391   6.144  0.2183  0.0683 -0.2819
14301TIP3    H264319   1.000   0.260   6.069  1.6584  1.1402 -2.1826
14302TIP3   OH264320   1.933   0.738  13.725 -0.2354  0.2069 -0.4580
14302TIP3    H164321   1.849   0.702  13.751  0.7742 -0.5318  2.1346
14302TIP3    H264322   1.993   0.663  13.725  1.3462  1.2960  2.4268
14303TIP3   OH264323   0.419   1.849  14.441  0.1810 -0.0872 -0.2456
14303TIP3    H164324   0.481   1.875  14.509 -0.7574  1.2456  0.1349
14303TIP3    H264325   0.454   1.766  14.408  0.3103 -1.1281  2.2854
14304TIP3   OH264326   6.454   2.405  13.556  0.2455  0.4959 -0.3678
14304TIP3    H164327   6.533   2.455  13.534  0.7498  0.0191  0.3082
14304TIP3    H264328   6.464   2.385  13.649  0.5401 -1.6928 -0.8261
14305TIP3   OH264329   4.474   4.546   4.518  0.2691 -0.3230  0.3249
14305TIP3    H164330   4.514   4.633   4.518  0.9030 -0.6092  0.6255
14305TIP3    H264331   4.401   4.552   4.580 -0.1057  0.1743 -0.1554
14306TIP3   OH264332   2.645   1.058  12.501  0.3464  0.5972 -0.6290
14306TIP3    H164333   2.734   1.024  12.497  0.5100  1.0422 -0.8279
14306TIP3    H264334   2.652   1.149  12.474  0.2079  1.3392  1.5845
14307TIP3   OH264335   5.469   1.102  11.904 -0.4108 -0.1932 -0.0589
14307TIP3    H164336   5.488   1.022  11.952 -0.2627 -0.8094 -1.1058
14307TIP3    H264337   5.426   1.072  11.824  0.5480  0.6906 -0.9298
14308TIP3   OH264338   0.274   4.202  15.761  0.5162  0.2027 -0.2473
14308TIP3    H164339   0.349   4.146  15.740 -0.4839 -1.3880  0.2107
14308TIP3    H264340   0.211   4.143  15.802 -1.0166  1.4772 -0.6588
14309TIP3   OH264341   1.760   2.965   3.574 -0.1003 -0.4546 -0.2020
14309TIP3    H164342   1.743   2.887   3.626 -2.6738  0.6690  0.8057
14309TIP3    H264343   1.813   3.020   3.630 -0.0827 -0.6111 -0.0635
14310TIP3   OH264344   5.704   0.098   0.360  0.4421  0.5854  0.0922
14310TIP3    H164345   5.736   0.184   0.387  2.8880 -0.3154  0.2566
14310TIP3    H264346   5.766   0.069   0.293 -0.4503 -0.9666 -0.1069
14311TIP3   OH264347   3.582   1.223   6.075 -0.0979 -0.3057  0.3305
14311TIP3    H164348   3.515   1.187   6.017  0.2646 -1.0770  0.3670
14311TIP3    H264349   3.549   1.309   6.101 -0.9641 -0.5866  0.1806
14312TIP3   OH264350   4.617   1.649   5.975 -0.2586 -0.0713 -0.1371
14312TIP3    H164351   4.607   1.563   6.016 -0.5558 -0.5664 -1.2102
14312TIP3    H264352   4.557   1.648   5.901  0.7979  0.4943 -1.0427
14313TIP3   OH264353   1.906   6.299  13.314 -0.1429  0.2214 -0.3335
14313TIP3    H164354   1.834   6.360  13.299  0.6802  1.2730 -0.1500
14313TIP3    H264355   1.960   6.342  13.380 -0.4191 -1.4803  1.0861
14314TIP3   OH264356   6.219   4.355   0.375 -0.1696 -0.0671  0.2795
14314TIP3    H164357   6.238   4.443   0.407 -1.0864  0.3115 -0.1765
14314TIP3    H264358   6.248   4.296   0.444  0.1520  0.6188  0.7233
14315TIP3   OH264359   5.169   3.797   2.145  0.3518  0.6082  0.3731
14315TIP3    H164360   5.225   3.800   2.222 -1.2255 -1.3390  1.7147
14315TIP3    H264361   5.157   3.889   2.120  2.1161  1.1909  1.4972
14316TIP3   OH264362   4.367   3.130   1.666  0.1790 -0.1566  0.5730
14316TIP3    H164363   4.366   3.212   1.617  0.0907  1.3873  3.0056
14316TIP3    H264364   4.276   3.099   1.663  0.5769 -1.3997 -2.1158
14317TIP3   OH264365   1.226   5.944  14.687  0.6807  0.2264  0.2551
14317TIP3    H164366   1.201   5.891  14.763  0.1911  1.4131  0.9555
14317TIP3    H264367   1.318   5.965  14.701  0.9121 -0.5178 -0.0897
14318TIP3   OH264368   4.019   3.589   3.922 -0.4023  0.1274 -0.0898
14318TIP3    H164369   4.033   3.536   3.844  0.1693  0.2505 -0.0751
14318TIP3    H264370   3.925   3.606   3.923 -0.3322  0.6493 -1.0887
14319TIP3   OH264371   1.762   5.807  14.533 -0.2219  0.0723  0.1072
14319TIP3    H164372   1.734   5.896  14.513 -0.8098  0.1545  1.2391
14319TIP3    H264373   1.709   5.781  14.608  2.4930  0.1567  2.2304
14320TIP3   OH264374   4.731   1.062  13.618 -0.0789  0.2606  0.4297
14320TIP3    H164375   4.753   1.020  13.535 -1.6768 -1.9352  1.0192
14320TIP3    H264376   4.724   1.155  13.597  0.6939 -0.0883 -1.6226
14321TIP3   OH264377   3.499   0.444  15.816  0.0338  0.0958  0.2987
14321TIP3    H164378   3.435   0.497  15.768  0.0527 -0.6774 -0.6208
14321TIP3    H264379   3.470   0.354  15.802  2.2557 -0.4203 -1.6271
14322TIP3   OH264380   3.655   3.076   2.013  0.0267 -0.2472  0.0430
14322TIP3    H164381   3.638   3.070   1.919  1.0453 -1.3946 -0.0939
14322TIP3    H264382   3.751   3.075   2.021 -0.0443 -0.3411  1.0962
14323TIP3   OH264383   0.356   6.714   0.554 -0.8172  0.3452 -0.6092
14323TIP3    H164384   0.287   6.773   0.524 -2.1814 -0.9317 -0.1463
14323TIP3    H264385   0.328   6.627   0.524  0.5723 -0.2160 -0.3593
14324TIP3   OH264386   2.395   1.134  15.481  0.5545 -0.3965  0.3733
14324TIP3    H164387   2.321   1.140  15.541  0.2744 -1.9800  0.2300
14324TIP3    H264388   2.372   1.191  15.408  0.2173  0.3639  1.0510
14325TIP3   OH264389   0.623   4.085   2.871 -0.0852 -0.2877  0.4062
14325TIP3    H164390   0.621   4.181   2.868  0.9654 -0.2562 -1.8691
14325TIP3    H264391   0.533   4.059   2.891 -0.7773  1.1855 -0.5803
14326TIP3   OH264392   0.670   2.300  16.845  0.3369 -0.2768  0.1503
14326TIP3    H164393   0.717   2.229  16.889 -1.1936 -1.9698 -0.8159
14326TIP3    H264394   0.692   2.290  16.752 -0.6652 -0.1344 -0.1197
14327TIP3   OH264395   1.148   4.159  15.296 -0.1848 -0.2784 -0.4991
14327TIP3    H164396   1.205   4.155  15.373 -0.8879 -1.8388 -0.0172
14327TIP3    H264397   1.074   4.213  15.323 -1.0106 -1.7668  0.3850
14328TIP3   OH264398   1.783   5.322  12.269  0.1952  0.3628 -0.1280
14328TIP3    H164399   1.873   5.351  12.259  0.5795  0.2787  2.4739
14328TIP3    H264400   1.785   5.229  12.248  0.8650  0.2331  0.4742
14329TIP3   OH264401   4.801   2.145   3.981  0.1309 -0.0644  0.0557
14329TIP3    H164402   4.817   2.085   4.053 -0.2408 -0.8342 -0.4892
14329TIP3    H264403   4.836   2.229   4.011  0.0889 -0.4014  1.0730
14330TIP3   OH264404   5.964   5.301  12.723  0.1457 -0.3829  0.1173
14330TIP3    H164405   6.059   5.301  12.718  0.1403  0.4936 -0.0367
14330TIP3    H264406   5.935   5.280  12.634  0.1870  0.2281 -0.0406
14331TIP3   OH264407   6.099   5.921   3.907  0.3048  0.2782  0.0415
14331TIP3    H164408   6.193   5.939   3.901  0.9147 -2.2490  0.6934
14331TIP3    H264409   6.071   5.906   3.817  0.6371  0.5935 -0.1158
14332TIP3   OH264410   1.782   3.568   1.336 -0.5682 -0.0496 -0.0166
14332TIP3    H164411   1.767   3.485   1.290  2.1464  0.4469 -2.0482
14332TIP3    H264412   1.835   3.543   1.413  1.6431 -0.1358 -1.4848
14333TIP3   OH264413   4.670   3.767  12.247 -0.5829  0.4035  0.1094
14333TIP3    H164414   4.577   3.773  12.230 -0.3591  2.5498 -0.5852
14333TIP3    H264415   4.711   3.810  12.172  0.8300  1.9811  1.7000
14334TIP3   OH264416   3.879   6.339   1.692 -0.4483 -0.5362 -0.8287
14334TIP3    H164417   3.891   6.369   1.782 -0.9753 -2.3032 -0.1316
14334TIP3    H264418   3.962   6.360   1.649 -0.1290  0.1878  0.0961
14335TIP3   OH264419   1.154   1.975  12.571 -0.3446  0.2361  0.4271
14335TIP3    H164420   1.130   1.883  12.583  0.0896  0.2883  1.8721
14335TIP3    H264421   1.071   2.021  12.564 -0.5813 -0.1622  0.5820
14336TIP3   OH264422   6.458   3.166   0.253 -0.0876 -0.1557  0.0891
14336TIP3    H164423   6.529   3.158   0.317 -0.3977 -0.5402  0.3930
14336TIP3    H264424   6.429   3.257   0.261 -0.6067 -0.3923  1.0196
14337TIP3   OH264425   4.244   6.338   3.021 -0.5067  0.1866 -0.0214
14337TIP3    H164426   4.211   6.363   2.935 -1.1234 -1.4307 -0.2843
14337TIP3    H264427   4.322   6.286   3.003  0.1750  1.0164  0.4648
14338TIP3   OH264428   2.270   5.395  14.240 -0.3764 -0.1358 -0.2678
14338TIP3    H164429   2.243   5.419  14.151  0.5293 -0.0008 -0.5177
14338TIP3    H264430   2.241   5.469  14.294 -2.2598 -0.8778 -0.1792
14339TIP3   OH264431   5.372   6.213   5.632  0.6068  0.1681  0.3617
14339TIP3    H164432   5.279   6.213   5.656  0.7142  2.0459  0.9570
14339TIP3    H264433   5.399   6.121   5.639 -0.9308 -0.2474  1.2608
14340TIP3   OH264434   5.990   5.124  13.532  1.1140 -0.4550  0.0164
14340TIP3    H164435   5.959   5.207  13.567 -0.5665 -0.8495 -0.4634
14340TIP3    H264436   6.031   5.080  13.607 -0.2378 -0.2561  0.8947
14341TIP3   OH264437   1.849   1.234   0.821 -0.3602  0.3999 -0.3043
14341TIP3    H164438   1.760   1.264   0.839 -0.2610  0.7396 -0.3810
14341TIP3    H264439   1.902   1.313   0.825 -0.2035  0.3552 -1.2658
14342TIP3   OH264440   0.942   1.919  11.821  0.5715 -0.2908 -0.0754
14342TIP3    H164441   0.922   1.987  11.758  0.6959 -0.5880 -0.4383
14342TIP3    H264442   0.858   1.879  11.842  0.2671  1.0153  1.3552
14343TIP3   OH264443   6.244   1.691   2.386  0.0238 -0.5769 -0.2572
14343TIP3    H164444   6.182   1.744   2.336 -0.1119 -1.3477 -0.9326
14343TIP3    H264445   6.228   1.601   2.356  2.4109 -0.6614 -1.4865
14344TIP3   OH264446   6.641   3.607  12.729 -0.5899 -0.3546  0.5005
14344TIP3    H164447   6.604   3.570  12.648 -2.1602  1.9899  0.0042
14344TIP3    H264448   6.685   3.534  12.772  0.3682 -1.6948 -2.4931
14345TIP3   OH264449   2.800   5.648   4.710 -0.1813 -0.1744 -0.3228
14345TIP3    H164450   2.811   5.566   4.663  0.3313 -0.9087  1.0246
14345TIP3    H264451   2.711   5.644   4.745  0.1106 -0.5125  0.3899
14346TIP3   OH264452   6.461   1.026   5.828 -0.3715  0.1081 -0.1582
14346TIP3    H164453   6.397   0.966   5.867 -0.6990  0.3762 -0.2781
14346TIP3    H264454   6.505   1.066   5.903 -0.2506 -0.1732 -0.0764
14347TIP3   OH264455   3.725   1.715  14.560  0.3754 -0.6361 -0.1566
14347TIP3    H164456   3.672   1.641  14.592  1.0245 -1.1005 -0.1450
14347TIP3    H264457   3.674   1.751  14.488 -0.5199 -0.3491  0.5851
14348TIP3   OH264458   6.192   5.709   0.443 -0.3524  0.4517  0.4709
14348TIP3    H164459   6.240   5.787   0.470  0.9587 -0.6297  1.4226
14348TIP3    H264460   6.255   5.658   0.393 -0.8244 -0.5145  0.8279
14349TIP3   OH264461   2.842   0.768   4.241 -0.3754  0.0364 -0.0482
14349TIP3    H164462   2.753   0.734   4.246 -0.3865 -0.0329 -0.6218
14349TIP3    H264463   2.847   0.807   4.154 -0.8494  2.8680  1.1017
14350TIP3   OH264464   1.663   3.656   0.090 -0.2465  0.1602  0.0927
14350TIP3    H164465   1.591   3.594   0.081 -0.1616  0.1629 -0.6199
14350TIP3    H264466   1.742   3.604   0.074 -0.0542  0.0794  1.2163
14351TIP3   OH264467   0.425   2.304   3.743 -0.5040 -0.2423  0.6399
14351TIP3    H164468   0.455   2.242   3.677 -2.3907 -1.2957  0.7011
14351TIP3    H264469   0.373   2.368   3.695  0.3476  0.5844  0.7680
14352TIP3   OH264470   1.886   3.492  13.240  0.2563  0.1267  0.2015
14352TIP3    H164471   1.835   3.420  13.202  1.6641 -1.9726  2.0026
14352TIP3    H264472   1.838   3.515  13.320 -0.6786  1.9305 -0.8051
14353TIP3   OH264473   6.522   0.660  13.948 -0.2375 -0.2114  0.1188
14353TIP3    H164474   6.600   0.620  13.911 -0.4642 -0.6271  0.0882
14353TIP3    H264475   6.449   0.613  13.908 -0.5184  0.5418 -0.2712
14354TIP3   OH264476   6.816   6.739   4.239  0.5749 -0.0529 -0.1108
14354TIP3    H164477   6.814   6.832   4.262 -0.0286 -0.3778  1.2504
14354TIP3    H264478   6.832   6.738   4.144 -1.4445  1.4928 -0.5459
14355TIP3   OH264479   3.266   3.403  16.981 -0.4742 -0.7235  0.5762
14355TIP3    H164480   3.220   3.331  16.939 -0.6222 -0.2516 -0.0831
14355TIP3    H264481   3.354   3.402  16.943 -0.2084 -1.0706  1.1828
14356TIP3   OH264482   2.371   4.919   9.989 -0.6698  0.3391 -0.2435
14356TIP3    H164483   2.287   4.966   9.995 -0.5005  0.9013 -1.7365
14356TIP3    H264484   2.351   4.842   9.936 -0.8794 -1.1998  1.9617
14357TIP3   OH264485   1.799   1.115  12.505  0.0010 -0.1591 -0.5993
14357TIP3    H164486   1.728   1.174  12.483  0.0490 -0.9714 -3.2693
14357TIP3    H264487   1.871   1.173  12.533  0.3716  1.2589 -4.0329
14358TIP3   OH264488   5.108   5.381  13.215 -0.3581 -0.5263  0.1864
14358TIP3    H164489   5.192   5.384  13.169  0.7995  2.2124  2.1881
14358TIP3    H264490   5.112   5.300  13.266  0.3319 -1.2530 -0.9719
14359TIP3   OH264491   4.851   6.602   6.662 -0.0306 -0.2194  0.6863
14359TIP3    H164492   4.797   6.621   6.586  0.8599 -0.6946 -0.1034
14359TIP3    H264493   4.857   6.685   6.709  2.1550  1.0651 -1.5875
14360TIP3   OH264494   6.797   5.887  11.006 -0.1702  0.0739 -0.3552
14360TIP3    H164495   6.715   5.904  11.053  0.1571 -0.3569  0.3900
14360TIP3    H264496   6.810   5.793  11.016 -0.4819 -0.1571 -1.9687
14361TIP3   OH264497   2.330   0.857  14.281  0.2833  0.8056 -0.2292
14361TIP3    H164498   2.383   0.810  14.345 -1.6766  0.7203  1.4303
14361TIP3    H264499   2.313   0.942  14.321 -0.1014  1.1669 -1.1208
14362TIP3   OH264500   2.297   4.409   4.512 -0.1268  0.5420 -0.2644
14362TIP3    H164501   2.318   4.497   4.478 -2.2489  0.6525 -1.5244
14362TIP3    H264502   2.298   4.419   4.607 -0.8437  2.1148 -0.3821
14363TIP3   OH264503   1.552   5.976   1.138  0.0476  0.5284 -0.7003
14363TIP3    H164504   1.567   6.025   1.058 -0.3906 -0.6201 -1.5142
14363TIP3    H264505   1.538   5.885   1.109 -0.2801  0.1163  0.6502
14364TIP3   OH264506   4.325   2.780   4.384 -1.3214 -0.0990 -0.7293
14364TIP3    H164507   4.407   2.828   4.380 -1.0933 -0.1881  1.5265
14364TIP3    H264508   4.345   2.694   4.348 -0.9996  0.5170 -2.0991
14365TIP3   OH264509   2.482   6.553   0.322  0.1987  0.1044 -0.2584
14365TIP3    H164510   2.451   6.505   0.399  0.1376  1.4446  0.5747
14365TIP3    H264511   2.578   6.544   0.325  0.2909  1.1566  0.6868
14366TIP3   OH264512   6.428   3.885   3.983  0.5456 -0.1320  0.1676
14366TIP3    H164513   6.460   3.965   4.025  0.9471 -0.5748  0.7323
14366TIP3    H264514   6.453   3.815   4.043  1.1271 -0.7907 -0.8116
14367TIP3   OH264515   1.074   5.561  11.426  0.2542 -0.3521 -0.3005
14367TIP3    H164516   1.071   5.542  11.332  2.6007  0.2005 -0.5322
14367TIP3    H264517   1.082   5.475  11.467  0.4502 -0.5211 -0.6861
14368TIP3   OH264518   1.049   0.331  11.636 -0.0190 -0.1544  0.4436
14368TIP3    H164519   1.073   0.290  11.720 -1.2157  0.0948  0.9222
14368TIP3    H264520   1.023   0.420  11.660  2.8206  1.0705 -0.6061
14369TIP3   OH264521   1.951   5.939   3.920 -0.2798  0.1538  0.7409
14369TIP3    H164522   1.864   5.963   3.953 -1.2521 -1.9935 -0.0193
14369TIP3    H264523   1.977   6.012   3.865 -2.0719  0.4565  0.2080
14370TIP3   OH264524   2.595   1.179  14.221  0.3225  0.5971 -0.3741
14370TIP3    H164525   2.683   1.214  14.207  1.1107 -1.3695 -0.6665
14370TIP3    H264526   2.557   1.174  14.134  0.3176  0.4596 -0.3639
14371TIP3   OH264527   3.074   0.491  11.542 -0.2655 -0.0333 -0.8778
14371TIP3    H164528   3.098   0.446  11.623 -1.8708 -1.1702 -0.9815
14371TIP3    H264529   3.077   0.422  11.475  0.2218  0.7086 -1.6394
14372TIP3   OH264530   3.121   5.642   1.985 -0.5068  0.0121  0.1970
14372TIP3    H164531   3.168   5.589   2.050 -1.4477 -2.8522 -1.2894
14372TIP3    H264532   3.190   5.688   1.938  0.5982 -1.5362  0.2150
14373TIP3   OH264533   4.339   1.312   4.529 -0.3464 -0.3535 -0.2537
14373TIP3    H164534   4.259   1.346   4.569 -0.8388  1.9269 -2.8486
14373TIP3    H264535   4.409   1.353   4.579 -0.8964  0.6755 -0.2882
14374TIP3   OH264536   3.293   0.267   4.318 -0.0039 -0.5554  0.2148
14374TIP3    H164537   3.223   0.310   4.270 -0.6153 -2.0546 -0.3201
14374TIP3    H264538   3.287   0.301   4.407 -3.0550 -2.3694  0.8452
14375TIP3   OH264539   0.651   6.171   2.267  0.1818 -0.6985 -0.7734
14375TIP3    H164540   0.686   6.082   2.263  0.0145 -0.8607  0.6622
14375TIP3    H264541   0.714   6.220   2.320 -0.9972 -0.6392  0.6524
14376TIP3   OH264542   3.377   5.274   3.163 -0.3181  0.1224 -0.1212
14376TIP3    H164543   3.350   5.361   3.194 -2.8849 -0.0957 -1.4110
14376TIP3    H264544   3.352   5.214   3.233  2.5943  0.4469  1.3149
14377TIP3   OH264545   5.422   4.591  10.634  0.2661  0.0678  0.1249
14377TIP3    H164546   5.454   4.515  10.683 -1.0057 -0.2042  0.5732
14377TIP3    H264547   5.328   4.576  10.626  0.2022  0.9339 -0.9767
14378TIP3   OH264548   2.443   4.428   0.791 -0.7572 -0.2685  0.8021
14378TIP3    H164549   2.510   4.368   0.759 -0.2680  1.0255 -0.7189
14378TIP3    H264550   2.365   4.409   0.738 -0.8701 -0.1487  0.9221
14379TIP3   OH264551   5.820   4.409  10.851  0.4502 -0.2309  0.1641
14379TIP3    H164552   5.855   4.457  10.777  0.5236 -2.6082 -1.4574
14379TIP3    H264553   5.725   4.415  10.842  0.4496 -1.2608 -0.6945
14380TIP3   OH264554   4.785   5.370   2.301 -0.1620  0.0368 -0.0005
14380TIP3    H164555   4.775   5.354   2.395 -1.5288 -2.8321 -0.4990
14380TIP3    H264556   4.864   5.423   2.294 -0.4557  1.0441  2.7830
14381TIP3   OH264557   1.700   0.307   0.251 -0.8814 -0.0421  0.2585
14381TIP3    H164558   1.634   0.242   0.271 -1.8383  0.7368 -0.3008
14381TIP3    H264559   1.657   0.369   0.193  0.1464  0.8351  0.3895
14382TIP3   OH264560   3.985   2.679   3.709 -0.2383  0.6601  0.0499
14382TIP3    H164561   3.890   2.684   3.702 -0.6164 -1.8020  1.9314
14382TIP3    H264562   4.014   2.645   3.624 -1.6480 -3.0665  0.8625
14383TIP3   OH264563   4.860   0.278   4.295  0.1388 -0.1988 -0.0772
14383TIP3    H164564   4.797   0.312   4.359  0.0796 -2.0347  0.9126
14383TIP3    H264565   4.818   0.292   4.210 -0.2820  1.2557  0.3496
14384TIP3   OH264566   0.758   3.173  15.597  0.4046 -0.2657  0.1322
14384TIP3    H164567   0.723   3.115  15.529  0.3668  1.8949 -1.8211
14384TIP3    H264568   0.852   3.157  15.596  0.4062 -0.2527 -0.4533
14385TIP3   OH264569   2.886   6.101   4.708 -0.1516  0.3270  0.8541
14385TIP3    H164570   2.939   6.093   4.629 -0.5985 -1.4569  0.6877
14385TIP3    H264571   2.811   6.043   4.692 -2.9026  3.6095  0.5296
14386TIP3   OH264572   4.841   6.190   1.090  0.1683 -0.5253 -0.8225
14386TIP3    H164573   4.884   6.268   1.123  1.4461 -1.4383 -0.2245
14386TIP3    H264574   4.752   6.218   1.067  0.2472  0.8258  0.4295
14387TIP3   OH264575   6.442   2.799   4.246 -0.6099  0.2716 -0.1969
14387TIP3    H164576   6.349   2.812   4.228 -0.2816  1.0747 -1.4251
14387TIP3    H264577   6.464   2.718   4.199 -0.3201  1.0209 -1.4029
14388TIP3   OH264578   3.836   1.695   4.257 -0.4228 -0.2812  0.1252
14388TIP3    H164579   3.803   1.674   4.344  0.0333  1.3183  0.7214
14388TIP3    H264580   3.883   1.616   4.229 -1.7811 -1.3200  0.7041
14389TIP3   OH264581   4.563   1.921   5.746 -0.1919  0.0728  0.0269
14389TIP3    H164582   4.485   1.971   5.771 -0.2412  0.2788 -0.5147
14389TIP3    H264583   4.534   1.868   5.671  0.1718  0.1006 -0.1357
14390TIP3   OH264584   6.324   2.404  13.985  0.0210 -0.2024 -0.1373
14390TIP3    H164585   6.243   2.456  13.979 -1.0189 -1.6145  0.9938
14390TIP3    H264586   6.374   2.430  13.908 -1.5260  0.7114 -0.8970
14391TIP3   OH264587   2.613   4.723   0.783 -0.0723 -0.1920 -0.0750
14391TIP3    H164588   2.639   4.667   0.710 -0.1043  0.7473 -0.8205
14391TIP3    H264589   2.695   4.763   0.813 -0.1954  0.2347 -0.2934
14392TIP3   OH264590   4.711   5.125  12.326 -0.0439 -0.2150  0.2862
14392TIP3    H164591   4.623   5.148  12.356 -1.3021  0.9699 -3.6456
14392TIP3    H264592   4.714   5.029  12.330 -2.7120 -0.5226 -2.0492
14393TIP3   OH264593   5.725   3.546   2.414  0.5645 -0.2811 -0.2285
14393TIP3    H164594   5.767   3.472   2.369  0.6869 -0.1061 -0.4023
14393TIP3    H264595   5.750   3.622   2.363 -0.9095 -0.2853 -1.0162
14394TIP3   OH264596   0.667   6.597  12.695 -0.1956 -0.0657  0.0179
14394TIP3    H164597   0.594   6.639  12.649 -0.4656 -1.4199 -0.8475
14394TIP3    H264598   0.626   6.531  12.751  0.2390  0.6141  1.1699
14395TIP3   OH264599   3.375   1.499   1.983 -0.2536 -0.2464 -0.0909
14395TIP3    H164600   3.431   1.458   2.049  0.8749  0.8529 -0.3419
14395TIP3    H264601   3.307   1.434   1.966 -0.5720 -0.5737  2.1379
14396TIP3   OH264602   5.063   0.267  14.109  0.6295  0.1096  0.1402
14396TIP3    H164603   5.046   0.247  14.201 -2.0439  0.8116 -0.1292
14396TIP3    H264604   5.025   0.354  14.095 -1.9162 -1.2044 -2.2750
14397TIP3   OH264605   5.443   2.746  11.546 -0.2220  0.4339  0.1827
14397TIP3    H164606   5.493   2.827  11.538  0.1439  0.1309 -0.6379
14397TIP3    H264607   5.503   2.685  11.589  0.1750  0.0330 -0.9134
14398TIP3   OH264608   2.549   6.197   0.301  0.0107 -0.0510  0.2672
14398TIP3    H164609   2.588   6.113   0.275 -0.4036 -0.6025  1.3670
14398TIP3    H264610   2.581   6.259   0.236  2.1544 -0.6097  0.7313
14399TIP3   OH264611   5.821   0.815   0.534  0.0660  0.3314 -0.2293
14399TIP3    H164612   5.876   0.845   0.462 -0.1706  0.1381 -0.4971
14399TIP3    H264613   5.788   0.895   0.575  0.0717  0.4430 -0.4421
14400TIP3   OH264614   6.360   6.069   4.826  0.2231 -0.0106  0.5607
14400TIP3    H164615   6.335   5.979   4.806  0.7745 -0.0714  0.1154
14400TIP3    H264616   6.279   6.112   4.851 -0.3643 -0.1533 -1.0111
14401TIP3   OH264617   3.693   4.032   2.031  0.4731 -0.1639  0.4330
14401TIP3    H164618   3.740   3.979   1.967 -0.0143 -1.2312  0.9320
14401TIP3    H264619   3.757   4.048   2.101  0.4042 -0.7478  0.6347
14402TIP3   OH264620   3.360   4.203   3.766 -0.0229 -0.0733 -0.2786
14402TIP3    H164621   3.322   4.284   3.801 -0.1160 -0.9571  1.8045
14402TIP3    H264622   3.304   4.133   3.802  1.0272 -1.1591 -0.6852
14403TIP3   OH264623   3.031   0.969  11.483  0.0292 -0.0049 -0.1422
14403TIP3    H164624   3.072   0.901  11.536  1.6709  0.8759 -0.2162
14403TIP3    H264625   3.102   1.003  11.428 -1.2770  0.1931 -1.7760
14404TIP3   OH264626   3.614   1.850   4.002 -0.7992  0.5399 -0.1232
14404TIP3    H164627   3.624   1.793   3.926 -1.2967  0.1205  0.1153
14404TIP3    H264628   3.704   1.870   4.029 -0.6200  0.7982 -0.8877
14405TIP3   OH264629   3.183   3.496  14.613 -0.0852 -0.0399 -0.1576
14405TIP3    H164630   3.129   3.437  14.560  0.2607  0.5818 -1.2255
14405TIP3    H264631   3.153   3.584  14.589 -0.3426  0.2461  1.1466
14406TIP3   OH264632   6.116   4.345  15.009 -0.1963 -0.1998  0.1521
14406TIP3    H164633   6.133   4.256  15.040  0.4448 -0.4517 -0.8885
14406TIP3    H264634   6.200   4.389  15.013 -0.2197 -0.0693 -0.6776
14407TIP3   OH264635   2.475   0.237   4.348 -0.7525 -0.1137  0.0379
14407TIP3    H164636   2.538   0.304   4.373  0.2681 -0.5133 -1.3313
14407TIP3    H264637   2.526   0.172   4.299 -1.9175 -1.3146  0.3427
14408TIP3   OH264638   5.381   4.248  12.853  0.2730 -0.0805  0.3681
14408TIP3    H164639   5.308   4.242  12.914  0.3659 -0.3621  0.4543
14408TIP3    H264640   5.378   4.338  12.821  0.0053 -0.0358  0.5150
14409TIP3   OH264641   3.480   4.089  14.984  0.0992  0.2039  0.4578
14409TIP3    H164642   3.558   4.073  15.037  0.3220 -0.0286  0.0667
14409TIP3    H264643   3.408   4.053  15.036  0.1789  0.9145  1.0669
14410TIP3   OH264644   5.758   4.497   1.265  0.1551  0.1134  0.3172
14410TIP3    H164645   5.688   4.522   1.326 -1.2229  0.3663 -1.3105
14410TIP3    H264646   5.713   4.457   1.191  1.7948 -0.3254 -0.4961
14411TIP3   OH264647   2.727   1.583  13.380  0.6381  0.1517  0.2327
14411TIP3    H164648   2.697   1.507  13.330  2.3714  0.1412 -0.8685
14411TIP3    H264649   2.715   1.657  13.320  1.3728  0.3561  0.3337
14412TIP3   OH264650   0.385   4.971   3.159  1.0473  0.2804 -0.6123
14412TIP3    H164651   0.316   4.931   3.213  2.7847 -1.0139  0.7711
14412TIP3    H264652   0.390   4.915   3.082  1.0295 -0.0286 -0.3906
14413TIP3   OH264653   3.320   2.056  15.380  0.2567 -0.3370  0.0354
14413TIP3    H164654   3.370   2.067  15.461  1.1520  1.9968 -0.7544
14413TIP3    H264655   3.236   2.098  15.397  0.4998  0.2847 -0.2811
14414TIP3   OH264656   1.524   4.802   2.897  0.1621 -0.1686 -0.2853
14414TIP3    H164657   1.432   4.784   2.916  0.3162 -3.7743 -2.0614
14414TIP3    H264658   1.549   4.870   2.959 -3.2368 -0.2543  1.3890
14415TIP3   OH264659   0.606   0.814  14.158 -0.8594 -0.1502  0.8927
14415TIP3    H164660   0.568   0.902  14.160 -1.8970 -0.4937 -1.2947
14415TIP3    H264661   0.699   0.828  14.172 -1.1337  1.1933  1.5404
14416TIP3   OH264662   5.255   6.769  11.497  0.8097  0.8398 -0.7699
14416TIP3    H164663   5.209   6.820  11.563  0.4902  0.5752 -0.7842
14416TIP3    H264664   5.294   6.696  11.545 -0.0932  0.1992 -0.9788
14417TIP3   OH264665   5.878   1.891  14.382  0.2453  0.2909 -0.0999
14417TIP3    H164666   5.863   1.864  14.291  1.2323 -2.0082  0.3607
14417TIP3    H264667   5.973   1.901  14.389  0.2849 -0.6093  0.9315
14418TIP3   OH264668   1.296   0.975  11.361 -0.6761  0.3264  0.0844
14418TIP3    H164669   1.321   0.966  11.269 -0.4416 -0.1855  0.1942
14418TIP3    H264670   1.370   0.939  11.409 -0.6472  0.9244  0.4859
14419TIP3   OH264671   1.118   0.155   4.310 -0.2318 -0.0227  0.0789
14419TIP3    H164672   1.057   0.092   4.272 -1.4216  1.3403 -0.3960
14419TIP3    H264673   1.194   0.153   4.253 -1.0497  0.3250 -1.0578
14420TIP3   OH264674   0.882   6.130  17.036 -0.4105  0.0755 -0.1160
14420TIP3    H164675   0.976   6.117  17.033 -0.1230  1.9994 -0.8183
14420TIP3    H264676   0.871   6.225  17.042 -2.2746 -0.1799  2.1749
14421TIP3   OH264677   6.051   6.773   3.382 -0.0164 -0.4661  0.5445
14421TIP3    H164678   6.041   6.721   3.461 -1.0336 -0.9969  0.0879
14421TIP3    H264679   6.107   6.720   3.325 -0.5484 -0.7842  0.3162
14422TIP3   OH264680   3.770   3.724   2.387  0.4351 -0.6209  0.5967
14422TIP3    H164681   3.862   3.719   2.363  0.7438  0.7247  1.4096
14422TIP3    H264682   3.756   3.815   2.411 -0.9892 -0.9132  0.9926
14423TIP3   OH264683   3.035   4.710  11.434  0.2585  0.1340 -0.5074
14423TIP3    H164684   3.112   4.656  11.449 -0.2077 -0.6681 -0.9246
14423TIP3    H264685   3.068   4.800  11.436  1.4271 -0.2342 -1.9529
14424TIP3   OH264686   5.218   4.986  14.517 -0.2983  0.1394 -0.0069
14424TIP3    H164687   5.252   4.903  14.484 -0.2657 -0.0751  0.5568
14424TIP3    H264688   5.269   5.053  14.472 -0.5717 -0.1312 -0.7443
14425TIP3   OH264689   2.373   5.511  13.380  0.2125  0.3123  0.5040
14425TIP3    H164690   2.455   5.464  13.390  0.3223  0.6063  0.9749
14425TIP3    H264691   2.391   5.577  13.313  0.4105  0.4852  0.7253
14426TIP3   OH264692   5.354   4.072   5.034  0.0027 -0.3474 -0.2848
14426TIP3    H164693   5.417   4.125   4.984 -0.4152 -0.1696 -0.6316
14426TIP3    H264694   5.273   4.123   5.031 -0.2546 -0.7451 -0.1404
14427TIP3   OH264695   1.777   1.894   3.825  0.1996  0.5113  0.0196
14427TIP3    H164696   1.701   1.952   3.824  0.4291  0.8575  1.0879
14427TIP3    H264697   1.839   1.937   3.885  0.7892 -0.3224  0.0241
14428TIP3   OH264698   3.301   3.737  13.678 -0.2208  0.5102  0.3800
14428TIP3    H164699   3.263   3.732  13.590  1.0258 -0.2589 -0.1394
14428TIP3    H264700   3.271   3.822  13.712 -1.3244  0.4987 -0.4820
14429TIP3   OH264701   5.036   1.419  16.325  0.4564 -0.0267  0.3438
14429TIP3    H164702   5.102   1.448  16.262  2.2745 -1.7894  1.3254
14429TIP3    H264703   5.045   1.323  16.327 -1.2202 -0.2077  1.5394
14430TIP3   OH264704   1.955   6.437  11.160 -0.3487 -0.9560  0.0192
14430TIP3    H164705   1.938   6.351  11.122  2.9129 -1.4452 -0.6353
14430TIP3    H264706   1.874   6.486  11.147 -1.2863 -2.9615 -2.3455
14431TIP3   OH264707   6.124   2.809   0.043  0.3477 -0.2503 -0.0512
14431TIP3    H164708   6.149   2.859   0.121  1.5271 -0.8001 -0.0586
14431TIP3    H264709   6.144   2.718   0.065 -2.2453 -0.8508  0.1570
14432TIP3   OH264710   1.096   5.801   5.528  0.2221 -0.3417 -0.1664
14432TIP3    H164711   1.155   5.876   5.541  0.4688  0.0327 -2.8321
14432TIP3    H264712   1.094   5.757   5.613 -0.9453  3.3651  1.9494
14433TIP3   OH264713   1.487   4.885  14.796  0.0612 -0.0596  0.3382
14433TIP3    H164714   1.499   4.850  14.708  1.6955 -0.8800  0.8514
14433TIP3    H264715   1.479   4.807  14.851  1.1123  0.4046  1.1748
14434TIP3   OH264716   2.379   4.724   0.454  0.1920 -0.0609  0.2229
14434TIP3    H164717   2.443   4.654   0.472 -1.1775 -0.8880  2.3044
14434TIP3    H264718   2.296   4.679   0.446 -0.4304  1.1747 -0.5877
14435TIP3   OH264719   4.950   2.953  14.983  0.1915  0.0073  0.0738
14435TIP3    H164720   4.985   2.952  15.072 -1.4112  0.1115  0.7386
14435TIP3    H264721   4.857   2.932  14.994  0.1984 -1.1876 -1.6902
14436TIP3   OH264722   3.936   4.210  11.302  0.0724 -0.6519  0.4047
14436TIP3    H164723   4.007   4.180  11.360  0.4166 -2.2266 -0.7662
14436TIP3    H264724   3.932   4.144  11.233  0.5931  1.8314 -2.1817
14437TIP3   OH264725   1.939   4.541  11.970 -0.6608  0.6886  0.1646
14437TIP3    H164726   1.945   4.463  11.914  0.1453  0.3330  0.7146
14437TIP3    H264727   1.953   4.507  12.059 -2.5068  1.1555  0.6621
14438TIP3   OH264728   1.211   6.082   4.332 -0.0340 -0.3274 -0.3581
14438TIP3    H164729   1.305   6.092   4.313 -0.4270  0.9321 -1.8392
14438TIP3    H264730   1.208   6.028   4.410  1.9169 -1.0147 -0.7081
14439TIP3   OH264731   5.172   3.021   5.541  0.5501 -0.4737 -0.1096
14439TIP3    H164732   5.112   3.024   5.615  0.9405  1.5344  0.1831
14439TIP3    H264733   5.115   3.031   5.464  0.3847  0.1376  0.0900
14440TIP3   OH264734   3.511   2.593  14.029 -0.4116  0.0998  0.3252
14440TIP3    H164735   3.493   2.539  13.952  0.8361  1.3226 -0.8805
14440TIP3    H264736   3.425   2.623  14.058 -0.8260  0.9002 -1.5814
14441TIP3   OH264737   3.041   5.554   3.444  0.0150 -0.0086  0.5934
14441TIP3    H164738   2.968   5.589   3.496 -0.8129  0.6788 -0.9750
14441TIP3    H264739   3.022   5.580   3.355  1.6685 -0.7358 -0.0155
14442TIP3   OH264740   0.539   3.581   0.507 -0.4026  0.4846  0.2171
14442TIP3    H164741   0.592   3.506   0.530 -0.1189  0.5746 -0.1366
14442TIP3    H264742   0.601   3.645   0.471 -0.7081  0.6934  0.0500
14443TIP3   OH264743   6.424   6.056  12.374 -0.1145 -0.3358 -0.5708
14443TIP3    H164744   6.490   6.097  12.317  0.2738 -0.5652 -0.2905
14443TIP3    H264745   6.388   5.985  12.320 -0.0983 -0.2404 -0.7089
14444TIP3   OH264746   3.299   1.258  16.811  0.2304 -0.3958  0.3827
14444TIP3    H164747   3.222   1.201  16.818 -0.6719  0.4884 -1.3975
14444TIP3    H264748   3.273   1.338  16.857  0.5730 -0.5465  0.8401
14445TIP3   OH264749   6.766   1.356  13.645  0.2093 -0.3412 -0.2691
14445TIP3    H164750   6.685   1.383  13.602  1.0567  4.5635  0.6228
14445TIP3    H264751   6.737   1.323  13.731 -0.9265 -2.0798 -1.2529
14446TIP3   OH264752   6.664   0.293   3.918  0.5276 -0.6660 -0.0038
14446TIP3    H164753   6.754   0.321   3.902  1.2198 -2.2235  0.9954
14446TIP3    H264754   6.661   0.201   3.893 -0.8245 -0.6181 -0.1279
14447TIP3   OH264755   4.685   1.552   4.407 -0.0235  0.4115  0.2695
14447TIP3    H164756   4.716   1.461   4.404 -0.1390  0.3120  1.5276
14447TIP3    H264757   4.755   1.603   4.367 -0.6958 -0.3846 -2.0788
14448TIP3   OH264758   2.283   4.797   2.233 -0.1972  0.1293 -0.1151
14448TIP3    H164759   2.309   4.885   2.209  1.1809 -0.1418  0.2860
14448TIP3    H264760   2.351   4.767   2.294 -1.4970 -0.6115  1.0484
14449TIP3   OH264761   5.421   6.776   5.525  0.5751  0.1670  0.0371
14449TIP3    H164762   5.493   6.721   5.494  1.6055  0.1842  2.2711
14449TIP3    H264763   5.376   6.723   5.591 -1.4725  0.1892 -1.2389
14450TIP3   OH264764   2.645   5.085  13.471 -0.1830 -0.2156  0.0839
14450TIP3    H164765   2.741   5.093  13.474 -0.1891 -0.2955  1.3686
14450TIP3    H264766   2.629   5.016  13.407  0.7064 -1.1842  0.8559
14451TIP3   OH264767   5.876   4.365   1.698 -0.2505 -0.5389  0.0433
14451TIP3    H164768   5.810   4.418   1.743  1.1662  1.0762  0.3157
14451TIP3    H264769   5.900   4.297   1.761  0.4926  0.6906  1.1199
14452TIP3   OH264770   3.182   3.684   3.464 -0.1186 -0.0813 -0.0528
14452TIP3    H164771   3.274   3.701   3.483  0.4517 -2.5297 -0.3393
14452TIP3    H264772   3.135   3.752   3.512  1.6984 -0.3987  2.3547
14453TIP3   OH264773   0.391   1.886   5.389  0.1029 -0.0313 -0.1496
14453TIP3    H164774   0.416   1.893   5.481  1.4772 -1.1828 -0.3994
14453TIP3    H264775   0.344   1.802   5.384  0.1439 -0.0327 -0.5297
14454TIP3   OH264776   0.391   6.673  13.544  0.2602  0.1906 -0.2309
14454TIP3    H164777   0.359   6.760  13.568  0.8602  0.3272  0.0937
14454TIP3    H264778   0.383   6.621  13.624 -0.0484 -0.0423 -0.4103
14455TIP3   OH264779   2.028   0.149  11.767  0.1846 -0.1448 -0.2399
14455TIP3    H164780   2.049   0.055  11.766 -1.1118 -0.4469 -0.3615
14455TIP3    H264781   1.954   0.156  11.828 -0.0526  0.7233 -0.6210
14456TIP3   OH264782   2.663   1.541   2.011  0.4712  0.5836 -0.3246
14456TIP3    H164783   2.693   1.511   2.096  0.0183  1.1555  0.0403
14456TIP3    H264784   2.570   1.558   2.022  0.7385  2.3373 -0.4396
14457TIP3   OH264785   5.352   3.558   5.021  0.3185  0.4832  0.1052
14457TIP3    H164786   5.328   3.530   4.932 -0.0212  1.2894 -0.0677
14457TIP3    H264787   5.293   3.631   5.039  1.3757  1.2723  0.4263
14458TIP3   OH264788   1.354   0.793  13.509  0.1777  0.0855 -0.1167
14458TIP3    H164789   1.259   0.779  13.515 -0.1848  1.8720 -1.0954
14458TIP3    H264790   1.377   0.841  13.589 -0.4289  2.7544 -1.4271
14459TIP3   OH264791   3.709   0.715   1.624  0.5240 -0.5276 -0.4685
14459TIP3    H164792   3.794   0.710   1.667 -0.0271 -2.1338  0.5111
14459TIP3    H264793   3.669   0.629   1.638 -1.2368  0.1494 -0.9761
14460TIP3   OH264794   3.312   4.344   5.541  0.1908 -0.3431 -0.0240
14460TIP3    H164795   3.407   4.349   5.530  0.5364 -0.6052  2.2872
14460TIP3    H264796   3.296   4.253   5.568 -0.9596 -0.7721 -1.9731
14461TIP3   OH264797   5.894   1.833   2.649 -0.1379 -0.2953 -0.2055
14461TIP3    H164798   5.923   1.892   2.718 -1.0347  1.5317 -1.3225
14461TIP3    H264799   5.942   1.752   2.665  1.3782  0.8166  1.2093
14462TIP3   OH264800   1.005   2.595   4.153  0.5015 -0.1115  0.0490
14462TIP3    H164801   1.097   2.582   4.177  1.1848 -2.3775 -3.2249
14462TIP3    H264802   1.007   2.654   4.078 -1.0467  1.9766  1.5222
14463TIP3   OH264803   2.789   0.787  12.263 -0.3463  0.0474 -0.2001
14463TIP3    H164804   2.832   0.751  12.340 -1.8364 -0.7503  0.3032
14463TIP3    H264805   2.825   0.737  12.190 -0.7848 -0.9694  0.2618
14464TIP3   OH264806   3.951   3.781  12.356 -0.3913 -0.1545 -0.3297
14464TIP3    H164807   3.951   3.774  12.260 -0.6869 -0.8131 -0.2888
14464TIP3    H264808   4.023   3.725  12.384 -0.9993 -0.8617 -0.1238
14465TIP3   OH264809   2.774   3.754   2.441 -0.3249  0.3022 -0.4903
14465TIP3    H164810   2.834   3.761   2.367  1.1785  4.5452  0.8358
14465TIP3    H264811   2.830   3.733   2.516 -0.3316  3.7081  0.6552
14466TIP3   OH264812   3.110   4.724  15.397  0.6707 -0.0571 -0.1714
14466TIP3    H164813   3.134   4.719  15.489  1.4367  0.5461 -0.3289
14466TIP3    H264814   3.029   4.674  15.391  0.1697  0.5841  0.9746
14467TIP3   OH264815   4.171   3.537   0.127 -0.0264  0.4535  0.2501
14467TIP3    H164816   4.137   3.626   0.140  0.3451  0.5116  0.8759
14467TIP3    H264817   4.160   3.494   0.212  1.7695  0.5916  0.6025
14468TIP3   OH264818   3.200   1.650  13.712  1.1515  0.3261 -0.5747
14468TIP3    H164819   3.230   1.685  13.795  1.5847  0.2751 -0.7086
14468TIP3    H264820   3.164   1.726  13.665 -1.6469 -0.0539  0.7292
14469TIP3   OH264821   3.660   5.043  16.194 -0.1865  0.4043 -0.3791
14469TIP3    H164822   3.657   4.963  16.245  0.2068 -0.0853 -1.1022
14469TIP3    H264823   3.573   5.050  16.155 -1.0074  1.5941  1.5278
14470TIP3   OH264824   5.583   6.515   4.854 -0.4807  0.0137 -0.4593
14470TIP3    H164825   5.632   6.589   4.818  1.0699 -0.1700  1.1069
14470TIP3    H264826   5.543   6.549   4.934 -1.1786 -0.4107 -0.6201
14471TIP3   OH264827   1.776   0.250   2.843 -0.1583 -0.1404  0.0207
14471TIP3    H164828   1.689   0.210   2.849 -0.1355 -0.1973 -0.0251
14471TIP3    H264829   1.777   0.289   2.755  0.8329 -2.4188 -1.0749
14472TIP3   OH264830   5.724   0.891  14.260  0.2181 -0.0624  0.2323
14472TIP3    H164831   5.751   0.820  14.202 -0.3416 -0.0200 -0.0949
14472TIP3    H264832   5.628   0.890  14.256  0.1913  0.3096  0.7100
14473TIP3   OH264833   4.693   0.558   4.338 -0.4307  0.4388  0.1836
14473TIP3    H164834   4.681   0.527   4.427 -1.0052  1.2998  0.4157
14473TIP3    H264835   4.619   0.616   4.322  0.8647  2.1051 -0.0335
14474TIP3   OH264836   6.529   0.264  14.770  0.5151  0.3762 -0.0635
14474TIP3    H164837   6.577   0.327  14.717  0.7460 -2.2268 -3.2669
14474TIP3    H264838   6.556   0.178  14.737 -1.6439 -1.3920  2.2982
14475TIP3   OH264839   3.826   4.716   2.120  0.0685 -0.3920  0.6978
14475TIP3    H164840   3.743   4.730   2.075  0.1153 -0.9354  0.4333
14475TIP3    H264841   3.824   4.776   2.194  0.6898  1.7624 -0.9173
14476TIP3   OH264842   2.072   2.027  13.917 -0.3915  0.2894  0.4393
14476TIP3    H164843   2.074   2.078  13.836  1.2931 -0.4824 -0.0485
14476TIP3    H264844   2.023   2.081  13.979  3.9389  4.1994  1.0005
14477TIP3   OH264845   3.783   4.989   6.524 -0.2509  0.6229 -0.8034
14477TIP3    H164846   3.745   4.901   6.527 -0.6929  0.7629 -1.9855
14477TIP3    H264847   3.877   4.974   6.515 -0.0470  0.2779  1.3041
14478TIP3   OH264848   6.599   3.580  15.110 -0.4801 -0.3746  0.9884
14478TIP3    H164849   6.661   3.616  15.173 -0.8270 -0.1071  1.1804
14478TIP3    H264850   6.534   3.534  15.163 -0.6039 -0.4087  0.8086
14479TIP3   OH264851   1.565   6.448   0.481 -0.4209  0.1784 -0.3067
14479TIP3    H164852   1.582   6.425   0.573 -1.2249 -0.6920 -0.3565
14479TIP3    H264853   1.587   6.541   0.475  0.2927  0.0815  0.6038
14480TIP3   OH264854   3.874   5.348   2.596 -0.0676  0.2051 -0.1087
14480TIP3    H164855   3.938   5.391   2.653  0.0606 -0.4343  0.2397
14480TIP3    H264856   3.824   5.420   2.557  1.2912  0.7664 -0.8961
14481TIP3   OH264857   3.368   6.589  15.566  0.2869 -0.4798 -0.1459
14481TIP3    H164858   3.305   6.650  15.528  0.1043 -0.3789  0.3176
14481TIP3    H264859   3.319   6.543  15.635  1.3420  1.3328  1.9324
14482TIP3   OH264860   1.555   0.712  10.645 -0.1964 -0.0953  0.0277
14482TIP3    H164861   1.481   0.655  10.665 -0.1195  0.1756  1.1755
14482TIP3    H264862   1.630   0.668  10.685  0.3641 -0.5907 -1.5010
14483TIP3   OH264863   6.077   2.117  13.635 -0.1936 -0.1515 -0.0136
14483TIP3    H164864   6.162   2.073  13.639  0.0453  0.2422 -0.6200
14483TIP3    H264865   6.093   2.203  13.673 -1.1121 -1.2128  3.0410
14484TIP3   OH264866   4.854   5.910  11.014  0.3992  0.2100 -0.0689
14484TIP3    H164867   4.855   5.944  11.103  0.5127 -1.4548  0.5894
14484TIP3    H264868   4.946   5.909  10.987  0.2217  2.9061 -1.1399
14485TIP3   OH264869   5.532   3.762   1.478  0.0965 -0.0597 -0.3503
14485TIP3    H164870   5.468   3.797   1.540  0.3047  0.5473 -0.4730
14485TIP3    H264871   5.509   3.669   1.471 -2.0691  0.5151 -1.9447
14486TIP3   OH264872   0.742   3.147   5.038  0.7063  0.1231  0.5507
14486TIP3    H164873   0.708   3.225   5.082 -0.5097  1.7240 -2.8954
14486TIP3    H264874   0.814   3.179   4.983  0.1190 -1.1251 -1.0307
14487TIP3   OH264875   6.376   5.230   0.570 -0.0249  0.1398  0.3554
14487TIP3    H164876   6.364   5.214   0.477 -0.6584 -0.7554  0.5817
14487TIP3    H264877   6.431   5.158   0.600  0.3329  0.5258  0.6499
14488TIP3   OH264878   2.306   0.403  16.624  0.3558 -0.0464  0.2598
14488TIP3    H164879   2.322   0.353  16.705  1.0927 -3.2932 -1.6945
14488TIP3    H264880   2.393   0.413  16.585 -0.1065  0.4577 -0.6577
14489TIP3   OH264881   2.906   1.295  13.922  0.4665 -0.9688 -0.2024
14489TIP3    H164882   2.941   1.381  13.901  0.0703 -0.9354 -0.7485
14489TIP3    H264883   2.881   1.257  13.838 -0.5464 -1.1027  0.1394
14490TIP3   OH264884   5.779   2.074  12.221 -0.7830  0.1522 -0.1321
14490TIP3    H164885   5.759   2.042  12.133  0.2726  1.9305 -1.0747
14490TIP3    H264886   5.699   2.120  12.248 -1.8578 -2.0817  0.7357
14491TIP3   OH264887   2.996   1.042  16.323  0.7430 -0.4496  0.1668
14491TIP3    H164888   3.003   0.960  16.273  1.6611 -0.2526 -0.0443
14491TIP3    H264889   3.086   1.071  16.334  0.3692  1.3162 -1.0222
14492TIP3   OH264890   5.922   2.064   4.329 -0.2057 -0.3853  0.9298
14492TIP3    H164891   5.968   2.024   4.402  0.7039 -1.0119  0.0482
14492TIP3    H264892   5.976   2.138   4.303 -0.2868 -0.4345  0.6117
14493TIP3   OH264893   4.137   1.681  12.490 -0.5654 -0.2464 -0.4519
14493TIP3    H164894   4.045   1.709  12.486 -0.2144  1.0923  0.2648
14493TIP3    H264895   4.150   1.629  12.411 -1.8057 -0.0376 -0.8117
14494TIP3   OH264896   4.782   2.362  11.407  0.6407  0.5339  0.3181
14494TIP3    H164897   4.821   2.395  11.326  0.0893  1.4460  0.4156
14494TIP3    H264898   4.766   2.440  11.460  0.6715 -0.0207  1.1707
14495TIP3   OH264899   0.306   0.769   6.273 -0.3242  0.3001 -0.6876
14495TIP3    H164900   0.251   0.844   6.299  0.4414 -0.0081  2.1534
14495TIP3    H264901   0.330   0.728   6.356  0.3951 -2.3291 -2.1171
14496TIP3   OH264902   0.249   6.341   0.909 -0.3798  0.1281  0.2100
14496TIP3    H164903   0.322   6.280   0.895 -0.3464 -0.0548  1.1145
14496TIP3    H264904   0.291   6.424   0.931 -0.3683  1.0027 -2.6649
14497TIP3   OH264905   3.322   1.525  13.478 -0.0306 -0.1890 -0.5024
14497TIP3    H164906   3.329   1.619  13.494 -0.0957 -0.5333  1.9481
14497TIP3    H264907   3.252   1.516  13.414 -0.4948  1.3816 -0.2419
14498TIP3   OH264908   0.804   2.648  11.357  0.0648 -0.6663 -0.2908
14498TIP3    H164909   0.747   2.604  11.294 -0.1200 -0.2643 -0.4055
14498TIP3    H264910   0.764   2.629  11.442 -0.2306 -0.4076 -0.3686
14499TIP3   OH264911   3.349   4.940  15.653 -0.4695 -0.2939  0.0272
14499TIP3    H164912   3.285   4.871  15.669  0.2789 -0.7730  0.9956
14499TIP3    H264913   3.434   4.895  15.653 -0.0390  0.4998 -0.1789
14500TIP3   OH264914   4.808   1.584   2.997 -0.2341 -0.0867 -0.0775
14500TIP3    H164915   4.855   1.519   3.049 -0.6151 -1.4994 -1.4185
14500TIP3    H264916   4.738   1.535   2.953 -0.1499  1.0779 -1.6268
14501TIP3   OH264917   3.153   3.638  16.979 -0.0453  0.3025  0.0857
14501TIP3    H164918   3.149   3.661  16.886  0.7139  0.7856  0.1722
14501TIP3    H264919   3.212   3.563  16.983  0.1473  0.4615  0.2149
14502TIP3   OH264920   4.336   5.167   2.838 -0.2227  0.3099 -0.9575
14502TIP3    H164921   4.428   5.143   2.826  0.1943  1.4983 -0.3084
14502TIP3    H264922   4.289   5.083   2.840  1.4176 -0.8393  3.6853
14503TIP3   OH264923   1.142   6.386   5.511 -0.3440 -0.5850 -0.1034
14503TIP3    H164924   1.162   6.443   5.436 -0.3407 -0.2376  0.1567
14503TIP3    H264925   1.225   6.381   5.559 -0.4647 -0.4294  0.1243
14504TIP3   OH264926   1.424   6.400  12.142 -0.2043 -0.0599  0.6052
14504TIP3    H164927   1.479   6.417  12.066  0.6283 -2.1113  0.6799
14504TIP3    H264928   1.399   6.487  12.174  0.0612  0.8513 -1.5320
14505TIP3   OH264929   4.070   6.276   0.344  0.0052 -0.3795 -0.0917
14505TIP3    H164930   4.130   6.203   0.329  0.6274  0.0165  0.4211
14505TIP3    H264931   4.026   6.254   0.426  1.1542  0.4271  0.7801
14506TIP3   OH264932   5.213   5.407  15.049  0.3631 -0.1699  0.0928
14506TIP3    H164933   5.289   5.366  15.090  1.9273  0.3979 -2.0912
14506TIP3    H264934   5.247   5.448  14.970 -1.9752  1.3657 -0.2164
14507TIP3   OH264935   5.307   2.754   3.251 -0.3915 -0.4187 -0.1984
14507TIP3    H164936   5.252   2.785   3.179 -2.1824 -1.7370  0.5373
14507TIP3    H264937   5.347   2.673   3.219 -1.6259 -1.3057  0.4398
14508TIP3   OH264938   5.190   5.147   2.401  0.7431  0.2716  0.0119
14508TIP3    H164939   5.095   5.150   2.405  0.7887  1.2211  1.4858
14508TIP3    H264940   5.210   5.085   2.331 -0.9467  1.8995 -2.0562
14509TIP3   OH264941   0.604   2.949  13.949  0.3325  0.4752 -0.0126
14509TIP3    H164942   0.616   3.044  13.949 -0.8256  0.6487  1.3892
14509TIP3    H264943   0.623   2.923  13.859 -0.7123  2.2150 -0.7925
14510TIP3   OH264944   0.452   3.783   5.338  0.0069 -0.0866 -0.2275
14510TIP3    H164945   0.424   3.869   5.370 -1.8184 -0.2111 -1.3254
14510TIP3    H264946   0.415   3.721   5.401 -1.1964 -0.1814 -0.9879
14511TIP3   OH264947   4.751   3.799   3.337 -0.4632 -0.0479  0.8380
14511TIP3    H164948   4.764   3.777   3.245 -0.3991  1.5351  0.4345
14511TIP3    H264949   4.766   3.717   3.384 -0.4581 -0.8756 -0.5490
14512TIP3   OH264950   3.942   3.330   2.150 -0.0186 -0.9800 -0.3157
14512TIP3    H164951   3.893   3.402   2.111 -0.3186 -1.0931 -0.1558
14512TIP3    H264952   4.031   3.363   2.160 -0.2356 -0.5053  0.0850
14513TIP3   OH264953   6.745   4.269   4.208 -0.0918  0.6060  0.0255
14513TIP3    H164954   6.760   4.279   4.113 -2.5687 -0.7804 -0.5938
14513TIP3    H264955   6.778   4.182   4.228 -3.0900 -0.7921 -0.5165
14514TIP3   OH264956   4.286   6.752  15.520  0.0136  0.0012 -0.1381
14514TIP3    H164957   4.366   6.761  15.469  0.1020 -2.9697 -0.7252
14514TIP3    H264958   4.311   6.697  15.594 -1.4538 -1.1151 -0.4117
14515TIP3   OH264959   0.298   5.239  15.987  0.0098  0.6475 -0.2491
14515TIP3    H164960   0.202   5.242  15.984 -0.0581  0.0071  0.8420
14515TIP3    H264961   0.320   5.154  15.949  0.1493  0.7340 -0.3642
14516TIP3   OH264962   2.651   5.688  11.020  0.1430  0.1072 -0.6613
14516TIP3    H164963   2.703   5.610  11.005  1.9310  1.4584 -1.7881
14516TIP3    H264964   2.616   5.712  10.934 -0.4757  0.5103 -0.3125
14517TIP3   OH264965   4.537   6.193  15.969 -0.4422 -0.3152  0.0571
14517TIP3    H164966   4.560   6.237  15.887 -0.0092 -0.0839  0.2966
14517TIP3    H264967   4.480   6.121  15.943 -0.8091  0.1302 -0.3858
14518TIP3   OH264968   3.907   5.441  16.372 -0.3344 -0.3117 -0.3667
14518TIP3    H164969   3.886   5.399  16.288 -1.4241 -1.2733  0.3461
14518TIP3    H264970   3.887   5.533  16.358 -1.1106 -0.5615 -1.0024
14519TIP3   OH264971   5.924   0.267  11.030 -0.3037  0.4417 -0.1746
14519TIP3    H164972   5.889   0.191  10.984 -1.6988  1.7687 -1.4020
14519TIP3    H264973   5.932   0.335  10.963  1.5832  1.2026  0.7371
14520TIP3   OH264974   6.067   2.194  15.932  0.4584 -0.0847  0.1954
14520TIP3    H164975   6.053   2.169  16.023 -0.3698  0.0262  0.1109
14520TIP3    H264976   5.988   2.244  15.909  0.4158 -0.5582 -0.7263
14521TIP3   OH264977   5.974   5.580   2.439  0.4438  0.0243 -0.2770
14521TIP3    H164978   5.932   5.619   2.515 -2.0715 -2.1711 -0.3898
14521TIP3    H264979   5.951   5.638   2.366 -2.9600 -1.2620 -0.4042
14522TIP3   OH264980   2.538   0.686  13.074  0.0981 -0.2191  0.4446
14522TIP3    H164981   2.578   0.630  13.008  1.0055  2.3788 -1.3530
14522TIP3    H264982   2.602   0.690  13.145  0.2755 -0.9287  0.3299
14523TIP3   OH264983   1.937   1.231  16.483 -0.1119  0.0286 -0.7252
14523TIP3    H164984   1.849   1.213  16.516  0.5102 -2.4470 -0.1778
14523TIP3    H264985   1.990   1.244  16.562  0.5967 -1.8278 -0.8403
14524TIP3   OH264986   2.636   3.139   5.653 -0.4439  0.2098 -0.0478
14524TIP3    H164987   2.727   3.162   5.671 -0.4956  0.9173 -0.6331
14524TIP3    H264988   2.587   3.220   5.671 -1.0406 -0.3240  0.8241
14525TIP3   OH264989   1.179   6.580   2.598  0.1369  0.3458 -0.1948
14525TIP3    H164990   1.098   6.620   2.631 -0.8734 -2.2496  0.6831
14525TIP3    H264991   1.233   6.568   2.676  1.0382  1.2433 -0.6561
14526TIP3   OH264992   5.008   6.300   3.166 -0.1885 -0.1445  0.4402
14526TIP3    H164993   5.081   6.357   3.192  0.7224 -0.9175 -0.3587
14526TIP3    H264994   5.033   6.267   3.079 -1.5106 -0.3978  0.1312
14527TIP3   OH264995   5.959   5.569   0.022 -0.4441  0.1756 -0.0516
14527TIP3    H164996   5.945   5.587  -0.071 -2.0309  0.5854  0.2427
14527TIP3    H264997   5.871   5.565   0.060  0.1500  2.5743  1.9001
14528TIP3   OH264998   6.276   3.702  16.130  0.4179 -0.0337  0.6667
14528TIP3    H164999   6.255   3.785  16.086  0.4403 -0.6673 -0.5670
14528TIP3    H265000   6.290   3.727  16.221 -1.9716  0.9748  0.8308
14529TIP3   OH265001   5.597   0.081  13.398 -0.4094 -0.7726  0.7976
14529TIP3    H165002   5.669   0.042  13.347 -0.4110 -1.7210  1.4834
14529TIP3    H265003   5.519   0.063  13.346 -0.1137  0.7921 -0.2490
14530TIP3   OH265004   1.290   1.757  10.975  0.1297 -0.0995  0.1331
14530TIP3    H165005   1.322   1.708  11.050 -0.9972 -2.3490 -0.7798
14530TIP3    H265006   1.202   1.724  10.960 -0.3032  1.5067 -1.1836
14531TIP3   OH265007   3.124   2.036   5.804 -0.4798  0.4235  0.0898
14531TIP3    H165008   3.148   2.046   5.897  0.5858  0.0644 -0.1273
14531TIP3    H265009   3.073   2.114   5.785 -1.0588  0.3075  1.0853
14532TIP3   OH265010   0.889   4.748  11.971  0.3725  0.1798  0.3800
14532TIP3    H165011   0.966   4.693  11.955  1.2672  0.6047  2.8533
14532TIP3    H265012   0.923   4.837  11.978 -0.7366  0.7634 -1.0508
14533TIP3   OH265013   4.376   1.115   0.977 -0.0506  0.2786 -0.0875
14533TIP3    H165014   4.366   1.209   0.988 -0.1786  0.3233 -0.5453
14533TIP3    H265015   4.289   1.085   0.949  0.2797  0.2101 -1.0995
14534TIP3   OH265016   1.880   4.846  12.342 -0.6162 -0.3586 -0.0654
14534TIP3    H165017   1.822   4.779  12.379  0.1521 -0.7571  0.4304
14534TIP3    H265018   1.893   4.908  12.413  0.4870 -0.8797  0.2068
14535TIP3   OH265019   0.561   3.692   3.982 -0.7185 -0.7309 -0.0917
14535TIP3    H165020   0.619   3.633   4.030 -2.3560 -1.2780  1.3360
14535TIP3    H265021   0.478   3.644   3.976 -1.4552  0.5708 -0.7892
14536TIP3   OH265022   4.710   3.162   5.511 -0.0334 -0.2488  0.1194
14536TIP3    H165023   4.642   3.096   5.500  0.2009 -0.3802 -0.5894
14536TIP3    H265024   4.733   3.158   5.604 -0.4140 -0.7733  0.1937
14537TIP3   OH265025   6.394   0.331  15.500 -0.6521 -0.1442  0.6889
14537TIP3    H165026   6.385   0.278  15.421 -0.3886 -1.0703  1.2572
14537TIP3    H265027   6.459   0.398  15.478  0.1062 -0.9530  0.4031
14538TIP3   OH265028   3.945   2.760   2.579 -0.6899  0.1729  0.1431
14538TIP3    H165029   4.018   2.798   2.629 -0.2961 -0.4695  0.0691
14538TIP3    H265030   3.890   2.719   2.645  0.6816 -2.1164 -0.0311
14539TIP3   OH265031   4.858   1.209  13.938 -0.4414 -0.0627 -0.0620
14539TIP3    H165032   4.923   1.146  13.907  0.1580 -0.1580  1.2975
14539TIP3    H265033   4.853   1.193  14.032 -0.2169  1.9640  0.3409
14540TIP3   OH265034   1.575   2.402  12.301  0.0120  0.0154  0.4470
14540TIP3    H165035   1.633   2.353  12.360  1.6360  0.9337 -0.3129
14540TIP3    H265036   1.619   2.487  12.290 -1.4640  0.7221 -0.2271
14541TIP3   OH265037   3.698   6.734   4.724 -0.3831  0.0242  0.3233
14541TIP3    H165038   3.668   6.694   4.642  0.9452  1.3836 -0.8816
14541TIP3    H265039   3.722   6.659   4.780 -0.1494 -0.9200 -0.9825
14542TIP3   OH265040   1.691   1.920  12.302 -0.0901 -0.3366  0.1752
14542TIP3    H165041   1.739   1.840  12.281 -0.4349  0.2513 -3.4674
14542TIP3    H265042   1.602   1.890  12.319 -0.2321 -0.7689 -1.2216
14543TIP3   OH265043   1.274   2.261  16.168 -0.1765  0.1992 -0.2416
14543TIP3    H165044   1.361   2.235  16.138  0.2356 -1.0847  1.8785
14543TIP3    H265045   1.278   2.356  16.174  0.1492  0.4153 -2.7264
14544TIP3   OH265046   3.093   6.192   0.443  0.0874  0.0740  0.0643
14544TIP3    H165047   3.153   6.127   0.406 -1.6534 -1.0785 -0.8838
14544TIP3    H265048   3.147   6.243   0.503  1.8504 -1.3114 -0.2497
14545TIP3   OH265049   6.105   0.421   4.825  0.0785 -0.6324  0.7959
14545TIP3    H165050   6.122   0.497   4.882  2.1154 -0.8823  0.5884
14545TIP3    H265051   6.103   0.457   4.737  0.3798 -0.7255  0.7505
14546TIP3   OH265052   2.131   3.671  11.552 -0.5720 -0.2038 -0.0650
14546TIP3    H165053   2.196   3.741  11.561 -2.2619  1.4443 -0.0293
14546TIP3    H265054   2.169   3.596  11.599  2.1357  0.0323 -1.6997
14547TIP3   OH265055   2.124   0.590   1.215 -0.8771 -0.3397  0.3695
14547TIP3    H165056   2.114   0.563   1.124 -0.0249  1.2598 -0.2402
14547TIP3    H265057   2.166   0.676   1.211  0.5628 -0.8646  2.3208
14548TIP3   OH265058   1.852   3.793   0.840  0.2328  0.1551  0.0274
14548TIP3    H165059   1.779   3.853   0.850  0.7455  0.6418  0.9814
14548TIP3    H265060   1.865   3.755   0.927  0.2633 -0.9358 -0.4387
14549TIP3   OH265061   2.741   5.450   6.546 -0.2247  0.0341 -0.0158
14549TIP3    H165062   2.695   5.494   6.475  1.7950  2.0954 -0.1846
14549TIP3    H265063   2.747   5.359   6.519 -0.8974  0.4578 -1.6986
14550TIP3   OH265064   3.990   1.800   0.381  0.2281 -0.3086  0.0752
14550TIP3    H165065   3.903   1.778   0.348 -0.1131 -0.2261  0.8873
14550TIP3    H265066   3.973   1.849   0.462  1.0314 -0.2557  0.2197
14551TIP3   OH265067   1.790   1.498  10.606  0.0113  0.6250  0.1100
14551TIP3    H165068   1.710   1.447  10.591 -1.2234  2.4110  0.2403
14551TIP3    H265069   1.802   1.496  10.700 -0.4581  1.1240  0.1902
14552TIP3   OH265070   0.717   5.911  11.701  0.5727 -0.3383 -0.6460
14552TIP3    H165071   0.760   5.864  11.772 -1.0593  0.3902  0.9018
14552TIP3    H265072   0.693   5.843  11.638  1.2325 -1.1302 -0.0557
14553TIP3   OH265073   6.003   3.323  16.988  0.4127 -0.0385  0.0666
14553TIP3    H165074   6.037   3.316  17.077 -0.9552 -0.3910  0.5854
14553TIP3    H265075   5.978   3.415  16.979 -0.7333 -0.2814  0.5626
14554TIP3   OH265076   3.641   2.055  16.568  0.4143  0.2257 -0.2087
14554TIP3    H165077   3.725   2.019  16.539 -0.7674 -0.3389 -3.3113
14554TIP3    H265078   3.618   2.121  16.503 -1.0488  1.1854  1.1946
14555TIP3   OH265079   0.762   6.557   2.326  0.1488 -0.5789  0.1611
14555TIP3    H165080   0.678   6.557   2.372 -0.1923  1.9048 -0.3059
14555TIP3    H265081   0.809   6.482   2.362 -0.9524 -0.0639  2.9533
14556TIP3   OH265082   5.631   0.342  12.482  0.0066  0.3881 -0.2804
14556TIP3    H165083   5.649   0.418  12.537  2.1877  0.4337 -0.9652
14556TIP3    H265084   5.715   0.295  12.478 -1.5529 -2.8715  1.2817
14557TIP3   OH265085   5.134   3.807   1.351 -0.2417  0.3294 -0.1994
14557TIP3    H165086   5.067   3.739   1.343  1.8785 -1.7934 -1.3675
14557TIP3    H265087   5.157   3.807   1.444  1.2301 -2.3061 -0.4304
14558TIP3   OH265088   0.515   4.175  11.684 -0.1592 -0.3514 -0.1540
14558TIP3    H165089   0.564   4.095  11.668  0.3628 -0.3406  1.2695
14558TIP3    H265090   0.486   4.168  11.775 -1.4303  0.3844 -0.4670
14559TIP3   OH265091   5.061   2.910  16.851 -0.0136  0.3832  0.1296
14559TIP3    H165092   5.149   2.899  16.888 -0.4837 -1.4444  0.8165
14559TIP3    H265093   5.041   2.825  16.811 -1.0326  1.1374 -1.0319
14560TIP3   OH265094   1.455   6.407   3.601  0.3661  0.8194  0.0417
14560TIP3    H165095   1.368   6.388   3.634  0.6119  0.5860  0.5569
14560TIP3    H265096   1.457   6.367   3.514  0.1989  0.2077  0.3156
14561TIP3   OH265097   1.344   2.637   5.697  0.1428 -0.4758  0.3190
14561TIP3    H165098   1.290   2.560   5.710  1.0557 -1.3423 -0.7809
14561TIP3    H265099   1.290   2.696   5.644 -0.0036 -1.0236 -0.1521
14562TIP3   OH265100   2.138   0.623  11.337 -0.4570  0.0134  0.2283
14562TIP3    H165101   2.083   0.695  11.369 -0.1878  0.4918 -0.3801
14562TIP3    H265102   2.160   0.647  11.247 -0.8279 -1.1063 -0.1786
14563TIP3   OH265103   3.322   5.112   4.698 -0.0194  0.5582 -0.0184
14563TIP3    H165104   3.373   5.031   4.692  1.2218  1.2914  0.2801
14563TIP3    H265105   3.286   5.111   4.787 -0.8295 -0.1171 -0.3369
14564TIP3   OH265106   3.361   0.299  13.608  0.7593 -0.3999  0.2328
14564TIP3    H165107   3.303   0.242  13.659  1.1135 -1.1911 -0.2358
14564TIP3    H265108   3.424   0.240  13.568 -0.2026  0.0369 -2.1109
14565TIP3   OH265109   5.102   0.783  15.577  0.0963 -0.2830  0.0680
14565TIP3    H165110   5.121   0.701  15.532  1.1220 -0.2925  0.5071
14565TIP3    H265111   5.143   0.774  15.663 -1.1423  0.0569  0.7276
14566TIP3   OH265112   0.551   1.485  11.841  0.0212 -0.4307  1.0778
14566TIP3    H165113   0.550   1.484  11.745 -2.4293  2.1444  0.9485
14566TIP3    H265114   0.474   1.433  11.865  0.0649 -0.2357  1.6274
14567TIP3   OH265115   5.827   4.370   2.084 -0.3072 -0.6217  0.7291
14567TIP3    H165116   5.746   4.320   2.078  0.2726 -1.5293  0.3018
14567TIP3    H265117   5.804   4.457   2.051 -0.9537 -1.0526  0.0251
14568TIP3   OH265118   2.359   2.439   0.182  0.6187  0.0221 -0.4577
14568TIP3    H165119   2.411   2.483   0.115  0.9228  0.5562  0.1198
14568TIP3    H265120   2.353   2.503   0.253  0.2706 -0.5281  0.0114
14569TIP3   OH265121   4.496   3.330   5.971  0.5741  0.4306 -0.2920
14569TIP3    H165122   4.433   3.377   6.026  0.5083  0.0882 -0.0735
14569TIP3    H265123   4.580   3.371   5.989  0.6230  0.0348  0.3920
14570TIP3   OH265124   2.407   5.215   0.598  0.1457 -0.1267 -0.1012
14570TIP3    H165125   2.391   5.290   0.540  2.7283 -1.3534 -2.7084
14570TIP3    H265126   2.321   5.176   0.611 -0.8041  1.2946 -1.6569
14571TIP3   OH265127   0.802   1.197   1.537 -0.4412  0.0823  0.0476
14571TIP3    H165128   0.784   1.133   1.606  0.5161 -1.4409 -1.0635
14571TIP3    H265129   0.741   1.174   1.467  0.6302 -0.3216 -0.7782
14572TIP3   OH265130   3.972   3.322  14.614  0.0291 -0.2692  0.3022
14572TIP3    H165131   3.892   3.282  14.579 -0.7302  1.5139 -0.1088
14572TIP3    H265132   4.041   3.293  14.554 -0.6760 -0.0979 -0.6145
14573TIP3   OH265133   0.695   5.132  16.478 -0.1202  0.6023  0.5031
14573TIP3    H165134   0.790   5.120  16.481 -0.1313  0.5541  0.6900
14573TIP3    H265135   0.663   5.078  16.550 -0.2184  1.3479  1.0261
14574TIP3   OH265136   2.968   6.377  12.624  0.0609 -0.0737  0.3476
14574TIP3    H165137   2.923   6.429  12.559 -0.4268  1.2722  1.7050
14574TIP3    H265138   2.924   6.292  12.623 -1.4014  0.6604  0.4600
14575TIP3   OH265139   2.135   4.986  14.496 -0.0529 -0.4748 -0.0379
14575TIP3    H165140   2.209   5.033  14.535  0.6650 -1.0029 -0.7247
14575TIP3    H265141   2.100   5.046  14.430 -0.0761 -0.3259  0.1099
14576TIP3   OH265142   3.099   1.630   6.331 -0.9317 -0.3241  0.0270
14576TIP3    H165143   3.063   1.676   6.407 -1.3529  0.3973 -0.5925
14576TIP3    H265144   3.178   1.680   6.309 -1.5767  0.3422 -0.8607
14577TIP3   OH265145   4.728   3.010  12.011  0.2608  0.4206  0.1920
14577TIP3    H165146   4.750   2.962  12.091  0.4820  0.0681 -0.0774
14577TIP3    H265147   4.788   3.085  12.011  0.8917 -0.0724 -0.1047
14578TIP3   OH265148   1.496   6.176  15.322 -0.3155 -0.1851  0.3140
14578TIP3    H165149   1.563   6.222  15.272  0.2801 -1.1675  0.1859
14578TIP3    H265150   1.539   6.096  15.353 -1.4266 -0.8595  0.1828
14579TIP3   OH265151   4.718   3.881   1.799 -0.0868  0.2543 -0.0736
14579TIP3    H165152   4.637   3.929   1.816  1.3014  2.4009  0.9641
14579TIP3    H265153   4.694   3.789   1.812 -2.7367  0.6113 -1.5957
14580TIP3   OH265154   6.099   3.834   3.157  0.0991 -0.3038 -0.2324
14580TIP3    H165155   6.178   3.799   3.198 -1.7671 -1.7369  2.4406
14580TIP3    H265156   6.052   3.879   3.227 -1.4250  0.6162 -1.7476
14581TIP3   OH265157   6.445   3.575  11.861  0.1939  0.7086  0.2716
14581TIP3    H165158   6.476   3.489  11.889  1.1538  1.2660  0.9648
14581TIP3    H265159   6.350   3.568  11.865  0.2101 -0.7622 -1.0624
14582TIP3   OH265160   4.328   0.314  11.365 -0.2694  0.5558 -0.3964
14582TIP3    H165161   4.381   0.234  11.373  0.0663  0.9430  2.2300
14582TIP3    H265162   4.389   0.381  11.335 -0.2743  0.1156 -1.4259
14583TIP3   OH265163   0.243   6.646  16.173 -0.1084  0.3067  0.2364
14583TIP3    H165164   0.300   6.717  16.203  1.4698 -0.1301 -1.5564
14583TIP3    H265165   0.242   6.584  16.246  2.6199 -0.1622 -0.0343
14584TIP3   OH265166   6.232   1.332   5.735  0.3114 -0.3719  0.7050
14584TIP3    H165167   6.217   1.288   5.819  1.0752  1.7714  2.0629
14584TIP3    H265168   6.299   1.398   5.755  0.1989  0.4884 -1.5014
14585TIP3   OH265169   0.220   1.361  14.990 -0.5094  0.8338  0.3162
14585TIP3    H165170   0.161   1.332  14.920 -0.4006  0.5561  0.3373
14585TIP3    H265171   0.300   1.387  14.944  0.5135 -1.7173  0.4859
14586TIP3   OH265172   2.884   5.221   0.021 -0.2574 -0.8389  0.1177
14586TIP3    H165173   2.893   5.254  -0.068 -1.4766 -2.9919 -0.8758
14586TIP3    H265174   2.973   5.194   0.046 -0.1143 -1.4280 -0.9673
14587TIP3   OH265175   3.221   4.689   2.624 -0.3400 -0.8727  0.3813
14587TIP3    H165176   3.212   4.762   2.686 -0.4801 -1.7773  1.4477
14587TIP3    H265177   3.269   4.727   2.550 -1.9465  0.7714  0.1002
14588TIP3   OH265178   4.792   5.533  15.050  0.2320  0.3889 -0.3089
14588TIP3    H165179   4.801   5.458  15.108  0.7643  1.2939  0.8234
14588TIP3    H265180   4.707   5.521  15.008  0.2123 -0.7132  0.0301
14589TIP3   OH265181   3.891   2.603  14.243 -0.0491 -0.2526  0.4371
14589TIP3    H165182   3.893   2.695  14.219  0.7894 -0.1028  1.0483
14589TIP3    H265183   3.981   2.582  14.267  0.3967 -1.9482 -2.3033
14590TIP3   OH265184   4.272   5.535   2.071  0.1816  0.3560 -0.4387
14590TIP3    H165185   4.288   5.630   2.071  1.7589  0.1271  0.0690
14590TIP3    H265186   4.360   5.497   2.064 -0.4772 -1.0726 -1.1775
14591TIP3   OH265187   0.276   1.560   3.222  0.4285  0.3224 -1.0512
14591TIP3    H165188   0.262   1.654   3.224 -3.6275 -0.0732  0.6011
14591TIP3    H265189   0.286   1.535   3.314  0.8107 -0.8988 -1.4036
14592TIP3   OH265190   0.265   6.649  14.327  0.0341 -0.1896 -0.2314
14592TIP3    H165191   0.330   6.587  14.362  2.1506  0.9116 -1.9780
14592TIP3    H265192   0.216   6.597  14.264  1.3501 -0.3183 -1.1996
14593TIP3   OH265193   3.950   1.151  13.350 -0.0114  0.1917  0.1717
14593TIP3    H165194   3.965   1.076  13.292  0.2121  0.3303  0.0497
14593TIP3    H265195   3.909   1.113  13.428  0.5381 -0.1187  0.3098
14594TIP3   OH265196   4.946   3.062  11.478 -0.1377 -0.2049  0.1125
14594TIP3    H165197   5.018   3.121  11.501 -0.2116 -1.0374  2.8699
14594TIP3    H265198   4.879   3.080  11.544 -1.6191 -0.9138 -1.1406
14595TIP3   OH265199   5.682   1.602   1.555 -0.2791  0.1638 -0.0037
14595TIP3    H165200   5.676   1.681   1.502  0.6073 -0.9010 -1.7903
14595TIP3    H265201   5.775   1.579   1.554  0.0978  0.8828  3.3517
14596TIP3   OH265202   1.475   6.697  15.051 -0.0970 -0.1513 -0.1651
14596TIP3    H165203   1.527   6.777  15.061  1.0098 -0.8298 -0.3189
14596TIP3    H265204   1.424   6.691  15.133 -1.3334  1.4695 -0.7639
14597TIP3   OH265205   2.399   5.104   5.198  0.4510 -0.0580 -0.8869
14597TIP3    H165206   2.471   5.052   5.233 -1.1107 -1.0980  0.9662
14597TIP3    H265207   2.402   5.186   5.246  0.0221 -0.3714 -0.3085
14598TIP3   OH265208   4.731   0.779   1.159 -0.4764  0.1286  0.6063
14598TIP3    H165209   4.778   0.821   1.231 -0.7790  1.1012  0.2553
14598TIP3    H265210   4.674   0.848   1.125 -2.9418 -1.2477  1.6541
14599TIP3   OH265211   3.253   0.952   4.500 -0.2406  0.1438 -0.0749
14599TIP3    H165212   3.280   0.875   4.449  0.1328 -0.6990  1.3580
14599TIP3    H265213   3.250   1.023   4.435 -0.3069 -0.9939 -1.3785
14600TIP3   OH265214   3.373   4.726   4.171 -0.4614 -0.0491 -0.2850
14600TIP3    H165215   3.334   4.810   4.148 -2.1629 -0.3947  1.1712
14600TIP3    H265216   3.411   4.739   4.258  0.4867 -0.4368 -0.6206
14601TIP3   OH265217   5.079   5.408  16.545  0.0565  0.2046  0.2411
14601TIP3    H165218   5.016   5.353  16.592 -0.2039  0.0587 -0.2661
14601TIP3    H265219   5.164   5.385  16.583 -0.3182  1.3594  1.8398
14602TIP3   OH265220   4.255   0.785  11.403  0.2193  0.1651  0.1015
14602TIP3    H165221   4.185   0.840  11.367 -2.1361 -2.3402  0.5183
14602TIP3    H265222   4.211   0.703  11.427  3.5579 -2.1214 -0.8931
14603TIP3   OH265223   4.609   4.314   3.180 -0.6087  0.6145 -0.0947
14603TIP3    H165224   4.671   4.369   3.132 -0.3679  0.6006  0.1934
14603TIP3    H265225   4.657   4.232   3.196 -1.3515 -0.1207 -1.4964
14604TIP3   OH265226   3.906   3.911   3.781 -0.6542 -0.2063  0.2111
14604TIP3    H165227   3.827   3.859   3.763 -0.5871 -0.9366  1.8260
14604TIP3    H265228   3.973   3.872   3.725 -0.4922 -2.2441  1.7190
14605TIP3   OH265229   1.228   4.814  12.091 -0.3061  0.7227 -0.4086
14605TIP3    H165230   1.268   4.892  12.128 -0.9228  0.5197  0.7065
14605TIP3    H265231   1.210   4.757  12.166 -0.9716  0.0201 -1.0788
14606TIP3   OH265232   4.490   2.616   0.599 -0.1858 -0.3942 -0.2473
14606TIP3    H165233   4.419   2.674   0.572 -0.1096  1.3688  2.8764
14606TIP3    H265234   4.561   2.634   0.537 -1.0391  0.9653 -0.8673
14607TIP3   OH265235   3.776   0.291   0.575 -0.2561  0.0730 -0.2251
14607TIP3    H165236   3.804   0.359   0.636  1.6670 -1.8004  1.1129
14607TIP3    H265237   3.696   0.326   0.535 -0.9910  1.8624  2.5257
14608TIP3   OH265238   2.037   5.743   1.106  0.5921 -0.0682 -0.5746
14608TIP3    H165239   2.064   5.705   1.189 -0.7555 -0.8062 -0.4302
14608TIP3    H265240   1.947   5.772   1.122  0.9932  1.5786 -1.2191
14609TIP3   OH265241   5.247   6.364   0.660 -0.0104  0.1914 -0.6857
14609TIP3    H165242   5.321   6.304   0.671  0.0567  0.2542 -0.7947
14609TIP3    H265243   5.198   6.328   0.586  0.0924  0.3346 -0.8238
14610TIP3   OH265244   2.765   4.823  16.577 -0.2207  0.7839  0.2637
14610TIP3    H165245   2.741   4.737  16.613  1.5199  0.3548  0.5069
14610TIP3    H265246   2.713   4.885  16.628 -0.9633 -0.0849  0.5946
14611TIP3   OH265247   1.818   0.714   2.324 -0.0710  0.2839 -0.4176
14611TIP3    H165248   1.777   0.740   2.242  0.8995  0.5267 -0.8435
14611TIP3    H265249   1.764   0.756   2.392  1.4656  3.6525 -1.0740
14612TIP3   OH265250   0.208   0.428  12.074  0.1898  0.1062  0.2058
14612TIP3    H165251   0.195   0.346  12.026  0.5380  1.2158 -1.8863
14612TIP3    H265252   0.288   0.465  12.038  0.9039  0.6427  2.2294
14613TIP3   OH265253   0.902   5.638   0.271 -0.3455  0.0416  0.4554
14613TIP3    H165254   0.960   5.577   0.224 -0.0203 -0.3748  1.3650
14613TIP3    H265255   0.936   5.725   0.249  0.4778 -0.1882  0.7658
14614TIP3   OH265256   3.811   2.529   5.672  0.7193 -0.0381 -0.3056
14614TIP3    H165257   3.740   2.559   5.616 -0.0334 -2.3944 -0.7476
14614TIP3    H265258   3.777   2.538   5.761  0.6217  0.6108 -0.4039
14615TIP3   OH265259   5.641   6.171  14.963 -0.2014 -0.3277 -0.0543
14615TIP3    H165260   5.582   6.185  15.038  0.9924  1.1348  0.6635
14615TIP3    H265261   5.619   6.243  14.903  2.5606  1.9154  1.4035
14616TIP3   OH265262   2.557   2.352   1.441 -0.2013 -0.2353  0.3112
14616TIP3    H165263   2.574   2.283   1.504 -2.3237 -0.7323  0.3964
14616TIP3    H265264   2.543   2.431   1.494  1.6599  0.1899  0.2383
14617TIP3   OH265265   6.510   1.484  16.667 -0.1383 -0.0548  0.5631
14617TIP3    H165266   6.511   1.517  16.577 -1.5182 -0.0919  0.5139
14617TIP3    H265267   6.596   1.507  16.701  0.6662 -0.6289 -0.9617
14618TIP3   OH265268   2.651   4.759   0.085 -0.3601 -0.0743  0.0325
14618TIP3    H165269   2.677   4.821   0.153  1.6690 -0.7019 -0.1160
14618TIP3    H265270   2.690   4.793   0.005 -1.9995  0.1852 -0.6984
14619TIP3   OH265271   1.781   1.118   1.602  0.4537 -0.3416  0.5825
14619TIP3    H165272   1.806   1.029   1.627  3.2389  0.4111  0.8402
14619TIP3    H265273   1.730   1.150   1.676 -0.5755 -1.6731  0.4907
14620TIP3   OH265274   5.176   2.141  15.111  0.0949 -0.6973 -0.0599
14620TIP3    H165275   5.097   2.090  15.131  1.0330 -2.2041  0.0095
14620TIP3    H265276   5.224   2.087  15.048  1.8776 -0.6628  1.1769
14621TIP3   OH265277   4.538   4.094   4.560  0.0340 -0.0667  0.8040
14621TIP3    H165278   4.510   4.176   4.518 -0.9404 -0.0885  1.3748
14621TIP3    H265279   4.525   4.028   4.492  0.0973  0.1432  0.5833
14622TIP3   OH265280   1.257   1.394  10.620  0.0497  0.5229 -0.3101
14622TIP3    H165281   1.195   1.467  10.620  1.0797  1.4221  0.3386
14622TIP3    H265282   1.206   1.320  10.655  0.0190  1.9291  3.0445
14623TIP3   OH265283   4.184   0.334   5.628 -0.2940  0.4991 -0.7421
14623TIP3    H165284   4.212   0.403   5.688  0.2544  1.5027 -2.0670
14623TIP3    H265285   4.244   0.261   5.645 -0.2567  0.7027  0.0260
14624TIP3   OH265286   0.852   6.086  13.295 -0.2414 -0.5697 -0.0296
14624TIP3    H165287   0.792   6.079  13.221 -0.1223 -0.1539 -0.1696
14624TIP3    H265288   0.935   6.112  13.256 -0.4408  0.7200  0.3394
14625TIP3   OH265289   3.294   3.262  14.092 -0.0789  0.4270  0.7025
14625TIP3    H165290   3.217   3.206  14.101 -1.2612  1.8441 -0.3096
14625TIP3    H265291   3.367   3.200  14.081 -1.1059 -0.9283  1.2105
14626TIP3   OH265292   3.087   5.285   3.303 -0.2486 -0.0237  0.1673
14626TIP3    H165293   3.008   5.234   3.283 -0.9423  1.4909 -1.1822
14626TIP3    H265294   3.080   5.305   3.396 -0.9046 -0.8069  0.2950
14627TIP3   OH265295   0.355   3.990  11.431 -0.1260 -0.0815  0.5178
14627TIP3    H165296   0.409   3.986  11.511 -0.3219  0.6771  0.6907
14627TIP3    H265297   0.398   4.055  11.377  0.1834 -0.8171 -0.1428
14628TIP3   OH265298   2.106   0.666   0.939 -0.4208 -0.0985  0.6181
14628TIP3    H165299   2.158   0.739   0.972  1.6248 -0.6643 -1.1431
14628TIP3    H265300   2.058   0.703   0.864 -0.9869 -0.0742  0.9894
14629TIP3   OH265301   4.575   1.642   3.703 -0.2412  0.3239  0.0690
14629TIP3    H165302   4.609   1.677   3.785 -0.3621  2.5412 -0.7650
14629TIP3    H265303   4.486   1.614   3.724 -0.1324  0.5017  0.7827
14630TIP3   OH265304   5.771   6.121  13.976 -1.1040 -0.0376  0.0950
14630TIP3    H165305   5.710   6.122  14.050 -2.4684  0.3428 -1.0014
14630TIP3    H265306   5.780   6.029  13.954 -3.0664  0.0083 -1.1169
14631TIP3   OH265307   0.713   1.541  13.907  0.3121 -0.1177 -0.2999
14631TIP3    H165308   0.692   1.570  13.996 -0.1380  1.3803 -0.8575
14631TIP3    H265309   0.671   1.606  13.851  0.2377 -1.2729 -1.6264
14632TIP3   OH265310   2.242   5.591  12.368 -0.1718 -0.2298 -0.3720
14632TIP3    H165311   2.239   5.663  12.306  0.0294 -0.4539 -0.6477
14632TIP3    H265312   2.331   5.556  12.360  0.4630  0.8733  1.3584
14633TIP3   OH265313   2.076   4.872  13.981 -0.1083 -0.5455  0.2958
14633TIP3    H165314   2.158   4.824  13.968 -0.0336 -0.2381 -0.3887
14633TIP3    H265315   2.048   4.896  13.893  0.3152  1.4203  0.6385
14634TIP3   OH265316   5.830   4.781   5.126  0.0606  0.0088  1.1334
14634TIP3    H165317   5.738   4.764   5.110 -0.4986  2.7157  1.0157
14634TIP3    H265318   5.849   4.736   5.208 -0.9918 -1.6065  0.5359
14635TIP3   OH265319   0.208   3.022   6.392  0.3850 -0.3035  0.0136
14635TIP3    H165320   0.288   3.050   6.436 -0.4485  0.7416  0.9291
14635TIP3    H265321   0.199   2.930   6.416  0.6558 -0.1005  0.9685
14636TIP3   OH265322   5.933   2.756   5.303  0.0008 -1.2511 -0.1745
14636TIP3    H165323   5.986   2.691   5.256 -1.0397 -2.2837  0.0542
14636TIP3    H265324   5.844   2.742   5.272 -0.2342  0.1782 -0.2279
14637TIP3   OH265325   5.555   6.672   2.928  0.6104  0.4684  0.1504
14637TIP3    H165326   5.556   6.727   2.849  1.6287  0.2765  0.0217
14637TIP3    H265327   5.642   6.632   2.931  0.3993  0.0539  1.0842
14638TIP3   OH265328   6.488   1.695   2.250 -0.0684  0.3471  0.2341
14638TIP3    H165329   6.479   1.754   2.324  0.6466 -1.6236  1.9828
14638TIP3    H265330   6.408   1.709   2.198 -1.4244  0.5881  2.2764
14639TIP3   OH265331   2.382   3.451  10.692  0.5292  0.8666 -0.1933
14639TIP3    H165332   2.452   3.506  10.726 -0.1336 -0.1436  3.2056
14639TIP3    H265333   2.414   3.361  10.705 -0.2106  0.3751 -1.4951
14640TIP3   OH265334   2.710   3.744  15.934 -0.6669  0.5687 -0.5585
14640TIP3    H165335   2.660   3.694  15.870 -0.2709  1.1500 -1.3413
14640TIP3    H265336   2.748   3.817  15.884 -1.5066  1.8584  0.5991
14641TIP3   OH265337   6.124   3.514  10.507  0.0937  0.1763  0.0179
14641TIP3    H165338   6.070   3.436  10.519  0.3566  0.1037  0.7670
14641TIP3    H265339   6.205   3.495  10.554  0.3948  0.6616 -0.2972
14642TIP3   OH265340   5.246   2.191   1.763 -0.1802 -0.0575  0.5222
14642TIP3    H165341   5.283   2.172   1.676 -0.0824 -0.4945  0.6560
14642TIP3    H265342   5.218   2.105   1.796  2.0067 -0.2985  1.9637
14643TIP3   OH265343   3.390   0.681  11.857  0.2303 -0.3099 -0.0690
14643TIP3    H165344   3.318   0.723  11.905  0.3355 -0.9210  0.6379
14643TIP3    H265345   3.348   0.611  11.807  0.4986 -1.7114  1.5718
14644TIP3   OH265346   2.359   4.428   5.853 -0.0656  0.0476 -0.1489
14644TIP3    H165347   2.348   4.437   5.759  0.9945 -1.9576 -0.5346
14644TIP3    H265348   2.309   4.349   5.875  0.1979  0.1494  0.8571
14645TIP3   OH265349   1.470   3.626   1.575 -0.5301  0.3387 -0.7091
14645TIP3    H165350   1.450   3.638   1.482 -0.7455 -0.4857 -0.7721
14645TIP3    H265351   1.468   3.715   1.611 -0.5878  0.6522 -1.4587
14646TIP3   OH265352   4.984   6.511  11.373 -0.2124  0.0919  0.0440
14646TIP3    H165353   4.946   6.527  11.459 -0.9847  1.3163 -0.5154
14646TIP3    H265354   5.017   6.596  11.345 -0.1191 -0.2614 -0.9493
14647TIP3   OH265355   0.874   2.725  10.232 -0.3653  0.6466  0.5688
14647TIP3    H165356   0.902   2.638  10.262 -1.6666 -0.0436 -0.0889
14647TIP3    H265357   0.783   2.732  10.262 -1.7712 -0.1081 -2.9815
14648TIP3   OH265358   5.211   0.289   2.744 -0.3379  0.4533  0.1002
14648TIP3    H165359   5.142   0.281   2.678 -0.1624 -1.6342  0.0950
14648TIP3    H265360   5.288   0.250   2.703 -0.3685 -1.4145  1.6482
14649TIP3   OH265361   0.747   2.465  13.371 -0.0873  0.2890  0.3112
14649TIP3    H165362   0.750   2.396  13.305  3.2782 -0.1917  0.7907
14649TIP3    H265363   0.698   2.536  13.329 -1.5445 -1.4717 -1.1013
14650TIP3   OH265364   4.981   1.838  11.987 -0.5269  0.0661  0.3387
14650TIP3    H165365   4.989   1.932  12.003 -1.0191  0.0366  0.7772
14650TIP3    H265366   4.983   1.798  12.074 -0.3574 -0.3267  0.1579
14651TIP3   OH265367   2.202   2.518   1.324  0.1987  0.2153  0.4674
14651TIP3    H165368   2.120   2.481   1.358  0.5599  0.1854  1.3145
14651TIP3    H265369   2.255   2.442   1.301 -0.4500  0.2316 -1.1927
14652TIP3   OH265370   3.361   0.253   5.431 -0.2494  0.3212  0.5618
14652TIP3    H165371   3.367   0.244   5.336  1.2443 -1.9913  0.7957
14652TIP3    H265372   3.444   0.295   5.455  0.7759 -1.8186  1.0263
14653TIP3   OH265373   5.712   1.118  10.903  0.2568 -0.3777  0.5218
14653TIP3    H165374   5.687   1.118  10.995 -0.3097 -1.4206  0.3768
14653TIP3    H265375   5.690   1.030  10.872  1.7570 -0.5116 -0.2525
14654TIP3   OH265376   4.368   0.506   2.329 -0.1159  0.1592  0.1196
14654TIP3    H165377   4.392   0.526   2.239  2.5422 -1.0133  0.4605
14654TIP3    H265378   4.449   0.472   2.368 -0.5058  2.7248  3.5927
14655TIP3   OH265379   6.812   4.915   0.080  0.1303  0.2306 -0.2358
14655TIP3    H165380   6.868   4.927   0.003 -0.0400 -0.8088 -0.5322
14655TIP3    H265381   6.766   4.833   0.063  1.1898 -0.8203  1.6517
14656TIP3   OH265382   5.200   1.152  10.465 -0.1401  0.4345  0.2301
14656TIP3    H165383   5.144   1.167  10.389 -1.7919  1.3496  1.5692
14656TIP3    H265384   5.273   1.100  10.431 -2.3922 -1.9269 -1.3434
14657TIP3   OH265385   0.970   0.355   0.354  0.2104 -0.3074  0.2072
14657TIP3    H165386   0.934   0.351   0.443  2.0864  0.5734  1.0723
14657TIP3    H265387   0.919   0.292   0.304 -0.1506 -1.6834  2.2052
14658TIP3   OH265388   0.802   5.463  12.353 -0.1409  0.7734  0.4872
14658TIP3    H165389   0.886   5.481  12.313 -0.6706  0.4090 -0.8287
14658TIP3    H265390   0.789   5.369  12.342 -0.2453  0.6364  1.6474
14659TIP3   OH265391   5.878   4.995   0.105  0.5227  0.0006  0.0625
14659TIP3    H165392   5.870   4.937   0.029 -1.9770  1.2093 -0.7150
14659TIP3    H265393   5.787   5.007   0.135  1.3468  0.3166  2.6925
14660TIP3   OH265394   4.538   1.643   2.061  0.0197 -0.2144 -0.0142
14660TIP3    H165395   4.595   1.695   2.005  0.6397  0.7492  1.4586
14660TIP3    H265396   4.471   1.609   2.002  0.3611  1.1703 -1.2459
14661TIP3   OH265397   0.490   5.948  14.873  0.2963 -0.0848 -0.0431
14661TIP3    H165398   0.402   5.925  14.841  0.1829  1.1853 -0.6960
14661TIP3    H265399   0.549   5.899  14.815  0.0923  2.2061 -2.3596
14662TIP3   OH265400   2.162   1.529   0.442 -0.0683  0.0716 -0.1379
14662TIP3    H165401   2.179   1.491   0.528 -2.2963 -1.9366 -0.4519
14662TIP3    H265402   2.226   1.488   0.385 -0.2621 -0.6463  0.1429
14663TIP3   OH265403   0.396   4.258  16.355 -0.4176 -0.1099 -0.2126
14663TIP3    H165404   0.476   4.261  16.303 -0.8645 -1.5264 -1.0334
14663TIP3    H265405   0.341   4.327  16.319  0.3673  0.8039  0.2880
14664TIP3   OH265406   1.740   5.660   2.891  0.2720 -0.0317  0.4591
14664TIP3    H165407   1.696   5.739   2.922  0.1864  0.1682 -0.1538
14664TIP3    H265408   1.731   5.598   2.963 -0.3090  0.2740  0.6568
14665TIP3   OH265409   5.562   1.509   4.905 -0.7383 -0.4613  0.4598
14665TIP3    H165410   5.544   1.600   4.926  0.4496  0.0911 -0.8305
14665TIP3    H265411   5.596   1.472   4.987 -0.8253  0.3614  0.8721
14666TIP3   OH265412   2.772   3.536   3.345  0.1824 -0.1348 -0.2605
14666TIP3    H165413   2.775   3.630   3.329 -1.4287  0.0345  0.2134
14666TIP3    H265414   2.788   3.528   3.439 -1.0144 -0.1931 -0.0429
14667TIP3   OH265415   1.629   0.183   0.492  0.4088  0.0807  0.6325
14667TIP3    H165416   1.644   0.153   0.582  1.4043  3.0217  1.5700
14667TIP3    H265417   1.651   0.277   0.494  0.1295  0.3297 -2.6132
14668TIP3   OH265418   4.157   0.034   0.173  0.1665  0.0077  0.1106
14668TIP3    H165419   4.185   0.037   0.265 -1.5569 -2.6145  0.8221
14668TIP3    H265420   4.063   0.048   0.175  0.1132  0.0456 -1.2932
14669TIP3   OH265421   5.377   4.890  12.104 -0.5417  0.1600 -0.4229
14669TIP3    H165422   5.320   4.840  12.162 -0.7005  0.7023 -0.1067
14669TIP3    H265423   5.363   4.852  12.017 -0.7575 -0.2545 -0.2067
14670TIP3   OH265424   0.905   1.235  10.495 -0.7739  0.0391  0.2699
14670TIP3    H165425   0.884   1.312  10.443  0.8860  0.9562  0.8928
14670TIP3    H265426   0.870   1.255  10.582 -2.6078 -1.0454 -0.1546
14671TIP3   OH265427   4.918   2.940   1.194 -0.1100  0.2855 -0.0381
14671TIP3    H165428   5.002   2.946   1.240  0.9939 -0.5167 -1.8673
14671TIP3    H265429   4.906   3.027   1.155 -0.4987  0.6122  0.7722
14672TIP3   OH265430   1.183   2.612  13.812  0.6424  0.3135 -0.3272
14672TIP3    H165431   1.208   2.520  13.814  1.6801  0.5725 -0.5256
14672TIP3    H265432   1.114   2.617  13.747  0.9967 -0.2323 -0.7541
14673TIP3   OH265433   4.575   2.065  14.446 -0.1700 -0.8925  0.1894
14673TIP3    H165434   4.600   2.156  14.427  0.0643 -1.3621 -1.9427
14673TIP3    H265435   4.586   2.057  14.541 -1.0489  1.5476  0.5701
14674TIP3   OH265436   0.111   0.830  15.307  0.0847 -0.1906 -0.2582
14674TIP3    H165437   0.121   0.910  15.358  2.3273  0.4291 -1.5582
14674TIP3    H265438   0.017   0.824  15.289 -0.5670  0.4213  2.4744
14675TIP3   OH265439   2.092   1.604   1.323 -0.3035 -0.2808 -0.2699
14675TIP3    H165440   2.142   1.684   1.340 -2.8595  0.7901  3.2171
14675TIP3    H265441   2.146   1.534   1.359  0.6699  0.1949 -0.7461
14676TIP3   OH265442   6.358   2.070   2.252 -0.1113  0.0425  0.2018
14676TIP3    H165443   6.335   2.033   2.167  0.0710  2.6994 -1.1074
14676TIP3    H265444   6.381   1.994   2.306 -0.0572 -1.7232 -2.1521
14677TIP3   OH265445   4.863   3.088  13.901 -0.1574  0.0688  0.0673
14677TIP3    H165446   4.950   3.109  13.936 -0.7028  2.7006  0.0779
14677TIP3    H265447   4.845   3.159  13.839 -2.6721  0.1517  0.7787
14678TIP3   OH265448   6.172   1.566   6.051  0.3847  0.4364 -0.1824
14678TIP3    H165449   6.142   1.577   6.141  0.9207 -1.4964  0.2617
14678TIP3    H265450   6.268   1.569   6.057  0.4213  1.7425 -0.9228
14679TIP3   OH265451   3.650   5.792  16.466 -0.2929  0.0943 -0.0145
14679TIP3    H165452   3.664   5.798  16.560 -2.2741  0.6428  0.2983
14679TIP3    H265453   3.736   5.770  16.430  0.3180 -1.0345  1.9881
14680TIP3   OH265454   0.495   1.898   5.634  0.2151 -0.3351  0.6042
14680TIP3    H165455   0.574   1.857   5.601  0.7942  0.1937  1.3073
14680TIP3    H265456   0.525   1.979   5.676 -0.7988  0.3758  0.0096
14681TIP3   OH265457   2.303   5.228   1.828  0.4452 -0.1055  0.1264
14681TIP3    H165458   2.307   5.133   1.841  0.0969 -0.1167  0.1695
14681TIP3    H265459   2.394   5.256   1.832  0.4592 -0.2637  1.4974
14682TIP3   OH265460   6.263   3.589   2.094  0.3023 -0.2054 -0.1093
14682TIP3    H165461   6.351   3.556   2.076  0.2202 -0.7969  0.5384
14682TIP3    H265462   6.229   3.615   2.008  0.6624 -1.1007 -0.5400
14683TIP3   OH265463   1.362   4.253  13.106 -0.0075 -0.1200 -0.2484
14683TIP3    H165464   1.426   4.279  13.173  1.0343 -2.0209 -0.4378
14683TIP3    H265465   1.380   4.313  13.033 -0.6312  1.4568  0.8422
14684TIP3   OH265466   5.196   2.094   2.612 -0.0210  0.1123  0.2710
14684TIP3    H165467   5.192   2.182   2.649  0.9029 -0.1604  1.0482
14684TIP3    H265468   5.272   2.096   2.555 -0.7875  0.1973 -0.7845
14685TIP3   OH265469   0.576   2.137  13.422  0.0544 -0.0344  0.3765
14685TIP3    H165470   0.530   2.054  13.410  1.3197 -0.9701  1.6762
14685TIP3    H265471   0.615   2.155  13.336  0.3267 -1.1287  0.2572
14686TIP3   OH265472   6.205   1.884  16.921 -0.2442 -0.0231  0.2302
14686TIP3    H165473   6.286   1.893  16.870  0.4349 -1.5333  0.9631
14686TIP3    H265474   6.144   1.840  16.862  0.3266 -1.1780  0.4703
14687TIP3   OH265475   0.775   5.683  14.020  0.2387 -0.1084  0.0904
14687TIP3    H165476   0.681   5.688  14.003  0.3578  0.6444 -0.3705
14687TIP3    H265477   0.816   5.686  13.933  0.6580 -1.4851  0.2199
14688TIP3   OH265478   5.676   5.048  12.303  0.5643  0.3186 -0.1290
14688TIP3    H165479   5.677   5.143  12.311  2.0253  0.3060  0.1674
14688TIP3    H265480   5.763   5.021  12.333  0.0013 -1.1486  0.2461
14689TIP3   OH265481   0.298   0.049  15.245 -0.1058  0.0939 -0.4822
14689TIP3    H165482   0.312   0.112  15.316 -0.9098  2.6784 -2.4590
14689TIP3    H265483   0.354  -0.025  15.267 -0.3846  0.7133  2.8629
14690TIP3   OH265484   4.567   3.449  15.860  0.5152  0.3480  0.3642
14690TIP3    H165485   4.600   3.368  15.822 -0.9922  1.5890 -4.1724
14690TIP3    H265486   4.646   3.500  15.880  1.5000 -0.0461 -2.1884
14691TIP3   OH265487   6.585   0.334  12.008  0.2848  0.2757  0.0456
14691TIP3    H165488   6.511   0.279  12.036 -0.6977  1.5031 -0.0260
14691TIP3    H265489   6.657   0.310  12.066 -0.2768 -0.7090  0.3484
14692TIP3   OH265490   4.182   4.033   5.969 -0.4792 -0.0002 -0.2082
14692TIP3    H165491   4.254   4.045   6.030 -0.2326 -1.6066 -0.1345
14692TIP3    H265492   4.206   4.085   5.893  0.0437  0.6523  0.3946
14693TIP3   OH265493   6.306   5.877  12.197 -0.8216 -0.2863 -0.7478
14693TIP3    H165494   6.324   5.800  12.142 -1.8104  0.1221 -1.6721
14693TIP3    H265495   6.291   5.948  12.135  2.1181  1.2213  0.0610
14694TIP3   OH265496   4.161   1.800   5.802  0.2218 -0.2971  0.1046
14694TIP3    H165497   4.184   1.764   5.887 -1.1654  0.8860  1.0327
14694TIP3    H265498   4.212   1.880   5.795  0.4571 -0.4771 -0.2531
14695TIP3   OH265499   5.347   3.767  16.631 -0.2797  0.6054  0.1353
14695TIP3    H165500   5.416   3.701  16.623  0.7778  1.5359  1.1600
14695TIP3    H265501   5.326   3.792  16.541 -2.4113 -2.7531 -0.4942
14696TIP3   OH265502   4.597   3.418  13.691 -0.4849  0.3950 -0.4652
14696TIP3    H165503   4.614   3.364  13.767  1.2320 -2.4136 -2.6447
14696TIP3    H265504   4.658   3.491  13.698 -1.8615  1.4126  1.8353
14697TIP3   OH265505   1.947   3.584   3.800  0.2331 -1.1798 -0.5302
14697TIP3    H165506   1.860   3.558   3.829 -0.0343 -1.0008 -1.1642
14697TIP3    H265507   1.982   3.506   3.757  1.0479 -1.7962  1.1550
14698TIP3   OH265508   1.642   4.032  13.968  0.2140  0.7323  0.2461
14698TIP3    H165509   1.629   4.061  14.059  1.1453 -1.8516  1.3025
14698TIP3    H265510   1.735   4.014  13.962 -0.2624 -1.9923 -0.2328
14699TIP3   OH265511   1.095   0.698   5.666  0.6258 -0.0146  0.0873
14699TIP3    H165512   1.099   0.757   5.742  4.5014  2.0524 -1.4499
14699TIP3    H265513   1.124   0.613   5.700  0.6385  0.4329  1.2406
14700TIP3   OH265514   0.978   5.256   2.685  0.5639 -0.6365  0.5209
14700TIP3    H165515   1.019   5.331   2.729 -1.4538 -0.2632  1.8778
14700TIP3    H265516   1.043   5.186   2.691  3.0151  1.2292 -1.8285
14701TIP3   OH265517   0.250   2.845  12.031  0.3750  0.4125  0.4426
14701TIP3    H165518   0.320   2.813  12.089 -0.8078  0.5223  1.9827
14701TIP3    H265519   0.289   2.841  11.943  1.5225 -1.7402  0.9714
14702TIP3   OH265520   0.707   6.244   4.418  0.2038 -0.3115 -0.4077
14702TIP3    H165521   0.790   6.237   4.465  0.8370  0.4023 -1.3731
14702TIP3    H265522   0.709   6.331   4.379 -0.0662 -1.0436 -2.1550
14703TIP3   OH265523   0.990   3.711   4.089  0.1675 -0.3451 -0.0370
14703TIP3    H165524   1.046   3.650   4.041 -0.0534  0.1549 -0.9553
14703TIP3    H265525   0.989   3.677   4.179  0.7119 -1.2166 -0.3458
14704TIP3   OH265526   4.055   0.742  15.601  0.0535  0.2733 -0.2485
14704TIP3    H165527   4.032   0.696  15.681 -1.3915  2.8632  0.9364
14704TIP3    H265528   4.040   0.678  15.531  2.2403 -2.3663  1.4969
14705TIP3   OH265529   3.949   1.262  12.558 -0.4329 -0.3359  0.1259
14705TIP3    H165530   3.908   1.314  12.627 -0.2910 -1.8839  1.4425
14705TIP3    H265531   4.033   1.236  12.595  0.3098  0.0412 -1.2420
14706TIP3   OH265532   0.811   0.561   1.688  0.1476  0.5915 -0.3108
14706TIP3    H165533   0.836   0.545   1.779 -0.7129  5.0747  0.9599
14706TIP3    H265534   0.734   0.506   1.674 -0.0525  0.2177  1.8850
14707TIP3   OH265535   2.983   2.370  16.202 -0.3871 -0.4490 -0.1697
14707TIP3    H165536   2.910   2.419  16.240  0.9141  0.9089  0.6691
14707TIP3    H265537   3.057   2.430  16.206  1.3617 -2.5426  1.1015
14708TIP3   OH265538   1.067   4.891  12.334  0.8082  0.0338 -0.4618
14708TIP3    H165539   1.139   4.898  12.397  1.3382 -0.1260 -1.0314
14708TIP3    H265540   1.064   4.978  12.293 -0.7285  0.7398  1.0105
14709TIP3   OH265541   1.454   0.877   3.884 -0.1614 -0.3055  0.3107
14709TIP3    H165542   1.485   0.802   3.934 -1.4935 -1.0698  0.0351
14709TIP3    H265543   1.385   0.916   3.938  1.0013  1.1809  0.7846
14710TIP3   OH265544   2.766   6.261   1.656 -0.0446  0.0254  0.2870
14710TIP3    H165545   2.794   6.174   1.627 -0.8752 -0.4100  0.7443
14710TIP3    H265546   2.680   6.272   1.615  0.1141  0.6928  0.1256
14711TIP3   OH265547   1.105   2.238  16.469  0.8910 -0.1110  0.0365
14711TIP3    H165548   1.012   2.222  16.455  0.8665  1.2210 -1.7506
14711TIP3    H265549   1.145   2.230  16.382  2.3747 -0.2083  0.6872
14712TIP3   OH265550   1.562   2.230  16.108  0.3894  0.1329  0.1534
14712TIP3    H165551   1.575   2.236  16.013  1.5838 -0.7384  0.2416
14712TIP3    H265552   1.644   2.193  16.141  0.2706  1.1243  1.6171
14713TIP3   OH265553   3.740   4.703  14.368 -0.6683 -0.0439 -0.0175
14713TIP3    H165554   3.737   4.748  14.284 -0.9202 -1.0700 -0.5840
14713TIP3    H265555   3.654   4.720  14.408 -0.2315  1.1548  0.4270
14714TIP3   OH265556   1.618   1.072   0.766  0.1407 -0.0010 -0.1502
14714TIP3    H165557   1.597   0.978   0.761  1.0001 -0.2172  0.1665
14714TIP3    H265558   1.698   1.081   0.714  0.0537  0.5645 -0.1889
14715TIP3   OH265559   1.743   5.232   3.386 -0.0752 -0.1386 -0.4918
14715TIP3    H165560   1.779   5.320   3.381 -0.9388  0.1838 -1.9654
14715TIP3    H265561   1.662   5.237   3.334 -0.6819 -1.5413  0.2612
14716TIP3   OH265562   6.660   4.211   0.087 -0.0943 -0.3413 -0.7171
14716TIP3    H165563   6.640   4.296   0.126 -0.8352 -0.8787  0.1040
14716TIP3    H265564   6.744   4.186   0.126  0.0025 -0.1041 -0.7710
14717TIP3   OH265565   2.436   1.291   1.929  0.2840  0.1551 -0.1458
14717TIP3    H165566   2.513   1.235   1.941  0.1917  0.2028  0.8038
14717TIP3    H265567   2.391   1.288   2.014  0.0666  1.3499 -0.1897
14718TIP3   OH265568   1.798   1.743  13.687  0.1525 -0.1720 -0.4244
14718TIP3    H165569   1.744   1.664  13.686 -0.9839  0.5852 -0.8068
14718TIP3    H265570   1.883   1.713  13.719 -0.1268 -1.6311 -0.9540
14719TIP3   OH265571   6.017   1.148   4.379  0.9002  0.4239  0.1289
14719TIP3    H165572   6.034   1.234   4.418 -0.2545  0.2288  1.1055
14719TIP3    H265573   5.939   1.116   4.424 -0.2380 -0.0118 -2.0396
14720TIP3   OH265574   2.345   5.829  14.214  0.0384  0.2213 -0.1305
14720TIP3    H165575   2.350   5.893  14.143 -1.8001  1.5680  0.8506
14720TIP3    H265576   2.267   5.855  14.264 -1.4514 -3.4067 -0.2690
14721TIP3   OH265577   5.313   5.907   3.124  0.2490 -0.3321 -0.1695
14721TIP3    H165578   5.297   5.857   3.205  0.9662 -1.1297 -0.5038
14721TIP3    H265579   5.396   5.952   3.140  1.0113 -1.4449 -0.8962
14722TIP3   OH265580   3.453   1.756   4.748 -0.1434 -0.0773 -0.1746
14722TIP3    H165581   3.412   1.787   4.829  0.5387  2.3535 -0.6776
14722TIP3    H265582   3.412   1.808   4.679  1.4020  0.0656 -1.0371
14723TIP3   OH265583   0.195   1.309  12.777 -0.3824  0.3789 -0.1303
14723TIP3    H165584   0.241   1.387  12.808  1.1275 -0.2026 -0.7665
14723TIP3    H265585   0.140   1.340  12.705 -0.7519  1.0497  0.4354
14724TIP3   OH265586   0.891   2.245   3.339  0.4010 -0.4129  0.3480
14724TIP3    H165587   0.896   2.297   3.259  2.2089 -1.0704 -0.0256
14724TIP3    H265588   0.843   2.166   3.314 -1.3470  0.5254  0.6272
14725TIP3   OH265589   3.478   3.054  11.915 -0.4060 -0.4052 -0.3498
14725TIP3    H165590   3.513   3.042  11.826 -0.6631  0.0928 -0.5261
14725TIP3    H265591   3.512   2.980  11.964 -1.9157 -1.8374 -1.3620
14726TIP3   OH265592   4.283   3.708   6.403 -0.2958 -0.5243  0.4117
14726TIP3    H165593   4.247   3.668   6.482 -0.2898  3.6944  2.8621
14726TIP3    H265594   4.212   3.760   6.367  0.7961  0.6933 -0.0747
14727TIP3   OH265595   3.880   4.267   0.279 -0.0034  0.5972  0.2014
14727TIP3    H165596   3.921   4.252   0.194 -3.3557 -1.6060 -1.2483
14727TIP3    H265597   3.908   4.193   0.333 -1.4647 -0.6327 -0.6297
14728TIP3   OH265598   6.173   6.532  11.631 -0.3311  0.6358 -0.4657
14728TIP3    H165599   6.111   6.557  11.562  0.2663  1.8576 -0.5826
14728TIP3    H265600   6.246   6.592  11.620  1.8563 -2.0469 -1.6461
14729TIP3   OH265601   2.186   6.622   0.475 -0.3074  0.1849  0.2630
14729TIP3    H165602   2.260   6.580   0.519  0.3552  0.6312 -0.3803
14729TIP3    H265603   2.162   6.560   0.406  0.9223  0.9703 -0.9356
14730TIP3   OH265604   0.300   2.636  13.448 -0.1161 -0.4371  0.0668
14730TIP3    H165605   0.274   2.550  13.415 -0.9680 -0.1838  0.0545
14730TIP3    H265606   0.312   2.624  13.542 -1.4112 -0.3040  0.2564
14731TIP3   OH265607   0.378   6.775  12.173  0.2254  0.3619 -0.3456
14731TIP3    H165608   0.370   6.689  12.213  0.3519  0.2264 -0.6117
14731TIP3    H265609   0.471   6.796  12.177  0.5322 -0.4383 -2.1834
14732TIP3   OH265610   1.183   3.243  15.050  0.8225  0.1461  0.4368
14732TIP3    H165611   1.126   3.194  15.109  1.1591  1.0319  1.5108
14732TIP3    H265612   1.263   3.191  15.045  0.4171 -0.4503 -0.0729
14733TIP3   OH265613   5.589   5.084  16.850 -0.1675 -0.2192 -0.3697
14733TIP3    H165614   5.532   5.007  16.853 -0.8120  0.1072 -2.4993
14733TIP3    H265615   5.588   5.111  16.758  1.2936  1.4136  0.0392
14734TIP3   OH265616   1.339   4.648  14.933 -0.0460  0.6333 -0.3722
14734TIP3    H165617   1.269   4.582  14.934 -0.3789  0.9901  0.2917
14734TIP3    H265618   1.412   4.605  14.978  0.1120  0.3195 -0.9210
14735TIP3   OH265619   1.011   5.125   0.715 -0.3409 -0.1148  0.2059
14735TIP3    H165620   0.983   5.068   0.787 -0.0212 -0.7908 -0.1849
14735TIP3    H265621   0.930   5.155   0.674 -0.5247  0.4628  0.9903
14736TIP3   OH265622   6.646   6.065   2.800  0.4822 -0.2650  0.0442
14736TIP3    H165623   6.583   6.110   2.743 -1.8982 -3.1306  0.1123
14736TIP3    H265624   6.727   6.063   2.750 -0.5997  0.1787 -1.8318
14737TIP3   OH265625   2.622   2.461   3.066 -0.3406 -0.0277 -0.0083
14737TIP3    H165626   2.715   2.475   3.049 -0.8714  1.4361 -2.1121
14737TIP3    H265627   2.584   2.442   2.980 -2.0138 -0.3902  0.7717
14738TIP3   OH265628   3.353   3.862   5.762 -0.1193 -0.1086  0.2696
14738TIP3    H165629   3.414   3.805   5.809  0.6063  0.3994 -0.0302
14738TIP3    H265630   3.271   3.812   5.759  0.3811 -0.9607  0.3655
14739TIP3   OH265631   2.079   1.908  11.395 -0.3494  0.1128 -0.5029
14739TIP3    H165632   2.121   1.959  11.326 -1.8140  0.4434 -1.1767
14739TIP3    H265633   2.049   1.828  11.352  1.2942 -1.0575  0.3964
14740TIP3   OH265634   4.795   2.830   3.182  0.6342  0.0703 -0.1713
14740TIP3    H165635   4.712   2.785   3.166  0.3409  0.0566  1.2213
14740TIP3    H265636   4.862   2.762   3.172  0.4752  0.0379 -1.1120
14741TIP3   OH265637   6.502   3.277   0.994  0.0260 -0.3713 -0.3284
14741TIP3    H165638   6.493   3.210   0.927 -0.8916 -0.6900  0.0918
14741TIP3    H265639   6.466   3.356   0.954 -0.8842 -0.6532 -0.1027
14742TIP3   OH265640   0.626   4.279  15.169 -0.6804  0.0363 -0.2024
14742TIP3    H165641   0.666   4.221  15.104  0.2161  0.3743  0.0293
14742TIP3    H265642   0.609   4.360  15.122 -0.9869 -0.0627 -0.2662
14743TIP3   OH265643   0.694   0.203  10.693 -0.0852  0.4170 -0.1162
14743TIP3    H165644   0.724   0.290  10.666  1.6251  0.4215  1.6049
14743TIP3    H265645   0.774   0.151  10.701 -0.9007 -0.7695  0.7195
14744TIP3   OH265646   4.965   6.483  13.976  0.3089 -0.0763 -0.3692
14744TIP3    H165647   4.981   6.567  13.933  2.0212 -0.5294 -0.7066
14744TIP3    H265648   5.048   6.436  13.968 -0.4196 -1.5623  0.3607
14745TIP3   OH265649   3.856   0.579   6.414 -0.4569 -0.4222  0.2299
14745TIP3    H165650   3.882   0.662   6.456 -2.1099 -0.1696  0.8109
14745TIP3    H265651   3.918   0.569   6.342  0.8514  0.4418  1.1767
14746TIP3   OH265652   2.050   5.177  16.034  0.1652  0.4355 -0.1978
14746TIP3    H165653   2.087   5.241  15.974 -0.9538 -0.2185 -1.6513
14746TIP3    H265654   2.028   5.228  16.112  1.7638  1.2788 -0.2571
14747TIP3   OH265655   5.087   1.628   5.077  0.3403  0.5471 -0.4648
14747TIP3    H165656   5.121   1.610   5.165 -1.8844  1.3566  0.6527
14747TIP3    H265657   5.132   1.566   5.020  1.7044 -0.1294  1.2810
14748TIP3   OH265658   3.480   5.848   0.526 -0.3708 -0.6984  0.2524
14748TIP3    H165659   3.426   5.915   0.484 -0.3452 -0.7956  0.0671
14748TIP3    H265660   3.506   5.789   0.455 -1.0791 -1.3842  0.5464
14749TIP3   OH265661   1.148   4.639  14.283 -0.3768 -0.1248 -0.9397
14749TIP3    H165662   1.153   4.610  14.192 -2.2069 -2.9328 -0.2791
14749TIP3    H265663   1.226   4.601  14.324  0.6708  1.4823 -1.3158
14750TIP3   OH265664   0.627   5.161   1.370  0.5517 -0.0543 -0.4988
14750TIP3    H165665   0.602   5.099   1.439  0.7129  1.4613  0.9736
14750TIP3    H265666   0.666   5.106   1.302  1.5715 -1.4878  1.1597
14751TIP3   OH265667   3.214   1.816  16.952  0.3242  0.2654  0.2457
14751TIP3    H165668   3.219   1.872  16.875  4.1272 -0.7131 -0.4204
14751TIP3    H265669   3.283   1.848  17.010 -1.5418  0.1214  2.7408
14752TIP3   OH265670   5.666   5.444   4.999 -0.4177 -0.0505 -0.0423
14752TIP3    H165671   5.571   5.455   4.992 -0.2328  1.9830  0.0336
14752TIP3    H265672   5.688   5.381   4.930 -1.8437 -0.7894  0.1397
14753TIP3   OH265673   6.464   1.923   0.429  0.0704 -0.3709  0.5559
14753TIP3    H165674   6.426   1.850   0.381 -0.7254 -0.6078  1.4995
14753TIP3    H265675   6.503   1.883   0.507 -2.6368  0.3425  2.4647
14754TIP3   OH265676   1.079   1.406   4.644  0.0895 -0.4882  0.3428
14754TIP3    H165677   0.992   1.364   4.642  0.1078 -0.5164 -0.5610
14754TIP3    H265678   1.089   1.442   4.556  0.3801  0.8129  0.8908
14755TIP3   OH265679   1.093   2.051  13.875  0.2578  0.3556  0.5413
14755TIP3    H165680   1.126   1.963  13.857  2.5537  0.7919  2.1445
14755TIP3    H265681   1.003   2.050  13.843 -0.2801 -3.0055  1.7477
14756TIP3   OH265682   0.828   6.792   1.186 -0.3571 -0.8678 -0.1474
14756TIP3    H165683   0.750   6.844   1.205 -0.6872 -1.5809  0.5031
14756TIP3    H265684   0.885   6.850   1.135 -2.1148 -0.9405 -2.3177
14757TIP3   OH265685   0.593   2.684  11.856 -0.2306 -0.5817 -0.0945
14757TIP3    H165686   0.509   2.714  11.821 -0.6623 -1.4368  0.1811
14757TIP3    H265687   0.577   2.594  11.883  0.5674 -0.5143  0.6659
14758TIP3   OH265688   1.630   0.404   4.566  0.0504 -0.3361 -0.3028
14758TIP3    H165689   1.692   0.338   4.596  0.8090  0.1514 -0.7615
14758TIP3    H265690   1.580   0.428   4.644  2.3795  1.3496  0.7740
14759TIP3   OH265691   3.571   0.770  12.976  0.6994 -0.3782  0.2723
14759TIP3    H165692   3.632   0.793  13.046  0.9380 -0.8092  0.2122
14759TIP3    H265693   3.623   0.717  12.915  0.3978 -0.3176 -0.0416
14760TIP3   OH265694   6.076   4.097  12.256  0.3058  0.3400 -0.0645
14760TIP3    H165695   5.996   4.149  12.266  0.1079  0.0232  0.0176
14760TIP3    H265696   6.075   4.067  12.166 -0.0196 -0.2321  0.1265
14761TIP3   OH265697   0.960   1.931  15.294  0.1746  0.0939 -0.6688
14761TIP3    H165698   0.995   1.848  15.324  0.6290  0.6192  0.3032
14761TIP3    H265699   0.900   1.908  15.223  0.1653 -1.0674 -0.3008
14762TIP3   OH265700   2.278   3.421  11.907 -0.1518  1.3667  0.3664
14762TIP3    H165701   2.280   3.395  11.999  0.8615  1.2011  0.3080
14762TIP3    H265702   2.185   3.429  11.886 -0.4771 -0.5906  0.8603
14763TIP3   OH265703   4.406   5.317  11.592 -0.7244  0.0159  0.1804
14763TIP3    H165704   4.468   5.369  11.643  0.0477 -0.3201 -0.4031
14763TIP3    H265705   4.429   5.334  11.501 -1.8212  0.2769 -0.0619
14764TIP3   OH265706   1.559   5.268  11.465  0.0893  0.1859  0.4393
14764TIP3    H165707   1.642   5.314  11.460  0.3394  0.0033  2.3802
14764TIP3    H265708   1.519   5.283  11.379  1.4753  1.4730 -0.0317
14765TIP3   OH265709   1.440   2.233  12.097  0.0684 -0.0964 -0.1324
14765TIP3    H165710   1.509   2.169  12.081 -0.1285 -0.3802  0.1422
14765TIP3    H265711   1.477   2.294  12.159 -0.0419 -0.4421  0.2765
14766TIP3   OH265712   3.077   2.918   5.758 -0.6221 -0.2695  0.5456
14766TIP3    H165713   3.022   2.969   5.698  0.0239 -1.7726 -1.4256
14766TIP3    H265714   3.081   2.971   5.837  0.1062  2.8413 -1.3936
14767TIP3   OH265715   3.159   2.295  12.163 -0.2969  0.1998  0.5957
14767TIP3    H165716   3.234   2.295  12.104 -0.7433  2.7880 -0.0778
14767TIP3    H265717   3.116   2.211  12.148  1.5983 -0.6980 -0.0960
14768TIP3   OH265718   5.581   1.114  14.512 -0.2048  0.2812  0.0285
14768TIP3    H165719   5.523   1.181  14.548 -3.6722 -0.7068 -3.0441
14768TIP3    H265720   5.611   1.151  14.429  0.3412 -0.7843 -0.2636
14769TIP3   OH265721   2.663   6.760  10.671  0.1289 -0.0415 -0.0592
14769TIP3    H165722   2.623   6.780  10.586  2.2052  1.9106 -0.6736
14769TIP3    H265723   2.594   6.779  10.735 -0.3603  2.1556 -1.1292
14770TIP3   OH265724   0.370   4.344   2.241 -0.6352 -0.7346 -0.3713
14770TIP3    H165725   0.450   4.291   2.242 -0.4104 -0.4069  1.2078
14770TIP3    H265726   0.310   4.297   2.298 -1.1175 -0.2977 -0.5170
14771TIP3   OH265727   6.749   0.662  13.409 -0.5198 -0.0368  0.0234
14771TIP3    H165728   6.691   0.713  13.466 -0.7879  1.6793 -1.6770
14771TIP3    H265729   6.834   0.666  13.452 -1.1878 -0.9413  1.5508
14772TIP3   OH265730   2.702   3.787  15.302 -0.0856  0.1917  0.4983
14772TIP3    H165731   2.655   3.813  15.381  0.7290 -1.3258  1.5041
14772TIP3    H265732   2.794   3.785  15.327  0.5311  2.2584 -1.2172
14773TIP3   OH265733   0.214   3.614  16.985 -0.0349  0.2504  0.4610
14773TIP3    H165734   0.179   3.652  16.905 -2.3419  1.4861  1.9363
14773TIP3    H265735   0.271   3.682  17.021  2.0392 -0.7970 -0.6901
14774TIP3   OH265736   3.118   2.717  13.187 -0.2986  0.1295  0.0175
14774TIP3    H165737   3.100   2.627  13.211  1.4885 -0.2149  0.2184
14774TIP3    H265738   3.201   2.713  13.138 -0.0883  1.6710  0.1842
14775TIP3   OH265739   0.822   2.038  16.650  0.5879 -0.1995 -1.0019
14775TIP3    H165740   0.915   2.017  16.640  0.3849 -0.7396 -1.8193
14775TIP3    H265741   0.777   1.955  16.636  0.0617 -0.4265  1.4486
14776TIP3   OH265742   3.149   3.595  16.373 -0.0304  0.3411 -0.2947
14776TIP3    H165743   3.106   3.650  16.437  1.3051  2.3795 -1.0519
14776TIP3    H265744   3.100   3.609  16.292  0.1137  0.1486 -0.4180
14777TIP3   OH265745   2.687   3.009  12.070  0.1459 -0.5164 -0.3045
14777TIP3    H165746   2.710   3.080  12.130 -0.7876 -1.2888  1.0054
14777TIP3    H265747   2.665   3.054  11.988 -0.7147  0.7453  0.5857
14778TIP3   OH265748   1.213   6.098   0.955 -0.5619 -0.0581  0.1814
14778TIP3    H165749   1.206   6.077   1.048  0.2454  0.5921  0.3952
14778TIP3    H265750   1.153   6.171   0.942  1.0088  1.3849  0.7014
14779TIP3   OH265751   1.216   6.733  14.846  0.2250  1.1572  0.3352
14779TIP3    H165752   1.164   6.691  14.914  0.6976 -0.8159 -0.4469
14779TIP3    H265753   1.231   6.822  14.878 -1.9151  1.1624  1.4742
14780TIP3   OH265754   5.436   2.250  13.074 -0.6999  0.1855 -0.3586
14780TIP3    H165755   5.341   2.246  13.059 -0.6615  0.2882 -0.6287
14780TIP3    H265756   5.473   2.273  12.989 -0.5349  1.6177  0.0790
14781TIP3   OH265757   6.188   4.948  13.123  0.2718 -0.3697 -0.5283
14781TIP3    H165758   6.132   5.002  13.067 -1.1592 -2.5379 -1.3422
14781TIP3    H265759   6.186   4.861  13.082  2.1110 -1.1817  0.9337
14782TIP3   OH265760   2.981   0.422   5.490 -0.2711 -0.1936 -0.2551
14782TIP3    H165761   3.068   0.456   5.468 -0.2829  0.4176  0.6354
14782TIP3    H265762   2.972   0.436   5.584 -0.9243 -1.2010 -0.1529
14783TIP3   OH265763   4.685   3.924  11.760 -0.0024 -0.9059  0.2200
14783TIP3    H165764   4.715   3.838  11.732  1.1262 -0.0278 -1.4648
14783TIP3    H265765   4.591   3.924  11.739  0.6222 -0.5883 -3.0751
14784TIP3   OH265766   1.488   4.964  13.576 -0.3276 -0.0174  0.1120
14784TIP3    H165767   1.458   5.006  13.657 -0.4453 -2.5106  1.4783
14784TIP3    H265768   1.462   4.873  13.586  1.4593 -0.8222 -1.8493
14785TIP3   OH265769   0.967   1.431  14.971 -0.1760 -0.4219  0.1499
14785TIP3    H165770   1.000   1.376  15.042  1.4977 -1.5195 -1.4091
14785TIP3    H265771   0.892   1.382  14.936 -0.0003 -0.6753  0.1246
14786TIP3   OH265772   4.788   3.566  12.390  0.1406 -0.4830  0.0726
14786TIP3    H165773   4.751   3.620  12.321  0.0773  0.1297  0.5836
14786TIP3    H265774   4.798   3.625  12.465 -0.4679 -1.3068  0.8185
14787TIP3   OH265775   4.663   3.068  13.347  0.1998  0.3125  0.4461
14787TIP3    H165776   4.748   3.067  13.304  0.0894 -0.9000  0.2064
14787TIP3    H265777   4.665   2.993  13.406 -1.0374 -0.3469 -0.2850
14788TIP3   OH265778   0.366   0.156  14.752 -0.0618  0.0743  0.3995
14788TIP3    H165779   0.409   0.207  14.821 -0.6780  0.3069  0.6135
14788TIP3    H265780   0.428   0.085  14.733  0.8226  0.9268  0.0567
14789TIP3   OH265781   6.482   3.222  16.275  0.0355  0.1891 -0.2202
14789TIP3    H165782   6.441   3.207  16.190  1.7633 -0.0665 -1.0554
14789TIP3    H265783   6.509   3.314  16.273 -0.3127  0.3035  0.2343
14790TIP3   OH265784   4.325   4.734  16.098 -0.6029 -0.3305 -0.2817
14790TIP3    H165785   4.406   4.718  16.146  0.2007  0.1051 -1.4210
14790TIP3    H265786   4.287   4.647  16.086 -0.8374 -0.4388  1.1276
14791TIP3   OH265787   0.091   1.900  16.963 -0.1521  0.4802  0.1626
14791TIP3    H165788   0.134   1.940  16.887 -0.0404  1.0416  0.5205
14791TIP3    H265789   0.046   1.972  17.006 -2.4197 -0.2670 -0.8158
14792TIP3   OH265790   0.976   6.555  13.356 -0.3949  0.1394  0.7430
14792TIP3    H165791   0.902   6.500  13.331 -0.5358  1.1406 -1.2254
14792TIP3    H265792   0.937   6.641  13.376 -0.0579 -0.1059  2.6962
14793TIP3   OH265793   1.592   0.231   1.302 -0.2617 -0.0270 -0.0233
14793TIP3    H165794   1.626   0.156   1.351  0.1350 -0.2595 -0.6454
14793TIP3    H265795   1.507   0.249   1.343  0.6438  0.6644  1.6512
14794TIP3   OH265796   4.306   1.636   6.308 -0.2798 -0.4789 -0.0592
14794TIP3    H165797   4.219   1.598   6.292  0.2272 -2.5164  1.5166
14794TIP3    H265798   4.288   1.724   6.340 -1.6848 -0.3391 -1.1363
14795TIP3   OH265799   5.019   4.173  10.851  0.1424  0.1292 -0.2644
14795TIP3    H165800   4.984   4.105  10.794  0.2574  0.4397 -0.7086
14795TIP3    H265801   5.095   4.208  10.804  1.4458 -0.9489  0.9572
14796TIP3   OH265802   4.623   5.161   5.785 -0.4745 -0.1020 -0.5757
14796TIP3    H165803   4.579   5.193   5.864 -0.7307  2.5013 -1.6482
14796TIP3    H265804   4.675   5.087   5.815 -1.4860  0.0418  1.7880
14797TIP3   OH265805   4.754   1.392  14.869  0.1885  0.3962  1.0267
14797TIP3    H165806   4.840   1.418  14.903  0.2767 -0.4118  1.4319
14797TIP3    H265807   4.768   1.377  14.775  0.9398 -1.5632  1.4103
14798TIP3   OH265808   1.212   1.972   2.482  0.1535  0.3180  0.0321
14798TIP3    H165809   1.211   1.991   2.389 -2.0091 -0.4544 -0.1522
14798TIP3    H265810   1.124   1.993   2.512  0.8999  0.9026  1.9958
14799TIP3   OH265811   1.675   4.758  16.326  0.1840 -0.4037  0.5004
14799TIP3    H165812   1.650   4.670  16.300  2.8249 -0.7147 -1.3824
14799TIP3    H265813   1.755   4.747  16.377  0.1891  0.8774  0.8231
14800TIP3   OH265814   2.365   0.143  12.965 -0.2587 -0.1318 -0.0914
14800TIP3    H165815   2.434   0.161  12.900 -0.8700  0.7086 -0.5241
14800TIP3    H265816   2.410   0.150  13.049 -0.1532  2.2695 -0.2738
14801TIP3   OH265817   2.293   3.734  15.280 -0.1939 -0.6777  0.5508
14801TIP3    H165818   2.326   3.821  15.258  1.2578 -1.6795 -1.5554
14801TIP3    H265819   2.209   3.750  15.324  0.7904  1.7966  1.6764
14802TIP3   OH265820   4.957   4.734  14.261 -0.3891  0.8434  0.0886
14802TIP3    H165821   5.009   4.709  14.338 -1.5781  0.2551  0.7334
14802TIP3    H265822   4.891   4.666  14.254  0.2051  0.4282 -2.0076
14803TIP3   OH265823   4.405   6.111  14.823  0.3690  0.7354  0.4627
14803TIP3    H165824   4.422   6.134  14.915  4.3586 -0.6893  0.3010
14803TIP3    H265825   4.428   6.019  14.817 -0.7002  0.5638 -1.8182
14804TIP3   OH265826   2.255   2.534  13.953 -0.3468  0.4892 -0.6846
14804TIP3    H165827   2.179   2.476  13.953  0.5927 -0.8653  1.6739
14804TIP3    H265828   2.313   2.498  13.886  0.2162 -1.3903  0.7237
14805TIP3   OH265829   5.973   1.525   2.614  0.0644  0.1177  0.0148
14805TIP3    H165830   5.987   1.468   2.539  0.7430  0.9279 -0.4976
14805TIP3    H265831   5.881   1.514   2.636 -0.1559 -0.1131 -0.9607
14806TIP3   OH265832   3.966   6.209   0.105 -0.0006 -0.2914 -0.0563
14806TIP3    H165833   4.011   6.253   0.177 -0.4507 -0.1091  0.1128
14806TIP3    H265834   3.916   6.277   0.062  1.4247 -0.0882 -1.4729
14807TIP3   OH265835   4.104   3.227  14.401  0.5273  0.5480 -0.0709
14807TIP3    H165836   4.061   3.241  14.317  0.0739  0.4842  0.1439
14807TIP3    H265837   4.129   3.134  14.400  1.3352  0.7703 -0.5000
14808TIP3   OH265838   5.692   3.218   1.104 -0.3980  0.3970  0.2293
14808TIP3    H165839   5.737   3.192   1.024 -1.1966 -0.7535  0.1249
14808TIP3    H265840   5.621   3.276   1.075  0.4772  1.5538  0.3175
14809TIP3   OH265841   2.747   2.952  10.572 -0.9416  0.0477  0.8482
14809TIP3    H165842   2.712   2.920  10.655  0.0519 -1.1672  0.8215
14809TIP3    H265843   2.782   3.038  10.593  2.7107 -1.6715  2.7017
14810TIP3   OH265844   1.161   0.831   4.249 -0.3046 -0.3516 -0.6284
14810TIP3    H165845   1.107   0.907   4.271  0.8382 -0.0100  1.2239
14810TIP3    H265846   1.128   0.762   4.306 -1.1763 -1.2381 -2.1334
14811TIP3   OH265847   3.982   6.062  11.345  0.4429  0.1489  0.1722
14811TIP3    H165848   3.889   6.084  11.335  0.6184 -0.1469 -2.9690
14811TIP3    H265849   3.983   5.991  11.409 -1.8667 -1.8496 -1.8322
14812TIP3   OH265850   5.915   5.884  14.086  0.5598  0.3980 -0.5982
14812TIP3    H165851   5.906   5.840  14.001  1.4404 -1.0259  0.0192
14812TIP3    H265852   6.004   5.864  14.115  0.3501  1.0575  0.5674
14813TIP3   OH265853   1.900   4.076   0.637 -0.5057 -0.0551  0.3286
14813TIP3    H165854   1.954   4.107   0.709 -0.4100  1.1140 -0.2235
14813TIP3    H265855   1.915   4.139   0.567 -2.1638 -0.0038 -0.0203
14814TIP3   OH265856   0.790   6.322  15.882 -0.1492 -0.2380  0.1196
14814TIP3    H165857   0.852   6.302  15.952 -0.1321 -1.5497 -0.2467
14814TIP3    H265858   0.753   6.407  15.906  1.5427  0.4261  0.5073
14815TIP3   OH265859   5.300   3.007   0.993  0.0628  0.2415  0.0001
14815TIP3    H165860   5.244   3.085   0.994 -0.2217  0.0701 -1.0009
14815TIP3    H265861   5.373   3.032   0.937 -0.6041 -0.5743 -1.2763
14816TIP3   OH265862   2.502   0.451  11.711  0.9403 -0.4760 -0.1123
14816TIP3    H165863   2.506   0.460  11.616  0.3740  2.0410  0.0391
14816TIP3    H265864   2.593   0.463  11.741  1.2908 -2.2853 -0.3557
14817TIP3   OH265865   4.504   0.708  12.572  0.3420  0.0034 -0.1570
14817TIP3    H165866   4.560   0.631  12.578  0.0585 -0.0950  2.6378
14817TIP3    H265867   4.479   0.712  12.480  0.4518 -3.1881 -0.4628
14818TIP3   OH265868   0.244   3.046   1.369 -0.2746  0.1554  0.2898
14818TIP3    H165869   0.334   3.013   1.369 -0.8888 -1.7330 -1.4088
14818TIP3    H265870   0.215   3.038   1.278 -2.3574  0.1576  0.8941
14819TIP3   OH265871   0.948   5.582  11.686  0.0090  0.0192 -0.1713
14819TIP3    H165872   1.019   5.517  11.691  0.6505  0.7590  0.7138
14819TIP3    H265873   0.972   5.638  11.612 -1.4359 -1.6982 -2.0926
14820TIP3   OH265874   6.381   3.317  16.015 -0.1220 -0.0751 -0.1340
14820TIP3    H165875   6.445   3.382  16.043  1.1358 -2.0321  1.9095
14820TIP3    H265876   6.297   3.363  16.018  0.7178  1.4612  1.1479
14821TIP3   OH265877   2.678   6.535   4.844 -0.1981  0.0799 -0.6417
14821TIP3    H165878   2.684   6.546   4.939  0.8254 -1.4282 -0.4945
14821TIP3    H265879   2.584   6.529   4.826 -0.3627 -1.4701  0.5479
14822TIP3   OH265880   3.982   0.984   2.266  0.3217 -0.0567 -0.2211
14822TIP3    H165881   4.032   0.965   2.187 -1.5353 -0.5734 -1.3276
14822TIP3    H265882   3.914   1.044   2.238  0.6862  1.1683  1.3962
14823TIP3   OH265883   3.863   0.891   4.746 -0.1603 -0.2343 -0.1417
14823TIP3    H165884   3.917   0.837   4.688  1.3267  0.2048  0.7573
14823TIP3    H265885   3.923   0.917   4.816 -1.6239  0.1351  1.0173
14824TIP3   OH265886   3.721   5.301  15.089 -0.2442 -0.6399 -0.2394
14824TIP3    H165887   3.800   5.257  15.119  0.9721  1.8012  0.3329
14824TIP3    H265888   3.713   5.276  14.997  0.1427 -2.3161  0.1500
14825TIP3   OH265889   0.011   3.320   3.408  0.5691  0.1026  0.4827
14825TIP3    H165890   0.085   3.300   3.351 -0.3791  0.1486 -0.8120
14825TIP3    H265891   0.046   3.381   3.473  2.1887 -1.5900  1.2702
14826TIP3   OH265892   2.660   2.543   4.264 -0.4752 -0.8655 -0.4055
14826TIP3    H165893   2.568   2.538   4.237 -0.2215 -0.0380 -1.5012
14826TIP3    H265894   2.657   2.553   4.359 -1.5630 -0.0034 -0.5097
14827TIP3   OH265895   2.137   2.609  12.956 -0.4145 -0.2449  0.6839
14827TIP3    H165896   2.122   2.702  12.974  0.2973  0.3540 -1.4858
14827TIP3    H265897   2.229   2.594  12.978  0.0356  0.1086 -0.8669
14828TIP3   OH265898   2.860   0.392  16.389 -0.7141 -0.3750 -0.4088
14828TIP3    H165899   2.837   0.374  16.298  0.3707 -2.7811 -0.2644
14828TIP3    H265900   2.810   0.329  16.440 -0.5842  0.3129  0.6046
14829TIP3   OH265901   5.559   4.740   3.090  0.1244  0.0639  0.2230
14829TIP3    H165902   5.508   4.661   3.075  2.3460 -1.3940 -0.1771
14829TIP3    H265903   5.595   4.763   3.004  1.1624  0.2723  0.6877
14830TIP3   OH265904   5.994   6.458   0.690 -0.1608 -0.4468  0.3319
14830TIP3    H165905   5.995   6.393   0.621  3.7394 -0.2939  0.0291
14830TIP3    H265906   5.934   6.526   0.659  0.9672 -0.6796 -2.6639
14831TIP3   OH265907   6.300   0.427  13.479  0.0528 -0.1447 -0.3143
14831TIP3    H165908   6.373   0.411  13.538 -0.1530  0.9834  0.2556
14831TIP3    H265909   6.313   0.364  13.407  0.1115 -1.7726  1.0673
14832TIP3   OH265910   1.864   5.140   0.518 -0.4556 -0.0093 -0.0231
14832TIP3    H165911   1.827   5.101   0.439  0.2399  0.7638 -0.7507
14832TIP3    H265912   1.813   5.220   0.531  0.8758  1.0418 -1.0064
14833TIP3   OH265913   6.668   1.807   2.676  0.0790  0.1514  0.2075
14833TIP3    H165914   6.572   1.808   2.680 -0.0428  3.8408  0.3329
14833TIP3    H265915   6.693   1.898   2.696  3.5221 -0.2372 -1.6003
14834TIP3   OH265916   1.108   2.822  15.604 -0.7150 -0.1466  0.4527
14834TIP3    H165917   1.144   2.818  15.515 -0.0853  0.5431  0.6689
14834TIP3    H265918   1.016   2.800  15.593 -1.2598  2.4039 -0.7453
14835TIP3   OH265919   2.348   3.935   4.094 -0.1744 -0.0772 -0.8593
14835TIP3    H165920   2.266   3.978   4.073  0.0085  0.3176 -0.7755
14835TIP3    H265921   2.324   3.844   4.112 -0.7407  0.2702  0.2188
14836TIP3   OH265922   0.008   3.295  12.995 -0.5082 -0.6193 -1.2091
14836TIP3    H165923  -0.003   3.381  13.037 -0.3917 -0.9248 -0.5490
14836TIP3    H265924  -0.024   3.233  13.060 -0.6205 -1.0791 -1.7001
14837TIP3   OH265925   2.556   5.756   0.952 -0.5052 -0.3459  0.2225
14837TIP3    H165926   2.469   5.745   0.914  0.1575 -0.2295 -1.3811
14837TIP3    H265927   2.611   5.695   0.905  0.4189  0.0272  0.7978
14838TIP3   OH265928   4.811   0.750  11.780 -0.3806 -0.3178 -0.6936
14838TIP3    H165929   4.790   0.724  11.690 -0.2346  0.4187 -0.9462
14838TIP3    H265930   4.768   0.684  11.834 -0.5449 -0.7198 -1.2995
14839TIP3   OH265931   1.130   5.042   5.404  0.1875 -0.2642 -0.2532
14839TIP3    H165932   1.202   5.105   5.395 -0.3688  0.1199 -3.2374
14839TIP3    H265933   1.136   4.988   5.325  0.3426 -3.7637  1.9100
14840TIP3   OH265934   4.464   0.336   3.104  0.3674 -0.5524 -0.1838
14840TIP3    H165935   4.512   0.385   3.171 -0.7131 -0.3603  0.4735
14840TIP3    H265936   4.531   0.311   3.040  1.6784 -1.7796  1.5438
14841TIP3   OH265937   1.448   2.951   3.932  0.8944 -0.1757  0.3658
14841TIP3    H165938   1.423   3.026   3.878  1.4628  1.1484  1.8692
14841TIP3    H265939   1.544   2.953   3.933  0.9468 -1.3586 -0.1243
14842TIP3   OH265940   5.622   2.407   2.884  0.3842 -0.1055 -0.0860
14842TIP3    H165941   5.638   2.349   2.958 -1.1873  1.3869  1.5330
14842TIP3    H265942   5.526   2.411   2.876  0.4924  0.5192 -1.6024
14843TIP3   OH265943   6.750   3.307  10.781 -0.0678 -0.3376  0.0180
14843TIP3    H165944   6.713   3.355  10.706 -0.1051  0.1820  0.3646
14843TIP3    H265945   6.837   3.344  10.792 -0.2551 -0.0502  0.5518
14844TIP3   OH265946   6.369   6.695   3.641  0.0225  0.1682 -0.2615
14844TIP3    H165947   6.346   6.648   3.561 -1.2632  0.0914  0.1368
14844TIP3    H265948   6.392   6.783   3.612 -0.4257  0.1355 -0.7172
14845TIP3   OH265949   4.883   0.441   5.697  0.8195  0.7131 -0.0926
14845TIP3    H165950   4.954   0.426   5.759  0.2319  1.1628  0.7015
14845TIP3    H265951   4.804   0.444   5.750 -0.4176 -3.5505 -1.2455
14846TIP3   OH265952   3.830   4.732   4.588  0.3934 -0.5708  0.0925
14846TIP3    H165953   3.758   4.729   4.652  1.8898 -1.3256  1.8271
14846TIP3    H265954   3.843   4.825   4.571 -0.1084 -0.3623  0.7858
14847TIP3   OH265955   3.014   1.268   5.469 -0.1075 -0.2559  0.2520
14847TIP3    H165956   3.015   1.363   5.460  1.3788 -0.1679  1.0817
14847TIP3    H265957   2.930   1.248   5.510 -0.5432  0.6646 -0.1730
14848TIP3   OH265958   1.075   1.822   1.711  0.0401 -0.9654  0.1454
14848TIP3    H165959   0.988   1.854   1.737  0.2336 -0.0280 -0.3417
14848TIP3    H265960   1.062   1.728   1.696 -0.9786 -0.7629 -0.2950
14849TIP3   OH265961   3.445   1.020   1.432  0.4829 -0.0204  0.4039
14849TIP3    H165962   3.398   1.100   1.455  1.9604  0.7164  0.9736
14849TIP3    H265963   3.434   1.012   1.337 -2.5714 -1.0862  0.7075
14850TIP3   OH265964   0.432   6.271  14.018  0.1238  0.6046 -0.1318
14850TIP3    H165965   0.423   6.290  13.925 -0.5982  2.3914  0.2789
14850TIP3    H265966   0.519   6.301  14.041 -0.8335  3.1893  0.4065
14851TIP3   OH265967   5.178   2.078   4.328  0.4659  0.9559  0.0981
14851TIP3    H165968   5.124   2.086   4.249  0.8935  0.5286 -0.2340
14851TIP3    H265969   5.197   1.985   4.336  0.9375  1.0723  0.3686
14852TIP3   OH265970   4.321   3.433  10.520 -0.2176  0.3272  0.2455
14852TIP3    H165971   4.337   3.482  10.439 -0.5476  0.5789  0.3279
14852TIP3    H265972   4.228   3.447  10.538  0.2164  1.8268  1.6560
14853TIP3   OH265973   3.969   2.339  13.475 -0.2408 -0.1100 -0.1842
14853TIP3    H165974   3.983   2.248  13.448  0.2852  0.2876 -1.3506
14853TIP3    H265975   4.055   2.380  13.463 -0.5247  0.5817  0.1383
14854TIP3   OH265976   4.162   3.334  12.253  0.1317  0.6187 -0.1007
14854TIP3    H165977   4.210   3.251  12.249 -1.2798 -0.1834 -1.3974
14854TIP3    H265978   4.218   3.396  12.207  1.1564  0.3980  0.7889
14855TIP3   OH265979   5.082   5.744   5.692 -0.1034 -0.0642 -0.2925
14855TIP3    H165980   5.140   5.694   5.635 -1.0223 -0.7681 -0.6261
14855TIP3    H265981   5.141   5.798   5.744  0.8512 -0.7452 -0.6402
14856TIP3   OH265982   1.855   2.111   5.257 -0.6059  0.1475  0.0219
14856TIP3    H165983   1.850   2.204   5.236 -0.6424  0.5984  1.8736
14856TIP3    H265984   1.765   2.080   5.245 -0.7790  0.5603  0.1974
14857TIP3   OH265985   2.791   2.529   4.706 -0.3744  0.1247 -0.5803
14857TIP3    H165986   2.732   2.550   4.779  0.0618 -0.0013 -0.1912
14857TIP3    H265987   2.879   2.536   4.743  0.0049  2.5375 -1.6837
14858TIP3   OH265988   3.575   2.467  15.214 -0.1857  0.4686  0.4751
14858TIP3    H165989   3.566   2.487  15.308  0.3260  2.2228  0.1948
14858TIP3    H265990   3.489   2.485  15.178 -0.2221  0.3839  0.5203
14859TIP3   OH265991   0.190   3.786   5.911 -0.1011 -0.3869  0.2490
14859TIP3    H165992   0.229   3.870   5.937 -0.4072  0.6777 -2.3868
14859TIP3    H265993   0.110   3.780   5.962  0.4203  0.4382  1.2072
14860TIP3   OH265994   3.138   2.906  10.569  0.1518 -0.6323 -0.4766
14860TIP3    H165995   3.068   2.888  10.507  0.6792 -1.0534 -0.9610
14860TIP3    H265996   3.100   2.967  10.632 -0.2422  0.1883 -1.4931
14861TIP3   OH265997   2.147   0.468   6.325  0.0346 -0.3560  0.2338
14861TIP3    H165998   2.155   0.527   6.400 -1.3090 -0.4000  0.4410
14861TIP3    H265999   2.134   0.525   6.250  1.1847 -0.3199  0.0411
14862TIP3   OH266000   0.119   2.055   1.220  0.2606 -0.4693 -0.2308
14862TIP3    H166001   0.201   2.095   1.190 -0.4315  0.9817 -0.3011
14862TIP3    H266002   0.131   2.044   1.315 -0.3144  2.0419  0.2028
14863TIP3   OH266003   4.155   3.086   4.354 -0.0544  0.2494  0.2977
14863TIP3    H166004   4.110   3.003   4.336  2.3018 -0.7279 -1.7575
14863TIP3    H266005   4.184   3.078   4.445  1.3297 -1.9068 -0.2505
14864TIP3   OH266006   0.204   5.368   2.794  0.2735  0.1875  0.0445
14864TIP3    H166007   0.298   5.375   2.810  0.7240  0.4217 -2.2855
14864TIP3    H266008   0.184   5.442   2.736 -1.2564 -0.1581  0.0763
14865TIP3   OH266009   3.057   0.305   4.067 -0.4201  0.4169 -0.1031
14865TIP3    H166010   3.040   0.396   4.093 -1.3172  0.4313 -0.6899
14865TIP3    H266011   3.027   0.253   4.141 -0.5698  0.5705 -0.0539
14866TIP3   OH266012   1.885   2.644  15.118  0.4724 -0.2085 -0.3887
14866TIP3    H166013   1.806   2.607  15.080 -0.3129  0.2212  0.7685
14866TIP3    H266014   1.919   2.575  15.175 -0.1148  0.2532  0.5440
14867TIP3   OH266015   2.971   1.024  14.384  0.3946 -0.3520  0.9369
14867TIP3    H166016   2.921   0.953  14.343 -0.0057  0.2928  0.2802
14867TIP3    H266017   3.024   1.059  14.313  0.6553 -0.0520  1.2812
14868TIP3   OH266018   3.096   4.773   5.320 -0.2006 -0.4790 -0.2851
14868TIP3    H166019   3.190   4.759   5.331 -0.0491  1.1285  0.7981
14868TIP3    H266020   3.055   4.701   5.368  0.5208  0.8026  2.4378
14869TIP3   OH266021   6.553   5.472  12.514  0.2388 -0.6791  0.4293
14869TIP3    H166022   6.470   5.463  12.562 -0.0615 -0.1840  0.0109
14869TIP3    H266023   6.605   5.397  12.542 -1.2799 -2.4296 -1.1692
14870TIP3   OH266024   4.702   0.966  16.402 -0.4392 -0.3637 -0.2370
14870TIP3    H166025   4.648   0.979  16.480  0.3096  0.4571  0.1519
14870TIP3    H266026   4.681   0.877  16.373 -0.2976 -0.8938  1.2343
14871TIP3   OH266027   1.468   2.681  13.256 -0.2141  0.3754  0.6108
14871TIP3    H166028   1.545   2.626  13.264 -0.1899 -0.1501 -2.1645
14871TIP3    H266029   1.419   2.644  13.182 -1.7671  2.2574  0.5954
14872TIP3   OH266030   0.212   5.173   1.082 -0.4732  0.6859 -0.3894
14872TIP3    H166031   0.121   5.172   1.111 -0.5227  1.7904 -0.4459
14872TIP3    H266032   0.262   5.181   1.163 -0.2879 -1.9644 -0.1786
14873TIP3   OH266033   0.923   6.772  12.826  0.3632  0.2569  0.3886
14873TIP3    H166034   1.004   6.822  12.838  0.4150  0.2723  0.0060
14873TIP3    H266035   0.879   6.817  12.754  0.4897 -0.3478 -0.0724
14874TIP3   OH266036   3.398   0.859   2.588 -0.0179  0.5566  0.0834
14874TIP3    H166037   3.442   0.858   2.673 -1.2441 -0.9888  0.7341
14874TIP3    H266038   3.383   0.952   2.571  1.5514  0.9882  0.8291
14875TIP3   OH266039   6.675   5.252   4.895  1.0393 -0.4210 -0.0750
14875TIP3    H166040   6.645   5.343   4.902  1.2625 -0.2497 -1.1824
14875TIP3    H266041   6.738   5.253   4.823  1.4050 -1.3679  0.2168
14876TIP3   OH266042   3.543   6.661  12.735 -0.0955 -0.1553 -0.5791
14876TIP3    H166043   3.572   6.640  12.646  0.9067  0.6585 -0.4726
14876TIP3    H266044   3.509   6.578  12.769  1.9509 -1.1759 -0.8116
14877TIP3   OH266045   6.483   1.504   5.761 -0.3020 -0.1627  0.0053
14877TIP3    H166046   6.520   1.530   5.845 -0.8961  0.2379  0.1464
14877TIP3    H266047   6.492   1.582   5.706  1.6948 -0.9372 -0.8774
14878TIP3   OH266048   3.025   6.289  14.475 -0.3248 -0.2822  0.3021
14878TIP3    H166049   2.971   6.369  14.474 -1.2648 -0.9012 -0.5589
14878TIP3    H266050   2.971   6.224  14.519  0.3537 -0.5144  0.8041
14879TIP3   OH266051   1.369   5.708   5.531 -0.5643 -0.1811  0.2122
14879TIP3    H166052   1.324   5.714   5.616  0.9294  1.2082  0.9589
14879TIP3    H266053   1.430   5.636   5.542 -0.5867 -0.2014  0.2033
14880TIP3   OH266054   5.567   1.131  14.065 -0.5077 -0.2530  0.5466
14880TIP3    H166055   5.551   1.081  14.144 -1.1684  0.0349  0.6043
14880TIP3    H266056   5.659   1.115  14.044 -0.3265 -0.3230  1.3740
14881TIP3   OH266057   2.585   4.534   0.441  0.3805 -0.0114  0.2515
14881TIP3    H166058   2.673   4.530   0.404  0.4186 -0.5911  0.4021
14881TIP3    H266059   2.565   4.444   0.467  0.3214  0.3508  1.5524
14882TIP3   OH266060   1.248   4.876   4.960  0.1667 -0.3043  0.2323
14882TIP3    H166061   1.329   4.828   4.944  0.3040  0.4089 -1.3572
14882TIP3    H266062   1.212   4.892   4.873 -0.2162  1.8661  0.7427
14883TIP3   OH266063   5.237   1.501   4.867 -0.7941  0.5247  0.5033
14883TIP3    H166064   5.154   1.529   4.828 -0.9158  0.7990  0.9469
14883TIP3    H266065   5.299   1.500   4.794 -1.1424  0.5078  0.2066
14884TIP3   OH266066   1.375   2.330   0.633  0.3318 -0.6025 -0.1300
14884TIP3    H166067   1.422   2.329   0.717  2.2075  0.1022 -1.1066
14884TIP3    H266068   1.426   2.389   0.578 -1.4298 -0.2539 -1.4790
14885TIP3   OH266069   2.698   1.839  13.232 -0.5279 -0.1995  0.2608
14885TIP3    H166070   2.621   1.809  13.183 -0.7549 -0.3410  0.6943
14885TIP3    H266071   2.768   1.842  13.167 -1.1862  1.1499 -0.4236
14886TIP3   OH266072   2.060   0.945  12.458  0.3216  0.0480  0.0376
14886TIP3    H166073   2.020   1.011  12.514 -1.1668 -1.7042  1.1613
14886TIP3    H266074   2.129   0.992  12.411 -0.0672  2.1600  1.4340
14887TIP3   OH266075   0.705   1.608  15.340  0.6571 -0.1449  0.0690
14887TIP3    H166076   0.612   1.608  15.364  0.6109  1.4219  0.0249
14887TIP3    H266077   0.710   1.667  15.265  1.6189 -0.6406 -0.2656
14888TIP3   OH266078   0.366   3.911   0.660 -0.1978  0.2050  0.1488
14888TIP3    H166079   0.363   3.931   0.566 -2.6886  0.7855  0.2937
14888TIP3    H266080   0.363   3.816   0.664 -0.3402  0.1873 -0.3420
14889TIP3   OH266081   4.069   5.055   1.440 -0.4844  0.3809  0.1279
14889TIP3    H166082   4.131   4.986   1.416 -0.1544  0.7188 -0.0106
14889TIP3    H266083   4.103   5.089   1.523 -0.1118  0.9991 -0.2686
14890TIP3   OH266084   2.712   4.720  15.923  0.3558 -0.0526 -0.0901
14890TIP3    H166085   2.790   4.772  15.907  1.4221 -1.5177  0.1766
14890TIP3    H266086   2.645   4.758  15.866  0.4674  2.8593  1.5109
14891TIP3   OH266087   6.335   3.132  11.913  0.1871 -0.1811  0.1857
14891TIP3    H166088   6.247   3.168  11.908  1.1465  2.4170  0.2622
14891TIP3    H266089   6.359   3.139  12.006  1.0268  0.7158 -0.0776
14892TIP3   OH266090   4.000   6.651   2.025 -0.3717 -0.1327 -0.1377
14892TIP3    H166091   4.028   6.575   2.077  0.5112  0.2463 -0.0579
14892TIP3    H266092   4.081   6.694   1.999 -0.8667  1.0372  0.1831
14893TIP3   OH266093   1.321   1.642   2.230  0.2681 -0.3528 -0.0319
14893TIP3    H166094   1.309   1.737   2.241 -0.4362 -0.2447 -1.5396
14893TIP3    H266095   1.251   1.603   2.282 -1.0761  0.0537 -1.4626
14894TIP3   OH266096   1.705   4.614  11.280  0.3144 -0.2532  0.4015
14894TIP3    H166097   1.746   4.547  11.335 -2.1831  0.0977  2.8873
14894TIP3    H266098   1.621   4.576  11.254 -0.2888  1.1501  0.2036
14895TIP3   OH266099   6.393   6.533   1.649  0.1551 -0.5635  0.4298
14895TIP3    H166100   6.485   6.528   1.625  0.1132  0.3597  0.0087
14895TIP3    H266101   6.393   6.567   1.738  0.2273 -0.2434  0.3122
14896TIP3   OH266102   1.825   1.192   3.999  0.2179  0.5599  0.1222
14896TIP3    H166103   1.874   1.205   3.918 -0.1434  4.7424  0.3957
14896TIP3    H266104   1.735   1.177   3.971  0.6491 -1.9239 -0.2155
14897TIP3   OH266105   1.054   1.769  13.770 -0.1909 -0.0121 -0.3809
14897TIP3    H166106   1.017   1.686  13.799  0.2244 -1.0105 -2.5000
14897TIP3    H266107   1.015   1.783  13.683 -0.0336  1.8847 -0.1807
14898TIP3   OH266108   0.929   4.479  14.623 -0.5070  0.6789 -0.2439
14898TIP3    H166109   0.938   4.560  14.674  1.4664  1.7293 -2.0886
14898TIP3    H266110   0.891   4.507  14.540 -1.8092 -0.6755 -0.1350
14899TIP3   OH266111   2.872   5.295  11.982 -0.0264  0.0562  0.3128
14899TIP3    H166112   2.884   5.231  11.912 -1.7648 -1.4588  1.3470
14899TIP3    H266113   2.962   5.317  12.009  0.7123  0.8341 -2.4406
14900TIP3   OH266114   4.524   3.457  11.147  0.1900  0.3268  0.1931
14900TIP3    H166115   4.503   3.434  11.237 -1.5049 -1.5697 -0.6139
14900TIP3    H266116   4.558   3.376  11.109 -0.8849  0.5606 -1.3453
14901TIP3   OH266117   1.852   5.061  16.316  0.1751 -0.1762  0.2010
14901TIP3    H166118   1.790   5.061  16.389  0.9848 -0.2770  0.9098
14901TIP3    H266119   1.934   5.030  16.355  1.2895  2.0975 -0.1627
14902TIP3   OH266120   6.045   1.534  15.644  0.0468 -0.6067  0.1957
14902TIP3    H166121   6.020   1.506  15.556 -1.5209 -2.9250  1.2783
14902TIP3    H266122   6.141   1.537  15.641  0.0229  2.0717 -2.2810
14903TIP3   OH266123   0.284   2.012  12.552  0.1290  0.9861 -0.2125
14903TIP3    H166124   0.215   1.947  12.538  0.4077  0.7736 -0.6050
14903TIP3    H266125   0.361   1.960  12.575 -0.4165  1.3001  2.8038
14904TIP3   OH266126   3.970   2.526  12.418  0.2804  0.1753 -0.1326
14904TIP3    H166127   3.888   2.566  12.444  0.6522  1.7572 -1.2966
14904TIP3    H266128   4.030   2.599  12.404  1.7498 -0.9104  0.1805
14905TIP3   OH266129   5.270   6.701   4.641  0.1490 -0.4672 -1.1282
14905TIP3    H166130   5.352   6.699   4.592  1.9388  1.3889  1.5265
14905TIP3    H266131   5.225   6.779   4.608 -0.5175 -1.3407 -2.3981
14906TIP3   OH266132   5.809   1.116  13.406 -0.0805 -0.0879 -0.0945
14906TIP3    H166133   5.884   1.171  13.385 -0.2253  0.5401  0.9477
14906TIP3    H266134   5.746   1.176  13.446 -0.4307 -0.9114  0.6392
14907TIP3   OH266135   1.828   5.108  15.501 -0.0303 -0.2946 -0.3897
14907TIP3    H166136   1.888   5.122  15.574 -1.6265  0.3459  0.8675
14907TIP3    H266137   1.789   5.194  15.484 -1.6080 -0.9337 -0.2200
14908TIP3   OH266138   1.271   4.719  17.029 -0.3229 -0.2901 -0.0667
14908TIP3    H166139   1.272   4.796  17.085 -2.1227 -0.7849  0.7072
14908TIP3    H266140   1.260   4.646  17.089  1.2519 -1.1689 -0.8008
14909TIP3   OH266141   4.873   4.413  16.954  0.4718 -0.0375 -0.1137
14909TIP3    H166142   4.916   4.445  17.033  1.7444  0.8420 -1.1157
14909TIP3    H266143   4.786   4.454  16.956  0.1031 -0.8462  1.3157
14910TIP3   OH266144   5.512   4.696  11.410 -0.1955  0.1847 -0.2241
14910TIP3    H166145   5.505   4.708  11.316 -0.3946 -0.9876 -0.3647
14910TIP3    H266146   5.422   4.680  11.439  0.2323 -3.0394 -0.3650
14911TIP3   OH266147   0.441   6.757   3.272 -0.5421  0.0271 -0.1100
14911TIP3    H166148   0.485   6.842   3.264 -1.1708  0.4672  0.9315
14911TIP3    H266149   0.397   6.760   3.356  1.9987 -2.5255  1.5158
14912TIP3   OH266150   3.575   0.929  15.035  0.2618 -0.0886 -0.3265
14912TIP3    H166151   3.536   0.858  15.085  1.5418 -0.2903  0.4542
14912TIP3    H266152   3.509   0.953  14.970 -0.1515 -2.0593 -0.6853
14913TIP3   OH266153   6.009   4.837  12.882  0.2743  0.2495 -0.4752
14913TIP3    H166154   6.037   4.926  12.901  1.0110  0.4529 -2.2485
14913TIP3    H266155   6.075   4.781  12.923  0.3354  0.5542 -0.1598
14914TIP3   OH266156   6.160   2.862  12.846  0.4610  0.1375 -0.0934
14914TIP3    H166157   6.233   2.828  12.898  1.0868  1.0337 -0.3646
14914TIP3    H266158   6.190   2.948  12.816 -1.1048  0.9786  0.6456
14915TIP3   OH266159   2.055   6.042   3.501  0.2689  0.1304  0.4304
14915TIP3    H166160   2.144   6.074   3.520  0.6561 -1.3009  1.2245
14915TIP3    H266161   2.052   5.956   3.543 -1.5875  0.2526  0.6063
14916TIP3   OH266162   5.383   2.915   3.665  0.2121  0.2680  0.2619
14916TIP3    H166163   5.472   2.926   3.699 -0.0683  0.9640  0.7727
14916TIP3    H266164   5.359   2.826   3.692  1.6443 -0.9189 -1.9857
14917TIP3   OH266165   3.259   0.055  15.722 -0.0662 -0.1227  0.1169
14917TIP3    H166166   3.170   0.059  15.755 -0.2435 -0.8179 -0.2658
14917TIP3    H266167   3.291  -0.031  15.748  1.0740  0.7253  1.7004
14918TIP3   OH266168   4.315   1.056   5.602  0.2230  0.3020 -0.2431
14918TIP3    H166169   4.248   0.988   5.603  0.6855 -0.1710  0.9525
14918TIP3    H266170   4.293   1.111   5.526 -0.1563 -1.1582 -1.2230
14919TIP3   OH266171   2.439   2.855   1.746 -0.1800  0.2150  0.1745
14919TIP3    H166172   2.348   2.838   1.720  0.4030 -1.4134 -1.0155
14919TIP3    H266173   2.484   2.872   1.663  0.9054 -0.6383  0.5707
14920TIP3   OH266174   5.071   1.205   2.410  0.3535  0.4233 -0.2839
14920TIP3    H166175   5.060   1.111   2.399 -0.6673  0.3953  0.8306
14920TIP3    H266176   4.983   1.242   2.399  0.4877  1.0873  0.7048
14921TIP3   OH266177   1.114   2.277  14.974  0.0112 -0.0259  0.5446
14921TIP3    H166178   1.029   2.253  15.011  0.2317  1.2031  1.9469
14921TIP3    H266179   1.101   2.365  14.939  0.9204  0.5515  1.6063
14922TIP3   OH266180   1.136   1.921  15.530  0.0722  0.3788 -0.2634
14922TIP3    H166181   1.114   1.989  15.593  0.1677  0.1075  0.0648
14922TIP3    H266182   1.080   1.847  15.553 -0.4546  0.5388 -0.9809
14923TIP3   OH266183   5.229   5.188  15.837 -0.0124 -0.3884 -0.2533
14923TIP3    H166184   5.152   5.154  15.792  0.8303 -1.4692 -0.9372
14923TIP3    H266185   5.290   5.211  15.768  0.6780 -0.5279  0.2935
14924TIP3   OH266186   2.001   6.288   0.102  0.2247  0.3378  0.2917
14924TIP3    H166187   2.054   6.221   0.059  0.6662 -0.1531  1.5651
14924TIP3    H266188   1.947   6.324   0.031  2.1053  0.7375 -1.0276
14925TIP3   OH266189   5.181   1.147  14.487 -0.4298  0.2785  0.1249
14925TIP3    H166190   5.238   1.223  14.499 -0.0788  0.1368 -0.5964
14925TIP3    H266191   5.115   1.156  14.556 -1.2467  2.0166 -0.8038
14926TIP3   OH266192   6.317   5.744   2.630  0.4285  0.1725 -0.0150
14926TIP3    H166193   6.296   5.658   2.667  0.0532  0.0328 -0.5424
14926TIP3    H266194   6.269   5.806   2.684  1.6001  0.1593  1.0924
14927TIP3   OH266195   5.610   1.457   0.676 -0.0552 -0.6291  0.0518
14927TIP3    H166196   5.570   1.516   0.612  0.4770 -0.9850 -0.6267
14927TIP3    H266197   5.535   1.419   0.723 -0.3837  1.0503  0.9585
14928TIP3   OH266198   5.324   2.956  16.385 -0.2358 -0.3617 -0.0780
14928TIP3    H166199   5.275   2.874  16.383  1.6377 -1.5581 -0.2813
14928TIP3    H266200   5.371   2.953  16.469 -0.5237  0.7715  0.1424
14929TIP3   OH266201   6.512   3.456  13.749  0.1383  0.5361  0.5823
14929TIP3    H166202   6.490   3.397  13.821  1.3322  1.0878  1.4399
14929TIP3    H266203   6.591   3.501  13.779  0.8878  0.5010 -1.2523
14930TIP3   OH266204   3.295   3.808   2.306 -0.0418 -0.1569 -0.2162
14930TIP3    H166205   3.380   3.807   2.262 -0.4347  0.8228 -1.0090
14930TIP3    H266206   3.269   3.900   2.308 -1.0770 -0.4388  0.0400
14931TIP3   OH266207   1.513   5.025   5.311 -0.0869 -0.7676 -0.1716
14931TIP3    H166208   1.511   5.049   5.218  1.5161  0.9793  0.1713
14931TIP3    H266209   1.461   5.093   5.354  1.3514 -0.0191  0.4444
14932TIP3   OH266210   2.230   0.291   5.061 -0.0322  0.1477 -0.3544
14932TIP3    H166211   2.220   0.291   5.156 -0.8000 -0.4227 -0.4247
14932TIP3    H266212   2.169   0.224   5.031 -0.4783  0.9660 -1.3280
14933TIP3   OH266213   2.888   5.965  14.330  0.7721  0.1239 -0.0839
14933TIP3    H166214   2.979   5.957  14.361  0.6365  1.1022  0.6402
14933TIP3    H266215   2.837   5.915  14.393  0.6313  1.0589  0.5631
14934TIP3   OH266216   2.908   2.260  16.896  0.0577 -0.3354  0.6756
14934TIP3    H166217   2.831   2.311  16.870  0.6262  0.6916  0.9638
14934TIP3    H266218   2.907   2.184  16.837  0.0518  0.7917 -0.8317
14935TIP3   OH266219   3.228   2.786   1.961 -0.3795 -0.3519  0.3107
14935TIP3    H166220   3.210   2.864   1.908 -0.8002 -1.2197 -0.8626
14935TIP3    H266221   3.310   2.752   1.926  0.2118 -0.0142  1.3452
14936TIP3   OH266222   2.290   6.433  11.838  0.1217  0.1101  0.2231
14936TIP3    H166223   2.262   6.380  11.763 -1.3485  1.2371 -0.0763
14936TIP3    H266224   2.223   6.502  11.845 -0.1399 -0.3145  2.9790
14937TIP3   OH266225   4.801   1.915   6.613 -0.2215  1.2134 -0.2631
14937TIP3    H166226   4.769   1.826   6.597  0.3525  0.9502  0.0102
14937TIP3    H266227   4.733   1.972   6.578 -1.8259  0.6983  1.8046
14938TIP3   OH266228   2.607   6.230   3.484  0.6630  0.0892 -0.0442
14938TIP3    H166229   2.546   6.220   3.411 -0.2854  1.8944  0.4423
14938TIP3    H266230   2.693   6.211   3.447 -0.0357 -1.4175 -1.0143
14939TIP3   OH266231   1.038   0.935  15.149 -0.6356 -0.0650  0.6071
14939TIP3    H166232   0.961   0.889  15.117 -1.3728  0.4287  1.6222
14939TIP3    H266233   1.003   1.007  15.202  0.4304 -1.6146  3.7106
14940TIP3   OH266234   5.202   2.330   4.960 -0.4057  0.4049 -0.3776
14940TIP3    H166235   5.265   2.340   4.888 -0.2744 -1.4769 -0.5761
14940TIP3    H266236   5.117   2.323   4.916 -0.4039 -0.0564 -0.3092
14941TIP3   OH266237   6.680   2.112  14.312  0.4839 -0.0283 -0.0247
14941TIP3    H166238   6.616   2.044  14.332  1.1042 -0.4224  0.6751
14941TIP3    H266239   6.692   2.107  14.217 -0.4526  0.0031 -0.1571
14942TIP3   OH266240   0.084   2.410   3.927 -0.2547 -0.6179 -0.1395
14942TIP3    H166241   0.009   2.445   3.976 -2.4510 -0.5303 -3.2925
14942TIP3    H266242   0.141   2.486   3.915 -2.4349  0.8629 -2.3609
14943TIP3   OH266243   5.116   0.112   2.444 -0.1280  0.4973 -0.4733
14943TIP3    H166244   5.137   0.059   2.521 -1.3467  1.4682  0.5723
14943TIP3    H266245   5.033   0.077   2.412 -1.6874  2.5351  1.0661
14944TIP3   OH266246   0.352   5.763   4.085  0.3870  0.9433  0.4435
14944TIP3    H166247   0.265   5.791   4.057  0.1250 -0.1859  0.0843
14944TIP3    H266248   0.362   5.800   4.173 -0.7362  0.5110  0.7653
14945TIP3   OH266249   6.611   0.088  14.555 -0.4718  0.7028 -0.7794
14945TIP3    H166250   6.662   0.016  14.591  0.1315  1.9383  0.9562
14945TIP3    H266251   6.589   0.060  14.466  0.5028 -1.2109 -0.4592
14946TIP3   OH266252   3.552   3.017  11.651 -0.1119 -0.1660 -1.0790
14946TIP3    H166253   3.473   3.057  11.613 -0.5023 -0.1210 -0.2531
14946TIP3    H266254   3.571   2.943  11.593 -1.2360 -0.6570 -0.8520
14947TIP3   OH266255   2.503   4.072  11.130 -0.6296  0.1184 -0.1888
14947TIP3    H166256   2.536   4.047  11.216 -0.9632  0.8106  0.1539
14947TIP3    H266257   2.532   4.003  11.071  1.8445  0.9152 -0.0101
14948TIP3   OH266258   3.019   1.374  15.271  0.9537 -0.1335  0.1349
14948TIP3    H166259   3.071   1.361  15.351  0.4501 -0.1412  0.4643
14948TIP3    H266260   2.957   1.444  15.293  0.4175 -0.5405 -0.0497
14949TIP3   OH266261   1.256   2.045  12.820 -0.1217  0.4935  0.6330
14949TIP3    H166262   1.239   2.013  12.731  1.2289  1.0416  0.1472
14949TIP3    H266263   1.245   1.968  12.876  0.3829 -0.1912 -0.1821
14950TIP3   OH266264   4.717   6.681   0.990  0.7418 -0.2389  0.5341
14950TIP3    H166265   4.709   6.774   1.010 -1.2649 -0.0839 -0.7841
14950TIP3    H266266   4.710   6.676   0.895 -0.5370 -1.8330  0.6741
14951TIP3   OH266267   5.953   6.092  13.207  0.3256  0.0694 -0.2026
14951TIP3    H166268   5.952   6.183  13.175 -1.8154  0.1390 -0.1089
14951TIP3    H266269   6.031   6.054  13.168  1.5154  2.0456  0.0698
14952TIP3   OH266270   3.384   0.738  16.182  0.4102  0.1856  0.2186
14952TIP3    H166271   3.382   0.816  16.128 -3.0152 -0.7190 -1.1989
14952TIP3    H266272   3.444   0.679  16.136 -0.2716  0.4572 -1.0461
14953TIP3   OH266273   0.616   3.508   2.516 -0.1800 -0.2142  0.5949
14953TIP3    H166274   0.540   3.508   2.458 -0.2790  2.5724  0.5838
14953TIP3    H266275   0.588   3.458   2.592 -0.8449 -1.9919 -0.7484
14954TIP3   OH266276   3.769   1.759   0.551  0.1825  0.0710  0.1802
14954TIP3    H166277   3.814   1.739   0.469  0.5682 -0.2640  0.4628
14954TIP3    H266278   3.808   1.840   0.581  1.4414 -0.7918  0.9917
14955TIP3   OH266279   1.446   5.743   4.549  0.4053 -0.4577 -0.2242
14955TIP3    H166280   1.538   5.736   4.576 -0.2039 -0.0663  2.1509
14955TIP3    H266281   1.402   5.672   4.596 -0.7919  0.4532  0.0628
14956TIP3   OH266282   6.086   1.391   1.702 -0.4570  0.1578  0.4483
14956TIP3    H166283   6.034   1.381   1.781 -2.3085 -0.8320 -0.8216
14956TIP3    H266284   6.038   1.455   1.649  0.1577 -0.0154 -0.3332
14957TIP3   OH266285   5.750   5.645  13.181 -0.3763 -0.0420  0.3417
14957TIP3    H166286   5.705   5.627  13.263 -0.9693 -0.9850 -0.1765
14957TIP3    H266287   5.764   5.740  13.182 -2.1926  0.2707  0.6249
14958TIP3   OH266288   6.096   2.246   0.666  0.0553 -0.1179 -0.2617
14958TIP3    H166289   6.118   2.245   0.759  1.9134  1.8397 -0.6165
14958TIP3    H266290   6.156   2.181   0.627 -0.4185 -0.6166 -0.1727
14959TIP3   OH266291   3.181   2.904  11.757 -0.4855 -0.2770 -0.5240
14959TIP3    H166292   3.110   2.927  11.817  0.6573  0.3864  0.6319
14959TIP3    H266293   3.196   2.983  11.705  0.0038 -0.1058 -0.1302
14960TIP3   OH266294   5.109   2.803  11.655  0.2589 -0.1588 -0.4529
14960TIP3    H166295   5.114   2.859  11.732 -0.0255 -2.8671  1.6841
14960TIP3    H266296   5.023   2.763  11.660  0.2861 -0.4969 -2.1487
14961TIP3   OH266297   3.282   4.215   4.570 -0.3753 -0.0728  0.2012
14961TIP3    H166298   3.239   4.287   4.525  2.5050  1.4549 -0.3413
14961TIP3    H266299   3.211   4.169   4.615 -2.7917  0.9359 -2.2879
14962TIP3   OH266300   4.633   0.190  13.818 -0.0562 -0.1353  0.3901
14962TIP3    H166301   4.697   0.249  13.858  3.8414 -1.6333 -2.9077
14962TIP3    H266302   4.662   0.103  13.844 -2.2790 -0.8718  0.6261
14963TIP3   OH266303   2.376   2.437  15.995  0.1602 -0.2622  0.2004
14963TIP3    H166304   2.420   2.519  15.973 -0.2432 -0.2460 -0.6239
14963TIP3    H266305   2.369   2.437  16.090 -1.1689  1.3824  0.1455
14964TIP3   OH266306   4.139   0.496  14.728 -0.7898  0.0262  0.3402
14964TIP3    H166307   4.054   0.513  14.689  0.4344 -0.3457 -2.7522
14964TIP3    H266308   4.202   0.525  14.662  1.5034 -0.4777  2.1722
14965TIP3   OH266309   1.378   2.320  13.301  0.3414 -0.0531 -0.1073
14965TIP3    H166310   1.322   2.242  13.309  1.3715 -0.7576  0.3884
14965TIP3    H266311   1.446   2.307  13.366  1.2275  0.6759 -0.8747
14966TIP3   OH266312   6.035   5.712   3.043  0.1637  0.6543 -0.0021
14966TIP3    H166313   6.054   5.637   2.986 -0.6183 -0.5348  1.2402
14966TIP3    H266314   5.944   5.735   3.023  0.7294  2.0285 -1.1675
14967TIP3   OH266315   5.690   2.593  13.179 -0.1909 -0.1225 -0.4257
14967TIP3    H166316   5.622   2.642  13.133 -0.7051 -0.5930 -0.1611
14967TIP3    H266317   5.715   2.650  13.252 -0.9845 -0.3567  0.0443
14968TIP3   OH266318   6.751   4.887   5.936  0.0640  0.4167 -0.1258
14968TIP3    H166319   6.742   4.793   5.956 -0.0822  0.6266  0.8410
14968TIP3    H266320   6.673   4.926   5.974  0.4995  1.0344  0.1392
14969TIP3   OH266321   2.033   3.516  11.875  0.4822 -0.0807 -0.2722
14969TIP3    H166322   1.976   3.546  11.946  0.1791  1.3658 -1.0730
14969TIP3    H266323   1.980   3.456  11.824  0.3119 -0.2245  0.0751
14970TIP3   OH266324   6.630   3.027   1.154 -0.1766  0.8148  0.0447
14970TIP3    H166325   6.582   3.106   1.177  1.0729  1.5085  0.3588
14970TIP3    H266326   6.717   3.040   1.192 -0.2660 -1.2096  1.1077
14971TIP3   OH266327   4.609   4.499   5.061  0.3216  0.9294  0.4033
14971TIP3    H166328   4.637   4.453   5.140  1.2353 -0.3898 -0.6387
14971TIP3    H266329   4.525   4.538   5.085 -0.5504 -1.3310  1.3713
14972TIP3   OH266330   1.218   2.395  10.898  0.4841  0.7731  0.2600
14972TIP3    H166331   1.311   2.385  10.881  0.3191  1.5816 -1.1943
14972TIP3    H266332   1.211   2.474  10.952  0.6974  0.1275  1.2805
14973TIP3   OH266333   5.295   0.422  11.188  0.2922  0.2263  0.3685
14973TIP3    H166334   5.240   0.345  11.201  1.0264  0.0561  3.4223
14973TIP3    H266335   5.263   0.486  11.252  1.0818  1.6386 -0.5889
14974TIP3   OH266336   0.310   5.803  12.207 -0.0569  0.2248  0.1185
14974TIP3    H166337   0.342   5.715  12.229  0.8221  0.5066  0.0181
14974TIP3    H266338   0.283   5.840  12.291 -3.3502 -1.2123 -0.1763
14975TIP3   OH266339   3.860   2.979  15.546 -0.1387 -0.1034  0.2493
14975TIP3    H166340   3.895   2.928  15.472 -1.3109 -0.6417  0.0540
14975TIP3    H266341   3.775   3.010  15.516 -1.4388 -1.8000  1.9797
14976TIP3   OH266342   6.016   1.935   0.949  0.4459 -0.2462  0.4795
14976TIP3    H166343   6.084   2.002   0.954 -0.2956  0.7330 -1.5953
14976TIP3    H266344   5.934   1.983   0.942 -0.5869 -1.4116  3.1355
14977TIP3   OH266345   4.824   5.246   2.029  0.0229  0.4768 -0.1036
14977TIP3    H166346   4.873   5.326   2.012  1.3573 -0.1994  0.4360
14977TIP3    H266347   4.835   5.229   2.122 -0.5091 -0.1692 -0.1462
14978TIP3   OH266348   1.116   1.886  10.548 -0.0057 -0.7249 -0.0611
14978TIP3    H166349   1.024   1.908  10.559  0.8377  1.8063  3.4253
14978TIP3    H266350   1.152   1.957  10.495  0.0798 -1.5117 -1.1017
14979TIP3   OH266351   1.763   4.285  13.808 -0.3584 -0.3685 -0.1493
14979TIP3    H166352   1.751   4.236  13.726  0.8737 -1.9458  0.5596
14979TIP3    H266353   1.675   4.288  13.847 -0.5888 -1.4438 -0.5396
14980TIP3   OH266354   5.459   3.009   5.662  0.1942 -0.2523  0.6380
14980TIP3    H166355   5.368   3.029   5.640 -0.5836 -3.7891  0.0379
14980TIP3    H266356   5.457   2.987   5.755  1.0551  2.2908  1.3316
14981TIP3   OH266357   0.699   0.958   2.261  0.4062 -0.4126  0.1927
14981TIP3    H166358   0.714   0.888   2.324 -0.3245 -0.1763  0.6337
14981TIP3    H266359   0.682   0.912   2.178  0.2484 -0.7518  0.4123
14982TIP3   OH266360   6.446   3.668   4.154  0.0675  0.7495 -0.0031
14982TIP3    H166361   6.432   3.649   4.247  0.3069  1.5160  0.1906
14982TIP3    H266362   6.530   3.626   4.133 -0.0627  0.4417  0.0807
14983TIP3   OH266363   5.683   1.049   1.255 -0.2356  0.3103 -0.1013
14983TIP3    H166364   5.743   0.980   1.283 -1.6675 -0.8755  0.1440
14983TIP3    H266365   5.724   1.087   1.177 -1.3230 -3.6260 -2.8410
14984TIP3   OH266366   0.677   2.377   0.074  0.4685 -0.6850  0.0409
14984TIP3    H166367   0.626   2.346  -0.001  1.4631 -0.0142 -0.9316
14984TIP3    H266368   0.729   2.450   0.040 -0.3364  0.7980  1.7749
14985TIP3   OH266369   1.837   3.802   2.660  0.3344  0.2423  0.0381
14985TIP3    H166370   1.922   3.813   2.617  0.9670  1.4338  1.4900
14985TIP3    H266371   1.805   3.891   2.675 -0.8092 -0.1745  0.2158
14986TIP3   OH266372   1.383   2.192   5.265  0.0582 -0.6722  0.0813
14986TIP3    H166373   1.437   2.270   5.253 -2.3671  1.3437  1.2616
14986TIP3    H266374   1.343   2.178   5.179  0.2504 -0.3752 -0.0590
14987TIP3   OH266375   0.629   5.275  12.292 -0.6259 -0.0427  0.1496
14987TIP3    H166376   0.582   5.200  12.330 -1.6972  0.0399 -0.9539
14987TIP3    H266377   0.560   5.328  12.253  0.2493  0.9430 -0.0747
14988TIP3   OH266378   1.536   4.000  16.935 -0.4220 -0.6979  0.1362
14988TIP3    H166379   1.470   3.993  17.003 -0.2896  0.0112  0.3418
14988TIP3    H266380   1.605   4.054  16.973  0.3104 -1.4771 -0.0521
14989TIP3   OH266381   2.151   6.427   1.649  0.7944  0.4097  0.1028
14989TIP3    H166382   2.120   6.344   1.686  0.7807  0.9247  1.3003
14989TIP3    H266383   2.085   6.491   1.676  1.8287  1.1575  0.9274
14990TIP3   OH266384   0.373   2.442  11.072 -0.0312 -0.0260 -0.5352
14990TIP3    H166385   0.376   2.483  11.159  1.2965  0.9203 -1.0006
14990TIP3    H266386   0.425   2.500  11.016  0.3764 -1.3926 -1.6328
14991TIP3   OH266387   1.842   3.763  12.063 -0.5838  0.5427 -0.2951
14991TIP3    H166388   1.858   3.817  12.140 -1.2042  1.1705 -0.5862
14991TIP3    H266389   1.849   3.673  12.094  1.2554  0.7761  0.0303
14992TIP3   OH266390   1.405   5.434   2.696  0.8661  0.2761  0.5338
14992TIP3    H166391   1.331   5.422   2.756  0.5964  0.3676  0.2185
14992TIP3    H266392   1.371   5.409   2.610  0.3556  2.9648 -0.1172
14993TIP3   OH266393   6.108   3.619  16.477  0.0179 -0.6336  0.3923
14993TIP3    H166394   6.101   3.606  16.571  0.7026 -0.9534  0.4027
14993TIP3    H266395   6.090   3.533  16.439  0.8118 -0.7603  0.2867
14994TIP3   OH266396   3.609   2.133  13.296  0.5500  0.1637 -0.8677
14994TIP3    H166397   3.571   2.050  13.269 -1.5694  0.5677  0.6234
14994TIP3    H266398   3.626   2.123  13.389  1.8563  0.8580 -1.0104
14995TIP3   OH266399   5.156   5.614  13.936 -0.1787  0.3582  0.4606
14995TIP3    H166400   5.240   5.661  13.931  0.2269 -0.3767  0.1290
14995TIP3    H266401   5.147   5.572  13.850  0.8372 -2.4066  1.6077
14996TIP3   OH266402   0.416   6.389  15.630  0.0117  0.1423 -0.8400
14996TIP3    H166403   0.416   6.485  15.635  0.6693  0.1420 -0.7307
14996TIP3    H266404   0.345   6.368  15.568 -0.7197  0.6524 -0.1908
14997TIP3   OH266405   1.178   0.792  14.439  0.5469 -0.4272 -0.5265
14997TIP3    H166406   1.228   0.735  14.381  0.2839 -3.4684  1.9704
14997TIP3    H266407   1.098   0.812  14.391  1.8875  0.2769 -2.5873
14998TIP3   OH266408   3.874   6.053   1.209 -0.5663 -0.0339  0.0289
14998TIP3    H166409   3.781   6.044   1.230 -0.7180  0.7242 -0.2966
14998TIP3    H266410   3.919   6.039   1.292 -1.0673  1.1896  0.5282
14999TIP3   OH266411   0.475   6.730  16.762  0.8584 -0.3923  0.3814
14999TIP3    H166412   0.519   6.803  16.719  0.4710 -0.4922 -0.1856
14999TIP3    H266413   0.526   6.653  16.736 -0.3973 -0.6861 -1.3714
15000TIP3   OH266414   0.276   3.505   1.999  0.1125  0.1849  0.2910
15000TIP3    H166415   0.192   3.460   1.996 -0.0375  0.2735  2.0029
15000TIP3    H266416   0.262   3.579   2.057  0.8550  1.4209 -1.0416
15001TIP3   OH266417   6.402   3.996  16.507 -0.2886  0.3099 -0.4291
15001TIP3    H166418   6.454   4.030  16.435 -0.7324  0.4364 -0.6951
15001TIP3    H266419   6.361   3.917  16.472 -2.1244  1.4513 -1.0118
15002TIP3   OH266420   5.189   3.806  13.820  0.0814  0.2580 -0.2455
15002TIP3    H166421   5.142   3.724  13.806 -1.0606  0.8756 -0.1490
15002TIP3    H266422   5.133   3.873  13.783  0.2892  1.1594  0.9969
15003TIP3   OH266423   1.217   6.769   1.608  0.1392  0.7107  0.1989
15003TIP3    H166424   1.124   6.752   1.594  0.1079  1.5776 -0.7500
15003TIP3    H266425   1.245   6.701   1.670 -0.8011 -0.4037 -0.5578
15004TIP3   OH266426   4.599   6.784  14.257  0.5845 -0.7802 -0.0317
15004TIP3    H166427   4.623   6.871  14.225  1.7303 -1.0456  0.0611
15004TIP3    H266428   4.516   6.797  14.302  0.9152  0.3327  0.2929
15005TIP3   OH266429   2.309   1.898  13.767  0.0347  0.7358  0.4081
15005TIP3    H166430   2.232   1.949  13.793 -0.4774 -0.1948  0.7730
15005TIP3    H266431   2.281   1.851  13.689 -0.0365 -0.1934  0.9749
15006TIP3   OH266432   4.943   5.744  10.718 -0.0006 -0.1724 -0.4849
15006TIP3    H166433   4.995   5.793  10.781  0.1732 -0.4552 -0.4080
15006TIP3    H266434   4.948   5.796  10.637 -2.4096  1.6236  0.4048
15007TIP3   OH266435   2.545   6.357  11.325 -0.0271 -0.0866 -0.2554
15007TIP3    H166436   2.603   6.282  11.340  0.9910  0.6530 -0.4177
15007TIP3    H266437   2.521   6.386  11.413 -0.6144 -0.7301 -0.1921
15008TIP3   OH266438   6.470   6.507   6.118  0.1614 -0.3716  0.1483
15008TIP3    H166439   6.411   6.432   6.109 -0.0743 -0.2489  0.6472
15008TIP3    H266440   6.478   6.520   6.213  0.5198 -0.0179  0.0719
15009TIP3   OH266441   2.679   4.839   1.072 -0.1513 -0.0029 -0.9250
15009TIP3    H166442   2.632   4.849   0.989 -1.0275  0.9529 -0.3339
15009TIP3    H266443   2.711   4.927   1.092 -0.4677 -0.1071  0.0554
15010TIP3   OH266444   0.883   0.539  15.899 -0.0085  0.0741  0.0185
15010TIP3    H166445   0.964   0.562  15.946 -0.0206  0.1523  0.0023
15010TIP3    H266446   0.813   0.575  15.953 -0.0603 -0.3939  0.2704
15011TIP3   OH266447   2.163   0.113   2.748  0.4269  0.2127  0.4231
15011TIP3    H166448   2.239   0.072   2.790  0.4607  0.2073  0.3582
15011TIP3    H266449   2.154   0.197   2.793 -0.4149 -0.3939  1.4198
15012TIP3   OH266450   4.374   5.668  14.243  0.2148  0.3947 -0.3591
15012TIP3    H166451   4.325   5.748  14.264 -0.2720  0.1586 -0.5672
15012TIP3    H266452   4.380   5.667  14.148  0.8944  0.5734 -0.3210
15013TIP3   OH266453   6.264   6.285   0.553 -0.3041 -0.0149  0.4976
15013TIP3    H166454   6.358   6.280   0.571 -0.1053  1.4694  0.0594
15013TIP3    H266455   6.254   6.367   0.503 -2.1467  1.3110  2.8090
15014TIP3   OH266456   0.089   2.156   1.971  0.4029 -0.0906 -0.5184
15014TIP3    H166457   0.067   2.069   1.937 -1.7348  0.8071 -1.6678
15014TIP3    H266458   0.045   2.160   2.056  1.8351 -0.6663  0.2739
15015TIP3   OH266459   5.668   1.478   5.983 -0.2443  0.5363 -0.3290
15015TIP3    H166460   5.690   1.520   5.901  0.1599 -0.0377 -0.5165
15015TIP3    H266461   5.752   1.451   6.021 -0.5607 -3.0849 -1.8086
15016TIP3   OH266462   5.027   5.028   3.163  0.5110  0.8662 -0.1825
15016TIP3    H166463   5.008   5.069   3.079 -0.2893 -0.4289 -0.6651
15016TIP3    H266464   4.955   4.967   3.177  2.1545 -1.1631 -0.0309
15017TIP3   OH266465   4.602   4.013  12.404  0.1330 -0.2359  0.7877
15017TIP3    H166466   4.512   3.996  12.377 -0.2736  1.0848  1.2160
15017TIP3    H266467   4.651   3.935  12.377 -0.6194  0.1095 -1.8475
15018TIP3   OH266468   4.770   0.824   0.053 -0.2211 -0.3299 -0.3936
15018TIP3    H166469   4.741   0.825  -0.038 -0.5461 -0.0012 -0.2896
15018TIP3    H266470   4.848   0.879   0.054 -0.9721  0.7696 -0.2397
15019TIP3   OH266471   2.081   1.349  16.245 -0.1988 -0.1932 -0.0407
15019TIP3    H166472   2.049   1.297  16.319 -2.0138  1.9213  0.7600
15019TIP3    H266473   2.064   1.294  16.168  0.7005 -1.9621  0.9425
15020TIP3   OH266474   3.849   1.843   3.470  0.1278  0.1541  0.8806
15020TIP3    H166475   3.814   1.803   3.390 -0.2655  1.2924  0.4692
15020TIP3    H266476   3.810   1.931   3.472 -0.7359 -0.2170  2.8824
15021TIP3   OH266477   2.873   6.704   0.253 -0.4738  0.4073  0.5351
15021TIP3    H166478   2.818   6.763   0.202 -0.8523  0.1866  0.6784
15021TIP3    H266479   2.962   6.720   0.222 -0.6034  0.8752  0.4047
15022TIP3   OH266480   3.235   4.046   3.947  0.0594 -0.1628 -0.0202
15022TIP3    H166481   3.302   4.047   4.015 -0.4021 -1.2672  0.4687
15022TIP3    H266482   3.153   4.034   3.995 -0.5721  1.6121 -0.5624
15023TIP3   OH266483   0.430   2.792   5.030  0.3331 -0.0385 -0.4798
15023TIP3    H166484   0.504   2.850   5.013  0.1670  0.7787  1.4243
15023TIP3    H266485   0.468   2.704   5.027  1.1922  0.3232 -0.4775
15024TIP3   OH266486   2.285   1.522  14.642 -0.4099 -0.0142  0.6064
15024TIP3    H166487   2.259   1.606  14.603 -3.8456 -1.4005 -0.5167
15024TIP3    H266488   2.221   1.507  14.712 -0.7130 -2.2145 -0.0612
15025TIP3   OH266489   1.087   5.063  14.993  0.8274 -0.0310 -0.0983
15025TIP3    H166490   1.128   5.102  14.916  1.7839 -0.6512  0.0894
15025TIP3    H266491   1.159   5.036  15.049  0.1639  1.3001  1.5135
15026TIP3   OH266492   6.813   1.361  12.046 -0.0586 -0.2030  0.4941
15026TIP3    H166493   6.787   1.329  12.132  0.9539 -1.1368  0.4661
15026TIP3    H266494   6.864   1.290  12.008  0.6360  0.7140 -0.3379
15027TIP3   OH266495   6.636   2.544   1.109  0.2677 -0.6986  0.2088
15027TIP3    H166496   6.618   2.614   1.047  0.7547 -0.2297  0.5847
15027TIP3    H266497   6.553   2.527   1.152  0.3545  0.2961  0.7749
15028TIP3   OH266498   4.086   0.198   0.415 -0.0425  0.4937  0.1792
15028TIP3    H166499   4.153   0.190   0.483  0.0895 -0.2978 -0.0329
15028TIP3    H266500   4.096   0.288   0.381  0.4995  0.5821  0.5689
15029TIP3   OH266501   1.188   4.825  11.311  0.7629  0.3003 -0.3412
15029TIP3    H166502   1.242   4.757  11.272 -0.5037 -0.1014 -1.4659
15029TIP3    H266503   1.182   4.800  11.404  1.0051 -0.6450 -0.5664
15030TIP3   OH266504   1.291   2.003   2.206 -0.0183  0.4811  0.6774
15030TIP3    H166505   1.260   1.976   2.120  2.3705 -1.2604  0.2751
15030TIP3    H266506   1.321   2.094   2.193  0.4420  0.1965 -0.4026
15031TIP3   OH266507   0.509   2.365  13.960  0.3801 -0.7356  0.3692
15031TIP3    H166508   0.570   2.436  13.976  1.2726 -1.1512 -1.0591
15031TIP3    H266509   0.423   2.408  13.953  0.9657  0.2868 -0.9578
15032TIP3   OH266510   0.211   0.775  12.657  0.3734 -0.1474  0.0422
15032TIP3    H166511   0.180   0.767  12.566  2.2840 -0.7882 -0.6004
15032TIP3    H266512   0.306   0.767  12.651  0.6140  0.6066  2.0406
15033TIP3   OH266513   0.936   0.516   2.506  0.1689  0.5111 -0.1219
15033TIP3    H166514   1.005   0.541   2.567  1.1383  0.1241 -1.0212
15033TIP3    H266515   0.867   0.481   2.560  2.0802 -2.4164  0.6436
15034TIP3   OH266516   0.846   0.814   5.313  0.1510 -0.2594  0.6880
15034TIP3    H166517   0.887   0.825   5.399 -0.6486  1.1231  0.9227
15034TIP3    H266518   0.777   0.750   5.327  0.1317 -0.1624  1.0397
15035TIP3   OH266519   5.780   3.929   1.448  0.1984  0.3474  0.1678
15035TIP3    H166520   5.762   4.019   1.476 -0.8533 -0.0660  0.8897
15035TIP3    H266521   5.693   3.893   1.429  0.6515 -0.3761 -0.5637
15036TIP3   OH266522   6.066   1.586   5.766 -0.3518 -0.0370  0.2284
15036TIP3    H166523   6.037   1.498   5.744  0.0803  0.1930 -1.3820
15036TIP3    H266524   6.072   1.586   5.862 -2.1837 -1.1552  0.3995
15037TIP3   OH266525   1.376   5.890   6.007  0.5684  0.1564 -0.2690
15037TIP3    H166526   1.392   5.816   5.949 -0.3896 -0.1220 -0.1950
15037TIP3    H266527   1.300   5.864   6.058  0.7426  0.8485  0.3558
15038TIP3   OH266528   0.272   3.109  16.875 -0.1764 -0.0148  0.3472
15038TIP3    H166529   0.239   3.147  16.794 -0.5254 -2.1437 -0.5794
15038TIP3    H266530   0.279   3.183  16.935 -3.0387  1.1555 -0.5862
15039TIP3   OH266531   0.995   1.949   3.409  0.4355  0.0989  0.3710
15039TIP3    H166532   1.078   1.910   3.380  1.0902  1.3159  0.5771
15039TIP3    H266533   1.017   2.038   3.435 -1.2366  1.0724 -1.2343
15040TIP3   OH266534   2.542   5.142   3.945 -0.4047 -0.3598 -0.0270
15040TIP3    H166535   2.490   5.062   3.946 -2.0094  0.5829 -1.2624
15040TIP3    H266536   2.476   5.212   3.949  0.9316  0.8929  0.6883
15041TIP3   OH266537   5.814   6.517   2.709  0.5170 -0.1281 -0.3772
15041TIP3    H166538   5.759   6.536   2.633  0.6894 -0.0959 -0.4944
15041TIP3    H266539   5.871   6.593   2.717  1.7794 -0.9178 -1.3550
15042TIP3   OH266540   2.472   3.229  12.428  0.5295 -0.3300  0.1470
15042TIP3    H166541   2.533   3.303  12.428  1.4452 -1.0478  1.4359
15042TIP3    H266542   2.522   3.157  12.387  0.1859 -0.6348  0.2585
15043TIP3   OH266543   3.459   0.219   5.153  0.4699 -0.2604  0.1341
15043TIP3    H166544   3.533   0.278   5.172 -1.4369  2.2896  0.1069
15043TIP3    H266545   3.496   0.153   5.094  2.6941  1.0217 -0.0227
15044TIP3   OH266546   5.338   5.348  13.036 -0.1239 -0.4406 -0.4073
15044TIP3    H166547   5.386   5.276  13.078 -0.7972 -1.4621 -1.3324
15044TIP3    H266548   5.392   5.371  12.960  0.6961  0.8786  0.5258
15045TIP3   OH266549   2.210   6.017  12.446 -0.0304 -0.0507 -0.6166
15045TIP3    H166550   2.256   6.047  12.368  1.1506  0.2844  0.1845
15045TIP3    H266551   2.277   5.976  12.500 -0.4872  1.1198  0.9225
15046TIP3   OH266552   0.018   6.236  14.616  0.2681 -0.8272 -0.4624
15046TIP3    H166553   0.041   6.328  14.600 -2.2410  0.0027  0.1545
15046TIP3    H266554   0.074   6.210  14.689  0.1478  0.6324  0.1891
15047TIP3   OH266555   0.201   6.820   3.098  0.2624  0.1771 -0.2362
15047TIP3    H166556   0.247   6.752   3.048 -1.1975 -1.4336  0.4850
15047TIP3    H266557   0.191   6.782   3.185 -0.0997  1.5910  0.3644
15048TIP3   OH266558   2.827   3.763  12.953  0.2290  0.0656  0.2130
15048TIP3    H166559   2.785   3.760  13.039 -0.1344 -0.1729  0.0299
15048TIP3    H266560   2.906   3.711  12.962  0.9541  1.2262  0.8064
15049TIP3   OH266561   1.621   0.725  14.542  0.1184 -0.1540 -0.4395
15049TIP3    H166562   1.677   0.656  14.506  0.1108 -0.1688 -0.4234
15049TIP3    H266563   1.533   0.687  14.541  0.3017 -0.6520  0.8497
15050TIP3   OH266564   0.298   3.352  17.017  0.4335 -0.2637  0.0607
15050TIP3    H166565   0.278   3.436  16.976  3.2783  0.5498  0.1628
15050TIP3    H266566   0.378   3.369  17.068  0.0835 -2.6061  1.5129
15051TIP3   OH266567   5.317   1.300  15.107  0.7123 -0.1175  0.3466
15051TIP3    H166568   5.305   1.276  15.015 -0.7653 -0.1011  0.5091
15051TIP3    H266569   5.327   1.217  15.153  0.5563 -0.1763  0.2753
15052TIP3   OH266570   2.092   3.525  16.711 -0.4190  0.3866 -0.2888
15052TIP3    H166571   2.054   3.603  16.671 -0.5204 -0.0713 -1.0981
15052TIP3    H266572   2.116   3.468  16.637  0.9843  0.2634  0.2271
15053TIP3   OH266573   0.422   1.601  15.241  0.1874 -0.0206 -0.5997
15053TIP3    H166574   0.364   1.677  15.232 -1.2163 -0.8802  0.5873
15053TIP3    H266575   0.444   1.577  15.152 -2.6594 -0.6154 -1.2456
15054TIP3   OH266576   2.377   2.717  12.824  0.2215  0.2950  0.3547
15054TIP3    H166577   2.317   2.681  12.759 -0.0789  0.1666  0.6995
15054TIP3    H266578   2.453   2.659  12.821 -0.6873 -1.0203  1.6472
15055TIP3   OH266579   1.407   4.283   3.840  0.2821  0.1461 -0.5759
15055TIP3    H166580   1.495   4.287   3.805 -0.2586  1.1092 -1.8788
15055TIP3    H266581   1.419   4.277   3.935  1.7505 -1.6840 -0.8147
15056TIP3   OH266582   4.834   2.366  13.759  0.1560  0.2896 -0.0602
15056TIP3    H166583   4.783   2.336  13.684 -0.4471  1.4087 -0.1163
15056TIP3    H266584   4.909   2.411  13.720  1.0624 -1.0985  0.0230
15057TIP3   OH266585   5.126   4.373   1.337 -0.3135  0.2041 -0.0157
15057TIP3    H166586   5.162   4.304   1.282 -0.4294  0.2811 -0.1879
15057TIP3    H266587   5.124   4.450   1.281  0.0970  0.4238  0.2627
15058TIP3   OH266588   3.901   2.345  12.201 -0.1595 -0.0510  0.0373
15058TIP3    H166589   3.917   2.384  12.287 -1.0979 -0.4704  0.4149
15058TIP3    H266590   3.832   2.281  12.216 -2.6881  2.0822 -1.5665
15059TIP3   OH266591   6.277   0.971  12.859 -0.8155 -0.4254  0.2710
15059TIP3    H166592   6.230   0.894  12.827 -0.0734 -0.9131  0.3256
15059TIP3    H266593   6.352   0.980  12.800 -0.4490 -0.2360  0.7518
15060TIP3   OH266594   4.497   1.088  14.236  0.2652  0.0134  0.5029
15060TIP3    H166595   4.402   1.079  14.240  0.1329  0.9935 -0.0144
15060TIP3    H266596   4.526   1.018  14.178 -0.4042  1.1293 -1.2434
15061TIP3   OH266597   4.123   3.277   3.316  0.6742  0.0493 -0.2079
15061TIP3    H166598   4.073   3.337   3.261  1.8716 -1.3767 -3.0254
15061TIP3    H266599   4.057   3.224   3.360 -0.3371  0.3252 -1.3364
15062TIP3   OH266600   1.588   6.614  11.503 -0.2237 -0.3108  0.2699
15062TIP3    H166601   1.582   6.700  11.462  0.1648 -1.9173 -3.5929
15062TIP3    H266602   1.646   6.628  11.578 -0.4247  2.8215 -0.0206
15063TIP3   OH266603   5.024   1.188   0.860  0.2666  0.6950 -0.1091
15063TIP3    H166604   5.061   1.266   0.902 -0.0460 -0.1524  1.8025
15063TIP3    H266605   5.097   1.127   0.854  0.6959  1.3348 -2.2801
15064TIP3   OH266606   2.085   0.416  14.885  0.0698  0.0480 -0.0015
15064TIP3    H166607   2.085   0.407  14.980 -0.9141  0.9384  0.1090
15064TIP3    H266608   2.093   0.510  14.870  0.8452 -0.1406 -0.8170
15065TIP3   OH266609   5.645   4.166   0.764  0.2419 -0.6718  0.6266
15065TIP3    H166610   5.652   4.259   0.746  0.7715 -0.9429 -0.7031
15065TIP3    H266611   5.716   4.148   0.826 -0.8437  0.0627  2.1512
15066TIP3   OH266612   3.824   1.981   4.165 -0.0227 -0.0497  0.6166
15066TIP3    H166613   3.774   2.036   4.225 -0.0026 -0.5173  1.0624
15066TIP3    H266614   3.838   1.900   4.212 -1.8096 -1.2577 -0.7915
15067TIP3   OH266615   5.234   2.202   3.340 -0.0848 -0.2512 -0.8125
15067TIP3    H166616   5.165   2.243   3.288 -0.2160  2.4899  1.2786
15067TIP3    H266617   5.313   2.210   3.286 -1.0113 -1.7739 -2.4738
15068TIP3   OH266618   0.334   0.351   0.599 -0.2372 -0.3752  0.2184
15068TIP3    H166619   0.317   0.271   0.647  1.5050  0.2983  2.1169
15068TIP3    H266620   0.286   0.419   0.646  0.2242  0.0558  0.0806
15069TIP3   OH266621   5.644   4.425   5.616  0.0759 -0.2734  0.0486
15069TIP3    H166622   5.697   4.489   5.663  1.0037  0.0137 -1.3309
15069TIP3    H266623   5.560   4.425   5.662  0.8951  0.0735  1.6025
15070TIP3   OH266624   6.177   4.425  13.784 -0.2010  0.0104  0.1921
15070TIP3    H166625   6.267   4.457  13.780 -0.8348  1.9950  0.4131
15070TIP3    H266626   6.153   4.432  13.877 -0.6972 -0.1502  0.0795
15071TIP3   OH266627   2.005   2.998   4.351  0.2395  0.4263  0.6016
15071TIP3    H166628   2.055   2.953   4.418  0.7908  0.7613  0.4250
15071TIP3    H266629   1.920   2.955   4.350  0.8496 -0.8033  0.2367
15072TIP3   OH266630   0.656   0.049  11.380 -0.2487  0.3586 -0.1526
15072TIP3    H166631   0.640   0.120  11.442 -1.6100 -0.1395  0.1132
15072TIP3    H266632   0.632   0.085  11.295 -0.0374  0.5099 -0.1477
15073TIP3   OH266633   5.217   1.326   4.271 -0.5261  0.0158 -0.0284
15073TIP3    H166634   5.127   1.299   4.290 -0.7156  0.6883  0.0549
15073TIP3    H266635   5.264   1.244   4.256 -1.2647 -0.3158 -0.5770
15074TIP3   OH266636   1.527   2.712  11.311  0.1294 -0.1760  0.8129
15074TIP3    H166637   1.471   2.659  11.367  0.6148  1.1871  2.7310
15074TIP3    H266638   1.616   2.685  11.334  0.3353  0.2212  0.5004
15075TIP3   OH266639   0.147   1.768  12.983  0.9060 -0.2067 -0.2544
15075TIP3    H166640   0.097   1.727  12.913  1.2577 -0.5976 -0.2763
15075TIP3    H266641   0.175   1.852  12.947 -0.2452  0.2866 -0.0324
15076TIP3   OH266642   0.990   3.603   4.712  0.6328 -0.2664  0.1188
15076TIP3    H166643   1.006   3.658   4.789  1.7785 -0.4556  0.0407
15076TIP3    H266644   0.935   3.657   4.655 -2.7883 -1.1947  2.2626
15077TIP3   OH266645   0.848   4.972   6.283 -0.1989  0.7739 -0.2874
15077TIP3    H166646   0.780   4.924   6.235 -0.8078  1.3055  0.0223
15077TIP3    H266647   0.818   5.063   6.281 -0.6927  0.6970  1.8091
15078TIP3   OH266648   3.404   5.491   0.233 -0.0902 -0.1937  0.5060
15078TIP3    H166649   3.396   5.401   0.201  0.3478 -0.2950  0.6758
15078TIP3    H266650   3.324   5.535   0.203  0.0641 -0.4309 -0.2518
15079TIP3   OH266651   4.156   4.632  14.924 -0.1936  0.5082 -0.2832
15079TIP3    H166652   4.195   4.633  14.836 -1.4373 -0.4855 -0.8668
15079TIP3    H266653   4.224   4.593  14.979  0.5931  1.1246 -0.7795
15080TIP3   OH266654   3.177   3.272  15.929  0.1798 -0.2131  0.1390
15080TIP3    H166655   3.100   3.325  15.948  0.6317  1.1226 -1.5836
15080TIP3    H266656   3.250   3.333  15.935  0.7691 -0.7454 -1.3111
15081TIP3   OH266657   2.897   0.846  16.103 -0.5212  0.4311 -0.1975
15081TIP3    H166658   2.871   0.754  16.106 -1.9506  0.7398  4.4688
15081TIP3    H266659   2.988   0.846  16.133 -0.3219  0.5526 -0.7820
15082TIP3   OH266660   5.831   3.566   5.051  0.4793  0.0259 -0.5021
15082TIP3    H166661   5.903   3.543   5.109 -0.5301 -0.0824  0.7574
15082TIP3    H266662   5.812   3.486   5.002  0.9523 -0.0566 -0.5482
15083TIP3   OH266663   1.122   0.598  16.828 -0.1926  0.1646 -0.4847
15083TIP3    H166664   1.121   0.692  16.808 -0.3517  0.1208 -0.6948
15083TIP3    H266665   1.187   0.562  16.768 -1.8799 -0.2302 -2.2013
15084TIP3   OH266666   5.564   2.368  13.284  0.0942  0.0205  0.2495
15084TIP3    H166667   5.615   2.442  13.249 -0.0994 -0.8294 -2.0289
15084TIP3    H266668   5.508   2.341  13.211 -1.2909 -1.1317  1.6615
15085TIP3   OH266669   6.301   2.057   0.639 -0.2850  0.0762  0.3640
15085TIP3    H166670   6.337   2.108   0.566 -1.2101  1.0291  0.5277
15085TIP3    H266671   6.369   2.058   0.706  0.4060 -0.4434 -0.3204
15086TIP3   OH266672   1.689   1.954  14.627 -0.5262 -0.6087  0.0202
15086TIP3    H166673   1.739   1.962  14.708  0.7681  3.4573 -0.9442
15086TIP3    H266674   1.734   1.885  14.578  3.2163  1.5699 -0.0047
15087TIP3   OH266675   3.616   0.288  16.880  0.1703 -0.1231 -0.1747
15087TIP3    H166676   3.696   0.331  16.910  0.1455  0.4076 -0.8327
15087TIP3    H266677   3.577   0.251  16.959  0.9768 -0.2381  0.1771
15088TIP3   OH266678   3.482   5.730   3.608  0.1547  0.4904 -0.1663
15088TIP3    H166679   3.511   5.745   3.698  0.2865  1.2763 -0.3309
15088TIP3    H266680   3.495   5.814   3.564 -0.1939  0.2006 -0.8451
15089TIP3   OH266681   1.691   0.045  15.792 -0.2260  0.2872  0.5414
15089TIP3    H166682   1.631   0.089  15.733 -0.6869 -0.6013  0.3354
15089TIP3    H266683   1.772   0.034  15.741 -0.7657 -0.8814 -0.1118
15090TIP3   OH266684   1.512   4.948  15.797 -0.0528  0.3644  0.3211
15090TIP3    H166685   1.537   4.906  15.879  0.2948 -0.9793 -0.4477
15090TIP3    H266686   1.427   4.910  15.776 -1.0259  2.0673  0.9567
15091TIP3   OH266687   5.572   2.613  15.943 -0.3432 -0.7290 -0.2943
15091TIP3    H166688   5.643   2.620  15.880  0.2512 -3.0387 -0.0049
15091TIP3    H266689   5.616   2.596  16.026 -1.1635  1.0133  0.5464
15092TIP3   OH266690   4.560   3.299   5.142 -0.1477 -0.6514 -0.0694
15092TIP3    H166691   4.529   3.377   5.096 -0.4306 -1.6915 -1.7236
15092TIP3    H266692   4.572   3.234   5.073  0.3532 -1.9899  1.2358
15093TIP3   OH266693   0.279   1.807  16.547  0.3973 -0.0143  0.8854
15093TIP3    H166694   0.283   1.712  16.536  0.8414  0.0570  0.3740
15093TIP3    H266695   0.366   1.831  16.581  1.0512  0.4460 -1.0128
15094TIP3   OH266696   4.693   1.303  15.312 -1.2119  0.5356  0.5272
15094TIP3    H166697   4.639   1.225  15.298 -1.2780  0.8898 -1.5018
15094TIP3    H266698   4.782   1.276  15.291 -0.9473  0.5661  1.5599
15095TIP3   OH266699   2.794   5.029   0.650 -0.0890  0.7488  0.5419
15095TIP3    H166700   2.779   4.983   0.732 -0.1889  1.0638  0.7012
15095TIP3    H266701   2.713   5.017   0.600  0.2141  0.0038  0.2192
15096TIP3   OH266702   2.874   2.683   1.381 -0.0392  0.3744  0.6901
15096TIP3    H166703   2.858   2.594   1.349 -1.2919  0.4349  1.0952
15096TIP3    H266704   2.856   2.739   1.306  1.5486  0.2754  0.1873
15097TIP3   OH266705   3.230   3.956  13.476  0.8862 -0.5043  0.6890
15097TIP3    H166706   3.306   4.011  13.458  0.0692  1.1165  1.9208
15097TIP3    H266707   3.210   3.914  13.392 -0.0945  3.2095 -1.1086
15098TIP3   OH266708   3.351   4.429  13.758  0.2276  0.4789  0.7526
15098TIP3    H166709   3.321   4.388  13.839 -0.5747  0.2961  0.3757
15098TIP3    H266710   3.302   4.384  13.689  0.3205  1.1679  0.2282
15099TIP3   OH266711   2.546   1.652  14.517  0.1114  0.1841 -0.0184
15099TIP3    H166712   2.599   1.654  14.596 -0.2697  0.7483  0.2346
15099TIP3    H266713   2.516   1.562  14.509  2.0585 -0.4384 -0.8272
15100TIP3   OH266714   4.411   1.477   6.685 -0.3093  0.0546  0.7583
15100TIP3    H166715   4.374   1.565   6.677  0.4716  0.4170  1.0282
15100TIP3    H266716   4.482   1.487   6.749  0.0918 -0.6719  0.4311
15101TIP3   OH266717   3.680   0.266   4.475 -0.1477 -0.2546 -0.3101
15101TIP3    H166718   3.618   0.238   4.542  1.2000 -2.0777  0.2516
15101TIP3    H266719   3.686   0.190   4.416  1.4553 -0.0649 -0.4116
15102TIP3   OH266720   5.830   0.945  14.496  0.5422  0.9798  0.1147
15102TIP3    H166721   5.766   1.001  14.539 -0.3835 -0.6909  1.0126
15102TIP3    H266722   5.800   0.940  14.405 -0.1883  0.7997  0.3614
15103TIP3   OH266723   6.354   0.286   3.877  0.3913 -0.4224  0.5258
15103TIP3    H166724   6.310   0.208   3.909  0.0575 -1.3352 -1.8944
15103TIP3    H266725   6.398   0.257   3.796  2.3629  1.3259  0.8794
15104TIP3   OH266726   5.266   1.882   2.944  0.0492 -0.4111 -0.0684
15104TIP3    H166727   5.188   1.903   2.893  0.2329  1.2877  0.2714
15104TIP3    H266728   5.327   1.954   2.925  0.4697 -0.2019  1.8203
15105TIP3   OH266729   2.159   6.700  11.842  0.1911  0.1749 -0.0922
15105TIP3    H166730   2.079   6.671  11.885  0.9609 -3.5376 -0.7982
15105TIP3    H266731   2.214   6.732  11.913  0.4373 -3.3576  1.5258
15106TIP3   OH266732   0.192   5.045  15.602  0.5116 -0.1807  0.3723
15106TIP3    H166733   0.223   4.983  15.668  1.2563  1.1982  1.3450
15106TIP3    H266734   0.259   5.113  15.599 -1.1162  1.4859  0.5684
15107TIP3   OH266735   2.768   4.137   2.650 -0.4974 -0.7950 -0.5053
15107TIP3    H166736   2.827   4.133   2.725  0.0732 -1.8620 -0.9971
15107TIP3    H266737   2.798   4.214   2.600 -0.7738 -0.1833  0.2502
15108TIP3   OH266738   6.702   6.612   1.610  0.4607  0.0689 -0.0811
15108TIP3    H166739   6.701   6.545   1.679  0.3242  0.5388  0.3796
15108TIP3    H266740   6.745   6.569   1.536 -0.4694 -0.8390 -0.1145
15109TIP3   OH266741   4.587   3.753   0.676  0.4084  0.6549  0.5819
15109TIP3    H166742   4.622   3.842   0.673  1.3512  0.2922  0.3011
15109TIP3    H266743   4.631   3.708   0.604  0.0341 -0.0667  0.7991
15110TIP3   OH266744   3.855   5.061  13.868 -0.4979 -0.2480  0.1395
15110TIP3    H166745   3.917   5.002  13.912  1.0939  0.7461 -0.6873
15110TIP3    H266746   3.908   5.137  13.842 -1.8807  0.2446 -1.4103
15111TIP3   OH266747   3.625   0.538  14.100  0.0785  0.1814  0.2111
15111TIP3    H166748   3.571   0.605  14.059 -2.2216 -1.0085  1.1070
15111TIP3    H266749   3.646   0.478  14.029 -4.7510 -2.4455  0.5329
15112TIP3   OH266750   5.995   3.318  13.515 -0.2907 -0.2098 -0.0527
15112TIP3    H166751   6.060   3.319  13.585  0.6957 -0.6627 -0.9207
15112TIP3    H266752   5.974   3.225  13.503  0.1273 -0.2143 -0.8448
15113TIP3   OH266753   3.562   2.825   1.163 -0.2976 -0.2465  0.4354
15113TIP3    H166754   3.543   2.890   1.231  2.1925  0.8317  0.1840
15113TIP3    H266755   3.543   2.869   1.081  1.9949  0.4683  0.2331
15114TIP3   OH266756   6.615   6.420  14.787 -0.7521  1.0782 -0.6366
15114TIP3    H166757   6.639   6.421  14.695 -1.0422  0.4966 -0.7205
15114TIP3    H266758   6.638   6.332  14.817 -0.2167  1.4152 -0.0360
15115TIP3   OH266759   0.230   4.479  15.802  0.1183 -0.0274 -0.2190
15115TIP3    H166760   0.187   4.486  15.887 -1.7037 -1.1789 -0.9613
15115TIP3    H266761   0.223   4.386  15.780 -0.0458  0.3538 -1.9030
15116TIP3   OH266762   3.244   6.604   1.190  0.5616  0.2450  0.2693
15116TIP3    H166763   3.186   6.673   1.159  0.4163 -0.4182 -1.0167
15116TIP3    H266764   3.322   6.649   1.222  0.2268  1.0192 -0.0020
15117TIP3   OH266765   5.515   1.790  13.913  0.0325 -0.0034  0.2465
15117TIP3    H166766   5.450   1.748  13.857  0.2933 -3.2443  2.0741
15117TIP3    H266767   5.465   1.853  13.965 -0.7103  0.9358 -1.5164
15118TIP3   OH266768   4.568   3.172   4.902  0.1020  0.4249  0.2723
15118TIP3    H166769   4.522   3.088   4.905 -2.0315  1.5074  0.0335
15118TIP3    H266770   4.641   3.158   4.842 -0.2739 -1.2161  0.1537
15119TIP3   OH266771   5.310   0.184   3.418  0.0517 -0.4402 -0.7663
15119TIP3    H166772   5.355   0.101   3.397 -0.4642 -0.4045 -2.1345
15119TIP3    H266773   5.229   0.157   3.461  1.2220 -0.5119  1.5564
15120TIP3   OH266774   0.725   1.552  16.963 -0.4692 -0.3527 -0.2548
15120TIP3    H166775   0.728   1.647  16.969  0.1809 -0.3242 -0.9150
15120TIP3    H266776   0.732   1.534  16.869 -1.0276 -1.0402 -0.1757
15121TIP3   OH266777   4.356   6.382   1.070 -0.7937 -0.2538 -0.2796
15121TIP3    H166778   4.413   6.307   1.053 -0.7402  0.1124 -1.8173
15121TIP3    H266779   4.276   6.343   1.105 -0.0210 -0.8510  0.9163
15122TIP3   OH266780   6.159   5.258  10.705 -0.2734 -0.6378 -0.2075
15122TIP3    H166781   6.092   5.195  10.680 -0.4731 -0.7415  0.5463
15122TIP3    H266782   6.171   5.244  10.799  1.7908 -1.5486 -0.5490
15123TIP3   OH266783   2.639   6.170   5.924  0.8975 -0.4477  0.2073
15123TIP3    H166784   2.613   6.257   5.955  1.0238 -0.2338 -0.2819
15123TIP3    H266785   2.561   6.136   5.880  0.4663 -1.0658  1.3961
15124TIP3   OH266786   5.798   6.715  10.542 -0.0008 -0.0806 -0.5152
15124TIP3    H166787   5.854   6.746  10.470 -0.5874 -0.3201 -1.0781
15124TIP3    H266788   5.824   6.770  10.616  2.1408 -1.2528 -0.3016
15125TIP3   OH266789   6.641   5.693   3.831 -0.3645 -0.1201 -0.2762
15125TIP3    H166790   6.728   5.653   3.824 -0.3332  0.0583 -0.9498
15125TIP3    H266791   6.590   5.654   3.760 -0.7137  0.0896 -0.1441
15126TIP3   OH266792   2.769   2.688   0.091  0.1239  0.4021 -0.4504
15126TIP3    H166793   2.814   2.665   0.173 -0.8082 -0.9464 -0.2900
15126TIP3    H266794   2.714   2.763   0.115 -0.0834  0.0705  0.1613
15127TIP3   OH266795   4.411   2.821   0.802  0.5183  0.4571 -0.0837
15127TIP3    H166796   4.390   2.731   0.824  1.1919  0.3913  0.3113
15127TIP3    H266797   4.389   2.829   0.709  1.2092 -0.3439 -0.3257
15128TIP3   OH266798   1.763   4.078   3.514  0.4000  0.2341  0.0089
15128TIP3    H166799   1.836   4.139   3.521 -0.4812  1.2068  1.2378
15128TIP3    H266800   1.726   4.094   3.427  2.6257 -1.5033 -1.3818
15129TIP3   OH266801   1.413   0.128   1.729  0.9050 -0.2121  0.1943
15129TIP3    H166802   1.329   0.084   1.719  0.1093  1.0511  1.0435
15129TIP3    H266803   1.478   0.061   1.710 -0.2616 -1.6791  1.2165
15130TIP3   OH266804   2.956   3.603  15.432  0.1043 -0.0966 -0.3150
15130TIP3    H166805   3.032   3.573  15.383 -0.8315 -1.8393 -0.7770
15130TIP3    H266806   2.944   3.694  15.405  0.1495 -0.7323 -2.6897
15131TIP3   OH266807   5.618   6.680  14.634  0.0441  0.0672 -0.0962
15131TIP3    H166808   5.538   6.634  14.607 -0.0083  0.1775 -0.1314
15131TIP3    H266809   5.657   6.623  14.701 -0.3635  0.2834  0.3332
15132TIP3   OH266810   1.137   1.316   0.466  0.1874  0.6257 -0.6152
15132TIP3    H166811   1.156   1.401   0.506 -0.2547  0.9503 -1.0755
15132TIP3    H266812   1.044   1.321   0.443 -0.0080 -0.2288 -0.0670
15133TIP3   OH266813   5.575   5.833   1.793 -0.0862  0.4442 -0.8054
15133TIP3    H166814   5.577   5.751   1.842  1.7402  1.5317  1.0736
15133TIP3    H266815   5.647   5.885   1.829 -2.9722  4.1205  0.2920
15134TIP3   OH266816   4.075   2.998   3.034  0.1626 -0.5020 -1.0941
15134TIP3    H166817   4.112   3.083   3.011  0.6519  0.0219  1.3150
15134TIP3    H266818   4.117   2.975   3.117 -2.4621 -1.4367  0.0990
15135TIP3   OH266819   0.827   1.004  16.957  0.2113  0.0496 -0.3267
15135TIP3    H166820   0.783   1.000  17.041 -0.3858 -1.2443 -0.6897
15135TIP3    H266821   0.767   0.961  16.896  0.4375  1.3361 -1.5075
15136TIP3   OH266822   4.353   6.788   2.127  0.4376  0.4349 -0.3994
15136TIP3    H166823   4.291   6.808   2.057  0.1479  0.2653 -0.1910
15136TIP3    H266824   4.366   6.694   2.121  0.5899  0.4539 -0.3713
15137TIP3   OH266825   6.188   3.971   2.604 -0.2020  0.0529 -0.1990
15137TIP3    H166826   6.190   4.056   2.648  2.0135  0.3552 -0.7794
15137TIP3    H266827   6.272   3.930   2.625 -0.6586 -1.4047 -1.0476
15138TIP3   OH266828   0.520   2.443  16.327 -0.0554  0.5329 -0.1146
15138TIP3    H166829   0.511   2.529  16.286 -0.6379  0.9025  0.7587
15138TIP3    H266830   0.452   2.389  16.286 -0.6673  0.9141  0.3758
15139TIP3   OH266831   6.616   5.879   4.433  0.0620 -0.3602 -0.1691
15139TIP3    H166832   6.679   5.827   4.482 -1.4403 -0.7482  1.4588
15139TIP3    H266833   6.602   5.830   4.352  1.2487 -0.6480 -0.2159
15140TIP3   OH266834   4.122   3.389  15.994 -0.1976  0.0782 -0.1334
15140TIP3    H166835   4.207   3.409  16.032 -1.2378  2.1331  1.2868
15140TIP3    H266836   4.126   3.426  15.906  0.7388 -0.8756 -0.5172
15141TIP3   OH266837   1.271   6.646  15.993  0.1269  0.2962 -0.1486
15141TIP3    H166838   1.339   6.618  16.055 -1.0457 -2.5287 -0.0089
15141TIP3    H266839   1.202   6.682  16.048  0.0723 -0.0115 -0.0153
15142TIP3   OH266840   1.098   0.480  14.336 -0.0007  0.3481  0.2378
15142TIP3    H166841   1.026   0.524  14.381 -0.1326 -0.6458  1.0513
15142TIP3    H266842   1.171   0.484  14.398 -0.3904 -1.6532  0.8961
15143TIP3   OH266843   3.914   0.362  11.368  0.3265 -0.2341 -0.5715
15143TIP3    H166844   3.897   0.450  11.402 -0.5641  0.1470 -1.9223
15143TIP3    H266845   3.837   0.312  11.393  0.2768 -0.3000 -0.8532
15144TIP3   OH266846   3.384   5.409  15.505 -0.1346 -0.2529 -0.0075
15144TIP3    H166847   3.374   5.496  15.468  0.2703 -0.7328 -1.3095
15144TIP3    H266848   3.460   5.372  15.460 -0.5201 -1.3983  0.2341
15145TIP3   OH266849   1.772   0.083  15.372  0.1041 -0.1323 -0.4648
15145TIP3    H166850   1.756   0.100  15.279  1.3057 -0.7384 -0.8034
15145TIP3    H266851   1.707   0.016  15.395 -0.1459 -0.0391 -0.8956
15146TIP3   OH266852   0.584   0.794  15.351 -0.6688 -0.1730 -0.0297
15146TIP3    H166853   0.527   0.725  15.316 -2.5335  1.4044 -0.2603
15146TIP3    H266854   0.553   0.874  15.309  1.1026  0.9065  0.6126
15147TIP3   OH266855   3.656   6.510  16.713 -0.2622  0.6502 -0.0160
15147TIP3    H166856   3.626   6.533  16.800  0.7123 -0.3185  0.5950
15147TIP3    H266857   3.666   6.594  16.668 -0.2126  1.1934  0.9964
15148TIP3   OH266858   4.814   6.152   6.608  0.0422 -0.5085  0.6507
15148TIP3    H166859   4.787   6.203   6.531  1.3246 -1.0219 -0.1823
15148TIP3    H266860   4.861   6.077   6.571 -0.5692 -1.5414  1.9011
15149TIP3   OH266861   2.628   4.886  12.222  0.1281  0.1402  0.4659
15149TIP3    H166862   2.676   4.868  12.142  2.4323 -0.1391  1.8353
15149TIP3    H266863   2.594   4.975  12.210  0.9826  0.3452 -0.5404
15150TIP3   OH266864   4.605   5.976  13.463 -0.1029  1.0984  0.6306
15150TIP3    H166865   4.692   5.939  13.480  0.4264  1.7988 -0.5043
15150TIP3    H266866   4.561   5.909  13.410 -0.2081  0.8132  1.0713
15151TIP3   OH266867   2.718   4.042   4.385  0.0409  0.3638 -0.1596
15151TIP3    H166868   2.734   3.953   4.353  0.5404  0.5064 -0.3127
15151TIP3    H266869   2.658   4.080   4.322 -1.0347 -0.2188  0.4828
15152TIP3   OH266870   4.562   6.300  14.295  0.7454 -0.3886 -0.3348
15152TIP3    H166871   4.543   6.385  14.257 -2.5793 -0.9784 -0.3099
15152TIP3    H266872   4.579   6.243  14.219 -1.3147 -0.5609 -0.7319
15153TIP3   OH266873   1.282   5.034   4.649  0.3188  0.2099 -0.2568
15153TIP3    H166874   1.197   5.060   4.614 -0.6659 -1.8060  0.4701
15153TIP3    H266875   1.278   5.056   4.741  1.4120  1.9587 -0.5873
15154TIP3   OH266876   0.859   0.719  16.287 -0.0727 -0.2591 -0.6262
15154TIP3    H166877   0.921   0.770  16.235 -1.8819 -0.3389 -3.0013
15154TIP3    H266878   0.812   0.785  16.339 -1.1661  0.4107 -2.3556
15155TIP3   OH266879   5.056   4.070  11.791 -0.0594  0.4397  0.0383
15155TIP3    H166880   5.089   4.031  11.872 -2.1977 -0.4069  0.5709
15155TIP3    H266881   5.106   4.028  11.722 -0.0237 -0.7959  0.7925
15156TIP3   OH266882   6.673   4.809  10.831  0.5293 -0.2332 -0.3682
15156TIP3    H166883   6.696   4.723  10.863  3.3856  0.4183 -0.4317
15156TIP3    H266884   6.659   4.862  10.910 -0.3979 -0.5283 -0.3247
15157TIP3   OH266885   2.915   2.051  12.598  0.0476 -0.3011 -0.5420
15157TIP3    H166886   2.912   1.956  12.603  0.3644 -0.3904 -1.6963
15157TIP3    H266887   2.992   2.076  12.650 -1.3511 -0.4656  1.7256
15158TIP3   OH266888   2.915   1.204  11.113  0.4667 -0.1339 -0.7686
15158TIP3    H166889   2.988   1.233  11.059  0.0772 -0.6063 -1.5615
15158TIP3    H266890   2.862   1.150  11.055  0.1518 -0.8347  0.1510
15159TIP3   OH266891   5.208   0.723   1.949 -0.3629 -0.1975  0.1305
15159TIP3    H166892   5.196   0.643   1.898 -0.1096 -1.0874  1.4035
15159TIP3    H266893   5.148   0.714   2.023  0.5575  0.1916  0.9547
15160TIP3   OH266894   6.165   3.618  11.827 -0.5969  0.2205  0.3905
15160TIP3    H166895   6.090   3.593  11.882 -1.2524  0.5211 -0.3522
15160TIP3    H266896   6.143   3.706  11.796  0.1591  0.3867  0.3104
15161TIP3   OH266897   4.550   2.906   1.676  0.4788  0.1446 -0.0119
15161TIP3    H166898   4.607   2.886   1.602 -0.5232  0.7321 -0.9720
15161TIP3    H266899   4.498   2.980   1.646  1.2881  1.5753  1.9538
15162TIP3   OH266900   1.227   0.862  12.478  0.0056 -0.0785  0.8452
15162TIP3    H166901   1.287   0.892  12.411 -0.1887 -0.9456  0.2591
15162TIP3    H266902   1.220   0.768  12.463 -1.7450  0.0472  0.6785
15163TIP3   OH266903   6.531   0.730   3.069 -0.1647 -0.6139  0.0585
15163TIP3    H166904   6.547   0.824   3.072 -1.0627 -0.1564 -3.9128
15163TIP3    H266905   6.617   0.692   3.052 -0.0026 -0.3872  0.3635
15164TIP3   OH266906   5.289   0.581   3.481 -0.2136 -0.0545 -0.1262
15164TIP3    H166907   5.260   0.667   3.512  0.7487  0.1339  0.2803
15164TIP3    H266908   5.314   0.596   3.390 -1.2031 -0.1841 -0.4331
15165TIP3   OH266909   0.240   5.749   3.706 -0.3674  0.2140 -0.0389
15165TIP3    H166910   0.184   5.819   3.740 -0.8663  0.7560 -1.8252
15165TIP3    H266911   0.197   5.668   3.734 -0.1546  0.5939  1.4757
15166TIP3   OH266912   3.598   6.344  11.169  0.8011 -0.3382  0.0884
15166TIP3    H166913   3.567   6.255  11.187  0.9241 -0.4059 -0.0365
15166TIP3    H266914   3.553   6.368  11.088 -0.3863  0.2682  0.8881
15167TIP3   OH266915   1.419   6.796  15.698 -0.4420  0.3168  0.4931
15167TIP3    H166916   1.428   6.862  15.629 -0.8260 -0.6693 -0.5410
15167TIP3    H266917   1.325   6.778  15.701 -0.3614 -0.0441  0.8944
15168TIP3   OH266918   2.140   3.549  14.821 -0.3290  0.2551  0.1971
15168TIP3    H166919   2.232   3.522  14.821 -0.3869  0.0168  1.2034
15168TIP3    H266920   2.099   3.492  14.756 -0.0936 -0.8623  0.9917
15169TIP3   OH266921   4.784   1.734  11.830 -0.1444  0.2202 -0.2644
15169TIP3    H166922   4.717   1.802  11.839 -0.8912 -0.6560  1.1222
15169TIP3    H266923   4.850   1.758  11.896 -0.3889 -0.3599  0.1970
15170TIP3   OH266924   3.128   6.448  13.904 -0.2939 -0.6405  0.6807
15170TIP3    H166925   3.119   6.484  13.992 -0.9299 -2.0456  1.2188
15170TIP3    H266926   3.054   6.483  13.856  0.7865  1.2173  0.2726
15171TIP3   OH266927   5.365   4.542   2.026  0.6439  0.7248 -0.4448
15171TIP3    H166928   5.289   4.551   1.970  1.0370  4.0522 -0.6632
15171TIP3    H266929   5.437   4.521   1.967  0.4165  0.5868 -0.6700
15172TIP3   OH266930   4.330   5.069  15.670 -0.0326  0.1834  0.1666
15172TIP3    H166931   4.365   5.030  15.590  0.2137 -0.6702  0.6781
15172TIP3    H266932   4.236   5.049  15.667 -0.1097  0.5778 -0.1416
15173TIP3   OH266933   1.607   5.158   2.435 -0.0176  0.3101 -0.6529
15173TIP3    H166934   1.514   5.137   2.425 -0.4199  1.1772  0.8020
15173TIP3    H266935   1.631   5.118   2.519  0.8338  0.3603 -0.8676
15174TIP3   OH266936   6.653   0.383  15.003  0.3508  0.3338  0.2318
15174TIP3    H166937   6.600   0.326  14.947 -1.2226  1.0027  0.9759
15174TIP3    H266938   6.743   0.352  14.990 -0.2666 -1.2476 -0.6237
15175TIP3   OH266939   0.101   1.472   4.974 -0.1632 -0.3579  0.6041
15175TIP3    H166940   0.033   1.470   5.042 -1.8705  0.4511 -0.9917
15175TIP3    H266941   0.057   1.439   4.896  0.4533  2.6555 -1.1605
15176TIP3   OH266942   1.016   3.688  16.375  0.2044 -0.0510  0.2529
15176TIP3    H166943   0.950   3.622  16.350  0.5703 -0.1687 -0.4405
15176TIP3    H266944   1.088   3.674  16.313  0.1097  1.2930 -0.1982
15177TIP3   OH266945   2.592   0.090   0.323  0.1537  1.0926  0.4435
15177TIP3    H166946   2.505   0.067   0.356  0.3963  1.4875  1.4045
15177TIP3    H266947   2.628   0.147   0.391  1.9177 -0.6219  1.0173
15178TIP3   OH266948   4.383   6.809  14.427 -0.0658  0.5073  0.9271
15178TIP3    H166949   4.320   6.874  14.396 -0.0326  0.3704  0.5714
15178TIP3    H266950   4.331   6.748  14.480 -0.6381 -0.7579 -0.9962
15179TIP3   OH266951   5.545   6.386  14.790  0.4247  0.5439  0.1794
15179TIP3    H166952   5.578   6.397  14.700  0.7462  1.8550  0.4315
15179TIP3    H266953   5.479   6.455  14.799 -0.4418 -0.3169  0.5839
15180TIP3   OH266954   4.226   2.547   2.467  0.1344 -0.4468  0.1674
15180TIP3    H166955   4.292   2.597   2.516 -0.8855 -0.2649  1.3961
15180TIP3    H266956   4.151   2.605   2.461 -0.1036 -0.8379 -0.8027
15181TIP3   OH266957   6.742   2.971   3.860  0.1023 -0.9177  0.8435
15181TIP3    H166958   6.682   2.903   3.890  0.6634 -2.0176 -0.4128
15181TIP3    H266959   6.739   2.965   3.765 -0.9207  1.8100  0.6056
15182TIP3   OH266960   0.143   6.054  14.487  0.4459  0.3186 -0.1608
15182TIP3    H166961   0.089   6.132  14.501 -0.7186 -0.4387 -0.3157
15182TIP3    H266962   0.109   5.991  14.550  0.5821 -0.4615 -0.8634
15183TIP3   OH266963   4.446   5.940   2.422  0.4227 -0.6301 -0.3901
15183TIP3    H166964   4.453   5.917   2.515 -0.2444  1.8291  0.3399
15183TIP3    H266965   4.501   6.018   2.412 -1.8123  0.9447 -1.3232
15184TIP3   OH266966   4.717   2.801  12.886 -0.2887 -0.4029  0.0438
15184TIP3    H166967   4.720   2.894  12.862 -0.0220 -0.2652  0.5976
15184TIP3    H266968   4.742   2.755  12.806 -0.4505  0.0021 -0.2422
15185TIP3   OH266969   5.577   5.201  14.012  0.2388  1.0458  0.3470
15185TIP3    H166970   5.581   5.224  13.919 -0.0326  0.8372  0.2811
15185TIP3    H266971   5.616   5.113  14.016 -0.7482  0.5860  0.2569
15186TIP3   OH266972   1.421   5.239  11.210  0.1958  0.5404 -0.4295
15186TIP3    H166973   1.335   5.202  11.230 -0.1804  0.5283 -1.9309
15186TIP3    H266974   1.453   5.186  11.137  2.9160 -1.4959  2.0333
15187TIP3   OH266975   2.622   2.061   2.221  0.2281 -0.4402 -0.6323
15187TIP3    H166976   2.559   2.100   2.161  2.7123  0.5286 -2.8051
15187TIP3    H266977   2.636   1.972   2.187 -0.1340 -0.7334 -0.0206
15188TIP3   OH266978   5.866   3.945  14.635 -0.3907  0.3981 -0.0830
15188TIP3    H166979   5.899   4.034  14.621 -1.8610  1.1016  0.6412
15188TIP3    H266980   5.793   3.936  14.574 -0.2288 -0.3399 -0.1803
15189TIP3   OH266981   6.249   6.618   2.268 -0.3457  0.3855 -0.6083
15189TIP3    H166982   6.241   6.667   2.186 -2.4603  1.5553  0.2206
15189TIP3    H266983   6.175   6.647   2.321  1.7484  0.8635  2.3640
15190TIP3   OH266984   2.318   5.851   2.577 -0.0995 -0.0272 -0.2865
15190TIP3    H166985   2.391   5.904   2.545  0.3549  0.7332  1.8024
15190TIP3    H266986   2.315   5.870   2.671 -2.7459 -0.3404 -0.2374
15191TIP3   OH266987   5.024   5.461   0.487  0.3243 -0.1216 -0.1929
15191TIP3    H166988   4.999   5.422   0.571 -1.3429  1.6526  0.2134
15191TIP3    H266989   5.091   5.525   0.510 -1.8748  2.1740  0.2827
15192TIP3   OH266990   2.063   5.783   3.723  0.3372 -0.6339 -0.1824
15192TIP3    H166991   2.073   5.688   3.729  1.2404 -0.5710 -0.5786
15192TIP3    H266992   2.063   5.813   3.814  1.7310 -0.8679 -0.0820
15193TIP3   OH266993   1.461   3.256  12.224 -0.4859  0.5092 -0.0183
15193TIP3    H166994   1.459   3.340  12.177 -1.4058  0.3091 -0.3553
15193TIP3    H266995   1.542   3.215  12.196 -0.5782  0.7971 -0.7461
15194TIP3   OH266996   3.194   0.797  14.034 -0.5540 -0.0506  0.0598
15194TIP3    H166997   3.160   0.735  13.969  1.9882  0.2405 -1.7025
15194TIP3    H266998   3.209   0.744  14.112 -2.4760 -0.6754  0.0594
15195TIP3   OH266999   6.815   4.848  15.543 -0.1196 -0.2579  0.2748
15195TIP3    H167000   6.884   4.826  15.606 -0.9579 -0.2319  1.2197
15195TIP3    H267001   6.734   4.840  15.592 -0.6587  2.0390 -0.1408
15196TIP3   OH267002   5.327   2.355   3.636  0.0241  0.0669  0.2740
15196TIP3    H167003   5.237   2.327   3.621 -0.1442  1.6102 -2.1367
15196TIP3    H267004   5.327   2.449   3.617  2.0955  0.1542  0.4118
15197TIP3   OH267005   5.067   6.160   6.501  0.0981 -0.2957 -0.1092
15197TIP3    H167006   4.979   6.183   6.471  0.0184 -0.7901 -0.2632
15197TIP3    H267007   5.091   6.230   6.562 -0.8942 -0.8028  0.9026
15198TIP3   OH267008   1.702   5.817   2.551  0.1348 -0.2197  0.0102
15198TIP3    H167009   1.635   5.865   2.501 -0.6010 -0.8154  0.3898
15198TIP3    H267010   1.656   5.790   2.631  0.9433 -0.3349  0.4374
15199TIP3   OH267011   0.031   4.593  15.344 -0.5490 -0.5006  0.1042
15199TIP3    H167012  -0.013   4.640  15.415  0.1500 -0.6892  0.6711
15199TIP3    H267013   0.038   4.503  15.375  1.8302 -0.1228  0.8228
15200TIP3   OH267014   5.769   4.006   3.125 -0.4975  0.3481 -0.3952
15200TIP3    H167015   5.820   3.983   3.047 -0.4870  3.2419 -1.3654
15200TIP3    H267016   5.834   4.027   3.192 -0.4843 -0.3237 -0.1938
15201TIP3   OH267017   5.966   0.345   1.291 -0.4206  0.3001  0.6883
15201TIP3    H167018   5.904   0.371   1.359 -1.3234  1.3360 -0.4673
15201TIP3    H267019   5.910   0.315   1.219  0.4126  1.0204 -0.2835
15202TIP3   OH267020   6.746   3.383   2.921  0.3185  0.1274 -0.6462
15202TIP3    H167021   6.656   3.390   2.953  0.1386 -1.5187 -0.7145
15202TIP3    H267022   6.780   3.303   2.962  1.8725  0.8980 -0.3531
15203TIP3   OH267023   0.219   3.875  16.499 -0.0731 -0.3615  0.4614
15203TIP3    H167024   0.170   3.927  16.436 -0.2670 -0.3472  0.6264
15203TIP3    H267025   0.302   3.921  16.509  0.3097 -0.8218 -0.4394
15204TIP3   OH267026   5.145   2.112   3.571  0.0096 -0.3333 -0.1455
15204TIP3    H167027   5.222   2.081   3.618  0.2482 -0.3161 -0.5226
15204TIP3    H267028   5.175   2.124   3.481 -0.2504  0.3614 -0.1424
15205TIP3   OH267029   5.827   4.442  11.494 -0.4601  0.5787  0.0837
15205TIP3    H167030   5.790   4.368  11.445  3.7690 -1.0271 -1.0959
15205TIP3    H267031   5.829   4.514  11.431  2.0938 -0.5883 -1.3274
15206TIP3   OH267032   1.629   5.483  10.819  0.5374 -0.6481  0.0877
15206TIP3    H167033   1.689   5.457  10.749 -0.5704 -0.8369 -0.8162
15206TIP3    H267034   1.578   5.555  10.781  0.3186 -0.3613  0.9075
15207TIP3   OH267035   6.579   6.670  14.093 -0.1966 -0.3589 -0.4073
15207TIP3    H167036   6.557   6.746  14.039 -0.1500  1.9674  2.5826
15207TIP3    H267037   6.519   6.675  14.168  1.5680 -1.7167  1.2107
15208TIP3   OH267038   5.398   1.203  12.634 -0.0267  0.1567  0.0684
15208TIP3    H167039   5.304   1.197  12.653 -0.0039 -0.6727 -0.0388
15208TIP3    H267040   5.402   1.250  12.550 -0.4587 -1.3390 -0.8241
15209TIP3   OH267041   3.342   3.497  16.006 -0.5502  0.1539 -0.4131
15209TIP3    H167042   3.354   3.588  16.034 -0.8273  0.4194 -1.1161
15209TIP3    H267043   3.420   3.452  16.037 -0.5087  0.5844  0.1303
15210TIP3   OH267044   1.074   5.657  16.565 -0.0357 -0.1116  0.4702
15210TIP3    H167045   0.981   5.678  16.566  0.0029  0.0614  0.4792
15210TIP3    H267046   1.078   5.563  16.586 -0.2173 -0.1563  0.3075
15211TIP3   OH267047   4.189   1.979  14.087  0.1064 -0.3755 -0.1016
15211TIP3    H167048   4.197   1.946  13.998 -2.1707  1.9903 -1.3161
15211TIP3    H267049   4.120   1.924  14.126 -0.0098 -0.4025 -0.3415
15212TIP3   OH267050   5.627   5.753   5.371 -0.5228  0.5983 -0.5750
15212TIP3    H167051   5.619   5.734   5.277  1.0966  2.3329 -1.1261
15212TIP3    H267052   5.721   5.762   5.385 -0.5228 -1.8809  1.7683
15213TIP3   OH267053   6.386   6.755   0.668 -0.4637 -0.4548 -0.5425
15213TIP3    H167054   6.315   6.818   0.680 -0.7119 -0.6771 -0.8102
15213TIP3    H267055   6.440   6.764   0.746 -0.0726  0.6175 -0.9221
15214TIP3   OH267056   1.254   4.736  11.844 -0.3602  0.2965  0.0474
15214TIP3    H167057   1.253   4.821  11.798  0.0136  0.6315  0.6412
15214TIP3    H267058   1.257   4.760  11.937  2.0682 -0.3452  0.1817
15215TIP3   OH267059   2.242   6.445   5.243  0.7498  0.0370 -0.0498
15215TIP3    H167060   2.230   6.530   5.199 -0.0243 -0.1625 -0.2410
15215TIP3    H267061   2.331   6.419   5.221  1.0284  0.8376  0.0735
15216TIP3   OH267062   2.998   1.077   3.122  0.4472 -0.2428 -0.6974
15216TIP3    H167063   3.017   1.048   3.212  1.0488  0.6845 -0.5131
15216TIP3    H267064   3.027   1.168   3.120 -2.1409  0.6522 -1.0269
15217TIP3   OH267065   3.396   6.067   5.321  0.4567 -0.5937  0.3879
15217TIP3    H167066   3.391   6.091   5.413 -0.7218 -1.1026  0.4754
15217TIP3    H267067   3.322   6.008   5.307 -0.1766  0.4807 -1.1872
15218TIP3   OH267068   1.847   2.498   1.450 -0.3613  0.0463 -0.5479
15218TIP3    H167069   1.755   2.510   1.426 -0.2324  0.9672 -0.5967
15218TIP3    H267070   1.882   2.440   1.381 -1.2431 -1.5398  0.2670
15219TIP3   OH267071   0.088   4.795   2.839 -0.3647 -0.0580 -0.4464
15219TIP3    H167072   0.132   4.868   2.883  2.7264 -0.3260 -2.7301
15219TIP3    H267073   0.021   4.766   2.901  1.1225  1.9620  2.3404
15220TIP3   OH267074   1.713   2.369  15.435  0.0653  0.1409  0.5143
15220TIP3    H167075   1.659   2.439  15.397 -1.6669 -0.9756  0.8146
15220TIP3    H267076   1.791   2.367  15.381 -0.5814  1.2299 -0.5029
15221TIP3   OH267077   2.893   6.116  11.185 -0.6481 -0.1736  0.0343
15221TIP3    H167078   2.831   6.049  11.157 -0.4319 -0.4638  0.2341
15221TIP3    H267079   2.947   6.133  11.107 -0.9772  0.0791 -0.1383
15222TIP3   OH267080   1.834   0.614  16.329  0.0178  0.2730 -0.4619
15222TIP3    H167081   1.794   0.688  16.375 -0.9437 -0.2465 -0.4184
15222TIP3    H267082   1.888   0.654  16.261 -0.4284  1.0137 -0.3941
15223TIP3   OH267083   1.630   5.719   3.333  0.3069  0.5624  0.5130
15223TIP3    H167084   1.625   5.801   3.383 -0.8666  0.8310 -0.0072
15223TIP3    H267085   1.580   5.657   3.385  1.0156  0.2259  0.7990
15224TIP3   OH267086   4.589   2.506   5.674 -0.0942 -0.3268 -0.3929
15224TIP3    H167087   4.597   2.505   5.579 -0.3729  0.4628 -0.4331
15224TIP3    H267088   4.679   2.509   5.706 -0.0185  0.9966 -0.6755
15225TIP3   OH267089   6.169   4.451  11.988  0.4731 -0.0601 -0.1423
15225TIP3    H167090   6.214   4.518  11.935  0.4391 -0.7190 -1.0241
15225TIP3    H267091   6.166   4.374  11.931 -1.6781 -0.0714 -0.0790
15226TIP3   OH267092   5.058   5.367   5.646  0.3500  0.2323  0.0189
15226TIP3    H167093   5.032   5.436   5.707  0.0586 -0.8177  1.1216
15226TIP3    H267094   4.990   5.368   5.579  0.6101  1.3266 -0.2363
15227TIP3   OH267095   6.092   3.487   6.573  0.4573 -0.3683 -0.1519
15227TIP3    H167096   6.102   3.391   6.568  0.4648 -0.3923  0.3318
15227TIP3    H267097   6.166   3.516   6.626 -1.3337 -0.4270  2.5608
15228TIP3   OH267098   5.474   3.529   0.478 -0.0906 -0.7236  0.3540
15228TIP3    H167099   5.482   3.435   0.463  0.9158 -0.7559  0.9501
15228TIP3    H267100   5.527   3.569   0.409 -1.1623 -0.5465 -0.3811
15229TIP3   OH267101   5.746   4.627   5.770  0.1259 -0.0560 -0.0470
15229TIP3    H167102   5.820   4.674   5.732  1.7697 -0.6072  2.2365
15229TIP3    H267103   5.708   4.689   5.832 -0.6621 -0.1531 -0.4287
15230TIP3   OH267104   0.158   3.583   1.059 -0.2752 -0.4257 -0.7301
15230TIP3    H167105   0.122   3.498   1.033  0.3272 -0.6411 -0.8705
15230TIP3    H267106   0.152   3.637   0.980 -1.1868 -0.1466 -0.4879
15231TIP3   OH267107   3.998   6.719   3.533 -0.0909 -0.2079  0.6495
15231TIP3    H167108   4.014   6.625   3.544  2.2897  0.0871  0.4119
15231TIP3    H267109   3.994   6.753   3.622 -2.7041 -0.7014  0.7953
15232TIP3   OH267110   2.912   4.538   5.188  0.2767  0.1867  0.0843
15232TIP3    H167111   2.854   4.566   5.259  1.3078  0.5905  0.7862
15232TIP3    H267112   2.969   4.472   5.229 -0.6980 -1.3905 -0.9916
15233TIP3   OH267113   5.855   5.936  12.480  0.3426 -0.5757 -0.1059
15233TIP3    H167114   5.879   5.969  12.566  3.3691 -0.9359 -0.6962
15233TIP3    H267115   5.938   5.907  12.442 -0.9410 -0.7622 -3.0076
15234TIP3   OH267116   3.725   5.363   5.311 -0.3410  0.8201  0.0352
15234TIP3    H167117   3.647   5.360   5.256 -0.7423  0.4497  0.6187
15234TIP3    H267118   3.692   5.374   5.400  0.1698 -1.3031  0.5347
15235TIP3   OH267119   1.598   4.724  12.796 -0.4554 -0.1925 -0.1600
15235TIP3    H167120   1.605   4.668  12.873 -0.0068 -0.1700 -0.1799
15235TIP3    H267121   1.517   4.773  12.809 -0.7488 -0.7014 -0.0460
15236TIP3   OH267122   1.461   4.310   4.112  0.7967 -0.5165  0.4104
15236TIP3    H167123   1.551   4.280   4.125  0.5028 -1.0114  1.4458
15236TIP3    H267124   1.469   4.402   4.088  1.5008  0.0600  2.6788
15237TIP3   OH267125   1.616   6.097   0.310 -0.7496  0.1527  0.3015
15237TIP3    H167126   1.702   6.058   0.327 -0.7541 -1.2820 -2.3871
15237TIP3    H267127   1.636   6.182   0.270 -0.4989 -0.3432 -0.6856
15238TIP3   OH267128   3.416   2.858  11.187 -0.1408 -0.1039  0.5400
15238TIP3    H167129   3.452   2.811  11.113 -0.9698 -1.6296  1.0717
15238TIP3    H267130   3.488   2.914  11.217  0.3006  0.3031 -1.1766
15239TIP3   OH267131   5.466   5.514  11.115  0.2495  0.0850 -0.0628
15239TIP3    H167132   5.466   5.505  11.210  1.1416 -1.5006 -0.1754
15239TIP3    H267133   5.553   5.485  11.088  0.2227  1.0718 -1.3330
15240TIP3   OH267134   0.798   3.302   3.977 -0.4137  0.0394  0.3048
15240TIP3    H167135   0.763   3.234   3.919 -2.1467 -0.1491  1.4910
15240TIP3    H267136   0.887   3.316   3.946 -0.4915 -1.7257 -0.8936
15241TIP3   OH267137   4.805   2.536   4.669  0.4725  0.3337 -0.1113
15241TIP3    H167138   4.858   2.579   4.603 -3.1186  3.1526 -1.5122
15241TIP3    H267139   4.752   2.473   4.620 -1.8688  2.1016 -0.0435
15242TIP3   OH267140   4.217   5.485   3.193 -0.1133 -0.2747 -0.3550
15242TIP3    H167141   4.223   5.579   3.212  2.8032 -0.4237 -0.0504
15242TIP3    H267142   4.246   5.477   3.102 -3.0252 -0.7074 -1.3637
15243TIP3   OH267143   6.707   2.211  11.119 -0.9154 -0.1058 -0.2145
15243TIP3    H167144   6.631   2.257  11.083 -1.5880 -0.8453  0.2406
15243TIP3    H267145   6.768   2.206  11.045 -1.3137  0.4657 -0.5955
15244TIP3   OH267146   3.785   5.739   0.661  0.2588 -0.6480  0.4043
15244TIP3    H167147   3.868   5.732   0.612 -0.1258  0.3677 -0.4430
15244TIP3    H267148   3.725   5.680   0.615  0.8580 -2.5351  1.8989
15245TIP3   OH267149   4.467   2.208  16.842  0.8158  0.2945  0.1490
15245TIP3    H167150   4.402   2.149  16.804  1.5723 -0.8773  0.6415
15245TIP3    H267151   4.422   2.248  16.916 -0.0080  1.0839 -0.7408
15246TIP3   OH267152   1.944   2.395  15.272 -0.4294  0.1202 -0.0327
15246TIP3    H167153   1.961   2.325  15.210 -1.5370  0.1872 -0.4423
15246TIP3    H267154   2.010   2.383  15.341 -0.9483 -1.6884  0.2079
15247TIP3   OH267155   3.718   3.737   0.987  0.2939  0.3800 -0.2395
15247TIP3    H167156   3.647   3.709   1.043  1.7272 -1.0037  0.9664
15247TIP3    H267157   3.699   3.698   0.902 -0.7111  0.6054 -0.1326
15248TIP3   OH267158   1.611   1.483   3.830  0.2777 -0.5240  0.5435
15248TIP3    H167159   1.590   1.575   3.813 -0.8425 -0.7022  0.8727
15248TIP3    H267160   1.652   1.484   3.917 -1.6610 -0.5519  1.4966
15249TIP3   OH267161   1.594   1.271  12.397 -0.0727 -0.7202  0.1660
15249TIP3    H167162   1.622   1.344  12.451  0.4749 -0.2121 -0.7646
15249TIP3    H267163   1.499   1.271  12.402 -0.0430 -0.4462  0.8015
15250TIP3   OH267164   3.187   5.924   5.276 -0.4466 -0.1676 -0.3607
15250TIP3    H167165   3.157   5.945   5.364  1.2918  0.1497  0.1893
15250TIP3    H267166   3.150   5.837   5.258  0.1210 -0.7547  1.1528
15251TIP3   OH267167   6.162   2.232  13.339 -0.1163  0.3222  0.6834
15251TIP3    H167168   6.163   2.141  13.368  0.0276  0.6184  1.6496
15251TIP3    H267169   6.175   2.227  13.244 -2.3460 -0.7825  0.3651
15252TIP3   OH267170   1.500   1.660   1.087  0.1921  0.0190 -0.3904
15252TIP3    H167171   1.579   1.681   1.137 -0.6280 -2.1021  2.0309
15252TIP3    H267172   1.446   1.738   1.094  1.3216  0.8353 -0.5242
15253TIP3   OH267173   5.483   5.775  13.469  0.1034  0.0971 -0.5608
15253TIP3    H167174   5.402   5.766  13.519  1.3636  0.7194  1.7561
15253TIP3    H267175   5.459   5.827  13.393 -0.9628  3.9166  2.1126
15254TIP3   OH267176   1.307   4.005   5.315  0.3063 -0.3902  0.0424
15254TIP3    H167177   1.289   4.095   5.288  1.7291  0.3109  1.3199
15254TIP3    H267178   1.339   3.962   5.235  1.1974  0.7105 -0.2149
15255TIP3   OH267179   1.504   5.820   2.103 -0.4642 -0.0787  0.6395
15255TIP3    H167180   1.512   5.899   2.051 -0.1159 -0.5929 -0.1137
15255TIP3    H267181   1.585   5.772   2.087 -1.2188 -1.2034  0.0279
15256TIP3   OH267182   4.013   0.437   6.592  0.5857  0.4811  0.7038
15256TIP3    H167183   4.050   0.492   6.662 -1.0058 -1.3599  3.1428
15256TIP3    H267184   3.931   0.480   6.569  0.6736  0.6009  0.6120
15257TIP3   OH267185   1.256   0.413  15.092 -0.0959  0.3136 -0.0401
15257TIP3    H167186   1.226   0.504  15.091 -1.3249 -0.0759 -0.3628
15257TIP3    H267187   1.203   0.371  15.159  0.3203 -0.2201 -0.0360
15258TIP3   OH267188   6.220   2.917   1.180 -0.4290 -0.4217 -0.3379
15258TIP3    H167189   6.232   2.966   1.261 -1.0036  0.4121 -0.7374
15258TIP3    H267190   6.244   2.979   1.111 -0.5413 -0.9182 -0.8336
15259TIP3   OH267191   6.268   1.895  14.023  0.0759  0.1273  0.2660
15259TIP3    H167192   6.269   1.954  14.099 -0.3749  1.3906 -0.6718
15259TIP3    H267193   6.184   1.911  13.981 -0.9933 -2.7180  1.0884
15260TIP3   OH267194   4.368   2.155  11.032 -0.1448 -0.0489 -0.0464
15260TIP3    H167195   4.396   2.078  10.981 -0.2094  0.5477 -1.0174
15260TIP3    H267196   4.449   2.197  11.059 -0.1091 -0.5342  0.6123
15261TIP3   OH267197   1.590   5.632   5.270 -0.0718  0.2534  0.8756
15261TIP3    H167198   1.564   5.604   5.358  0.8883  1.8182  1.6973
15261TIP3    H267199   1.686   5.632   5.272  0.0754 -2.0989 -1.0103
15262TIP3   OH267200   2.033   3.168   6.446 -0.5653  0.3731 -0.6503
15262TIP3    H167201   2.093   3.218   6.391  1.1965  0.0753  0.9087
15262TIP3    H267202   1.984   3.113   6.385  0.6712  0.6928 -1.9806
15263TIP3   OH267203   6.105   0.537  15.300 -0.1050  0.4632 -0.2377
15263TIP3    H167204   6.115   0.452  15.345 -0.2503 -0.0487 -1.1484
15263TIP3    H267205   6.012   0.558  15.310  0.0459  0.8120  0.4939
15264TIP3   OH267206   5.789   1.200   1.004  0.1632 -0.1228 -0.3758
15264TIP3    H167207   5.804   1.281   0.956  0.5346  1.1633  1.7992
15264TIP3    H267208   5.876   1.164   1.020  0.0796 -0.2731 -0.2454
15265TIP3   OH267209   1.684   1.801   1.326 -0.4004 -0.9148  0.1951
15265TIP3    H167210   1.605   1.803   1.380 -0.6958 -0.9191 -0.2354
15265TIP3    H267211   1.674   1.875   1.265  1.3562  1.0656  2.1320
15266TIP3   OH267212   6.477   6.469   1.301 -0.1884  1.4202  0.7744
15266TIP3    H167213   6.439   6.555   1.284  1.4380  1.6318 -2.6981
15266TIP3    H267214   6.551   6.487   1.358 -0.3542  2.2290  0.7469
15267TIP3   OH267215   3.855   1.348   2.632 -0.0302 -0.1331 -0.2076
15267TIP3    H167216   3.893   1.260   2.634 -1.3970 -0.7559  1.4045
15267TIP3    H267217   3.863   1.375   2.541 -2.0839 -3.1489 -1.4820
15268TIP3   OH267218   2.834   2.934   3.161 -0.1624  0.0444  0.0059
15268TIP3    H167219   2.899   2.993   3.200  1.5483 -1.0000 -1.1390
15268TIP3    H267220   2.756   2.944   3.217  1.0390  1.1670  1.5735
15269TIP3   OH267221   0.693   5.265   4.178 -0.5935  0.3908 -0.5195
15269TIP3    H167222   0.675   5.357   4.198  4.5983  1.6086  0.1020
15269TIP3    H267223   0.666   5.255   4.087 -2.0633  2.2471 -0.3483
15270TIP3   OH267224   4.285   3.895   0.549 -0.5768  0.0679  0.0501
15270TIP3    H167225   4.277   3.871   0.641  1.2934 -0.0012  0.2300
15270TIP3    H267226   4.331   3.979   0.550 -1.8006  0.7738 -0.7887
15271TIP3   OH267227   6.127   5.490  10.556 -0.2081  0.4054  0.4753
15271TIP3    H167228   6.149   5.423  10.620  0.1352 -0.1286 -0.1894
15271TIP3    H267229   6.198   5.553  10.562  0.3742 -0.1745 -0.0907
15272TIP3   OH267230   6.129   5.124   1.579 -0.4835 -1.0783 -0.0764
15272TIP3    H167231   6.119   5.054   1.645  0.1920  1.0453  2.4436
15272TIP3    H267232   6.045   5.171   1.582 -0.3810 -0.8606 -0.6221
15273TIP3   OH267233   0.500   2.391  13.521 -0.1030  0.1255  0.1145
15273TIP3    H167234   0.529   2.300  13.534 -0.5173  0.0636  0.6540
15273TIP3    H267235   0.569   2.444  13.561 -0.2280  0.0172  0.4791
15274TIP3   OH267236   1.329   0.261  16.433 -0.3596 -0.1966 -0.0895
15274TIP3    H167237   1.362   0.338  16.479 -0.4723 -0.4476  0.4220
15274TIP3    H267238   1.290   0.207  16.502 -1.4017 -0.1342 -0.6043
15275TIP3   OH267239   2.294   5.458  15.574  0.0738  0.6134 -0.5432
15275TIP3    H167240   2.376   5.505  15.562  0.2445  0.0856 -1.5672
15275TIP3    H267241   2.253   5.457  15.487 -0.5983  0.1184 -0.2358
15276TIP3   OH267242   3.171   3.475  15.224 -0.3935 -0.1763  0.0085
15276TIP3    H167243   3.226   3.527  15.165  0.1507 -1.1753 -0.3895
15276TIP3    H267244   3.085   3.474  15.182 -0.3301  0.1511 -0.1328
15277TIP3   OH267245   4.780   2.792   5.665 -0.0170 -0.5699  0.1892
15277TIP3    H167246   4.811   2.713   5.620  1.4657 -0.1380  0.3894
15277TIP3    H267247   4.860   2.836   5.694 -0.6777  2.0901 -1.6974
15278TIP3   OH267248   2.292   3.755   0.620 -0.1877 -0.4877 -0.0152
15278TIP3    H167249   2.313   3.681   0.677 -0.9015  0.6071  1.7624
15278TIP3    H267250   2.198   3.748   0.605 -0.1829 -0.1722 -0.1953
15279TIP3   OH267251   2.491   0.536   1.338 -0.2783  0.2812  0.6052
15279TIP3    H167252   2.450   0.518   1.254 -0.0220 -0.0902  0.5576
15279TIP3    H267253   2.420   0.571   1.392 -0.4833  0.3482  0.2918
15280TIP3   OH267254   4.254   3.154   5.768  0.0371 -0.0236 -0.2914
15280TIP3    H167255   4.209   3.192   5.844  0.7078  0.0473  0.0790
15280TIP3    H267256   4.268   3.228   5.709 -0.3960 -0.0602 -0.4430
15281TIP3   OH267257   0.483   3.307   4.171 -0.2027  0.5699 -0.0774
15281TIP3    H167258   0.568   3.352   4.180  0.2594 -0.0697 -1.0637
15281TIP3    H267259   0.425   3.353   4.233  0.7927  1.1724  0.4374
15282TIP3   OH267260   4.300   4.537   0.736  0.2525 -0.1771  0.0096
15282TIP3    H167261   4.216   4.584   0.730  0.0855 -0.1429  2.0513
15282TIP3    H267262   4.344   4.558   0.653 -1.5647  0.1339 -0.9429
15283TIP3   OH267263   2.926   4.273  15.868 -0.1592  0.8069 -0.4831
15283TIP3    H167264   2.900   4.182  15.851 -1.2192  1.0946 -0.4465
15283TIP3    H267265   2.965   4.303  15.786 -0.6851  0.6274 -0.7980
15284TIP3   OH267266   4.284   3.778  12.459 -0.2157  0.5582 -0.3143
15284TIP3    H167267   4.323   3.768  12.545 -0.9097  1.9209  0.1890
15284TIP3    H267268   4.208   3.721  12.460  1.7758 -2.3317 -1.3982
15285TIP3   OH267269   0.579   1.797  11.006  0.3537  0.6057 -0.7853
15285TIP3    H167270   0.524   1.785  10.928 -1.8106  0.6460  0.6488
15285TIP3    H267271   0.646   1.729  10.999  0.1867  0.5709 -2.6215
15286TIP3   OH267272   5.076   6.621  14.375  0.3683  0.3273 -0.2082
15286TIP3    H167273   5.005   6.646  14.316  0.2216  0.9244  0.2174
15286TIP3    H267274   5.155   6.658  14.335  0.1543  1.4751  0.4099
15287TIP3   OH267275   1.426   5.990  13.574 -0.0756  0.3920  0.4583
15287TIP3    H167276   1.384   5.904  13.567 -0.0472  0.5021 -4.2826
15287TIP3    H267277   1.354   6.052  13.577 -0.1424  0.3022  0.7025
15288TIP3   OH267278   1.757   5.602   5.650 -0.4437 -0.1674  0.6502
15288TIP3    H167279   1.690   5.596   5.718 -0.1673 -0.4201  0.9055
15288TIP3    H267280   1.833   5.557   5.688 -1.0098 -2.4587 -0.7113
15289TIP3   OH267281   5.838   2.825   3.106 -0.0923 -0.3257  0.6270
15289TIP3    H167282   5.759   2.842   3.157 -0.5211 -0.2315 -0.0611
15289TIP3    H267283   5.828   2.734   3.076 -0.4440  0.0154 -0.3256
15290TIP3   OH267284   0.916   6.791   3.402 -0.5326 -0.3803  0.3834
15290TIP3    H167285   0.948   6.703   3.424  4.0237  0.4402 -1.8202
15290TIP3    H267286   0.965   6.850   3.460 -1.5706  0.8563  0.0537
15291TIP3   OH267287   1.576   3.577  11.451 -0.0867 -0.6760  0.0903
15291TIP3    H167288   1.508   3.645  11.452 -0.0890 -0.6412 -1.1258
15291TIP3    H267289   1.653   3.619  11.490 -0.1997 -0.0841 -0.3145
15292TIP3   OH267290   3.508   5.557  14.282  0.2832  0.2333  0.1707
15292TIP3    H167291   3.583   5.498  14.274  3.2349  3.3549  2.0563
15292TIP3    H267292   3.528   5.630  14.224 -2.2894  0.3784 -0.6545
15293TIP3   OH267293   2.666   0.263   0.520  0.0689 -0.0792  0.6827
15293TIP3    H167294   2.695   0.353   0.507 -0.3242  0.1981  1.6243
15293TIP3    H267295   2.722   0.230   0.591 -0.8284 -0.0421  1.4314
15294TIP3   OH267296   6.046   3.793  13.154  0.2101 -0.4309  0.5561
15294TIP3    H167297   5.990   3.870  13.162  1.5848  0.5875  0.8145
15294TIP3    H267298   6.120   3.810  13.213  2.0466 -0.5496 -1.5648
15295TIP3   OH267299   6.056   5.202  11.074 -0.0120  0.2430 -0.1347
15295TIP3    H167300   6.031   5.261  11.145 -0.1558 -0.8417  0.7309
15295TIP3    H267301   5.982   5.204  11.013 -0.9136 -0.5987  0.9005
15296TIP3   OH267302   4.962   6.690   3.665 -0.2946  0.2749  0.1398
15296TIP3    H167303   4.967   6.766   3.608 -2.1762  1.1982  1.1174
15296TIP3    H267304   4.873   6.692   3.700  0.3207 -1.0840  1.9323
15297TIP3   OH267305   3.513   6.141  12.654  0.4159 -0.1556 -0.7537
15297TIP3    H167306   3.574   6.136  12.727  0.1044 -0.2013 -0.4949
15297TIP3    H267307   3.482   6.051  12.643 -1.0203  0.1818  0.3344
15298TIP3   OH267308   3.324   0.687  12.485 -0.0798 -0.2335 -0.0458
15298TIP3    H167309   3.364   0.770  12.510 -0.2097 -0.0743 -0.3581
15298TIP3    H267310   3.339   0.630  12.560  0.6633 -0.1561 -0.1327
15299TIP3   OH267311   4.179   5.525  13.337  0.0709  0.1113  0.3984
15299TIP3    H167312   4.121   5.497  13.266  0.4692 -0.0507  0.1362
15299TIP3    H267313   4.200   5.444  13.384  0.7754  0.0374 -0.0269
15300TIP3   OH267314   1.742   6.734  16.617  0.6681 -0.0285 -0.4729
15300TIP3    H167315   1.796   6.687  16.681 -0.6791 -0.5785  0.3047
15300TIP3    H267316   1.735   6.822  16.653  1.2550  0.1258 -0.7195
15301TIP3   OH267317   3.141   2.633   1.281 -0.2745 -0.6685  0.4027
15301TIP3    H167318   3.059   2.608   1.323  0.9335 -1.4599  2.4318
15301TIP3    H267319   3.182   2.550   1.256 -1.1252 -0.2461 -2.9546
15302TIP3   OH267320   2.314   0.453  11.471  0.4752 -0.3474 -0.1234
15302TIP3    H167321   2.257   0.521  11.434  0.3734  0.5486  1.5893
15302TIP3    H267322   2.402   0.479  11.443  0.2410 -0.8604 -1.4446
15303TIP3   OH267323   5.215   1.502   3.308 -0.6050 -0.3083 -0.5765
15303TIP3    H167324   5.254   1.587   3.287 -0.1534 -0.3851 -0.0609
15303TIP3    H267325   5.289   1.443   3.321 -0.9062 -0.6834 -0.5190
15304TIP3   OH267326   5.213   3.970   5.890 -0.0832 -0.7993  0.5370
15304TIP3    H167327   5.270   4.025   5.944 -2.0073  0.6028  1.2464
15304TIP3    H267328   5.133   3.961   5.941 -1.3311 -0.8719 -1.3338
15305TIP3   OH267329   1.187   5.115  11.281 -0.7701 -0.4296  0.1577
15305TIP3    H167330   1.102   5.125  11.237 -1.5798 -0.4897  1.6646
15305TIP3    H267331   1.190   5.023  11.308  0.6778 -0.9687 -1.6117
15306TIP3   OH267332   1.902   2.325  14.820  0.0216  0.0020  0.2441
15306TIP3    H167333   1.912   2.276  14.901 -1.7213 -0.2555  0.3457
15306TIP3    H267334   1.808   2.337  14.811  0.3130  2.3940 -0.3515
15307TIP3   OH267335   6.300   5.165   0.296  0.0378  0.3252 -0.1477
15307TIP3    H167336   6.248   5.085   0.291 -0.2336  0.4195  0.8590
15307TIP3    H267337   6.303   5.199   0.207  1.7178 -1.7763 -0.9805
15308TIP3   OH267338   1.039   0.339  15.736  0.4807 -0.2743  0.5186
15308TIP3    H167339   0.978   0.397  15.781 -0.6343 -0.2399 -0.9549
15308TIP3    H267340   1.123   0.354  15.779  0.3150  2.6763 -0.0063
15309TIP3   OH267341   0.309   6.343   5.866  0.2479 -0.0072 -0.2928
15309TIP3    H167342   0.366   6.346   5.942 -0.4661 -1.2241  0.3201
15309TIP3    H267343   0.360   6.383   5.796  1.3300  0.1368  0.5585
15310TIP3   OH267344   1.480   4.827  10.758 -0.4417  0.4828  0.1592
15310TIP3    H167345   1.568   4.798  10.733 -1.1875 -0.3043 -1.6687
15310TIP3    H267346   1.462   4.781  10.840  1.5074  2.0393  1.5747
15311TIP3   OH267347   3.119   0.622   5.030  0.3869 -0.8555  0.2383
15311TIP3    H167348   3.024   0.637   5.032  0.4384 -0.5828  1.0015
15311TIP3    H267349   3.153   0.679   5.098  0.9325 -2.1185  1.0465
15312TIP3   OH267350   0.341   0.441  11.457  0.1651  0.1933  0.6811
15312TIP3    H167351   0.359   0.368  11.399 -0.1847 -0.9277  1.9341
15312TIP3    H267352   0.400   0.510  11.428  1.7420 -1.1607  0.5503
15313TIP3   OH267353   1.677   6.364   0.254 -0.5013 -0.3430 -0.6279
15313TIP3    H167354   1.756   6.416   0.259 -0.6824 -0.0903 -0.3610
15313TIP3    H267355   1.624   6.393   0.328 -1.5567  0.6773 -1.7379
15314TIP3   OH267356   2.071   3.036  16.142  0.5366 -0.0082 -0.8923
15314TIP3    H167357   2.060   2.943  16.124  0.8751 -0.3013  0.3343
15314TIP3    H267358   1.992   3.061  16.189  0.8238  0.1158 -0.4681
15315TIP3   OH267359   4.986   3.684  11.075  0.4119  0.1705 -0.2924
15315TIP3    H167360   4.930   3.734  11.017 -0.5371  0.8711  1.1546
15315TIP3    H267361   5.054   3.746  11.102  0.3264  0.1308  0.0227
15316TIP3   OH267362   5.387   1.042  12.231  0.6401 -0.9912  0.5813
15316TIP3    H167363   5.346   0.983  12.168 -0.7980 -0.7850  1.2909
15316TIP3    H267364   5.343   1.023  12.314  1.4857 -0.2376  1.2277
15317TIP3   OH267365   0.064   2.878   3.010 -0.4073 -0.1184 -0.1820
15317TIP3    H167366   0.128   2.840   3.069  0.2952  0.9250 -0.2567
15317TIP3    H267367   0.025   2.802   2.965  1.3455 -0.7260 -0.7396
15318TIP3   OH267368   3.073   3.439   3.242 -0.4639 -0.1611 -0.0447
15318TIP3    H167369   3.039   3.479   3.321  1.1322  2.6368 -0.6143
15318TIP3    H267370   3.011   3.463   3.173 -0.0102  0.5669 -0.2162
15319TIP3   OH267371   0.657   4.037   0.561 -0.2389 -0.0604  0.2957
15319TIP3    H167372   0.717   4.107   0.535 -1.9590  1.5927  0.5463
15319TIP3    H267373   0.713   3.962   0.577  1.5642  0.8770 -1.2564
15320TIP3   OH267374   4.640   0.747   5.225 -0.2964 -0.1353  0.1033
15320TIP3    H167375   4.710   0.703   5.176 -0.9739  0.0047 -1.0501
15320TIP3    H267376   4.585   0.675   5.256 -1.0370 -0.1743 -1.2101
15321TIP3   OH267377   3.145   3.999  12.847  0.5490  0.4742 -0.0187
15321TIP3    H167378   3.090   4.014  12.770 -2.7704  0.1132  2.0788
15321TIP3    H267379   3.169   3.906  12.841 -0.3412  0.2481 -0.2795
15322TIP3   OH267380   5.066   6.795   3.391 -0.4461 -0.3472 -0.5893
15322TIP3    H167381   5.051   6.876   3.342 -1.2439  0.4665  0.9072
15322TIP3    H267382   5.013   6.729   3.346 -2.6909  0.8107  0.1969
15323TIP3   OH267383   3.870   4.694  15.319 -0.2399  0.1098  1.1383
15323TIP3    H167384   3.842   4.602  15.316 -2.3735  0.7198 -0.2240
15323TIP3    H267385   3.859   4.725  15.229 -0.9483  2.0519  1.8418
15324TIP3   OH267386   2.727   1.109  14.633  0.5854  0.1340  0.2240
15324TIP3    H167387   2.669   1.162  14.688 -0.6082 -0.0874 -0.7711
15324TIP3    H267388   2.815   1.140  14.654  0.2644 -0.6268  2.9668
15325TIP3   OH267389   4.458   4.311  13.323 -0.4728  0.9862 -0.7046
15325TIP3    H167390   4.499   4.338  13.241  0.9320  0.7355 -0.1081
15325TIP3    H267391   4.496   4.368  13.389 -0.7000  0.3856 -0.0466
15326TIP3   OH267392   5.539   1.226  15.457  0.3109 -0.0198  0.2868
15326TIP3    H167393   5.527   1.136  15.487 -0.5577  0.4451  1.4147
15326TIP3    H267394   5.597   1.265  15.523 -0.5160  0.6455  0.6276
15327TIP3   OH267395   0.462   1.732  12.001 -0.2397  0.6509 -0.5178
15327TIP3    H167396   0.482   1.658  11.944 -1.6255  0.3542 -0.6410
15327TIP3    H267397   0.380   1.767  11.967  0.2301  2.0725 -0.2734
15328TIP3   OH267398   2.864   3.717   3.678 -0.5507  0.4721  0.4991
15328TIP3    H167399   2.951   3.752   3.662  0.4227 -1.3782  1.4202
15328TIP3    H267400   2.856   3.714   3.774 -1.0926 -0.5679  0.4418
15329TIP3   OH267401   2.484   4.771   6.287 -0.1033 -0.9164 -0.5023
15329TIP3    H167402   2.421   4.758   6.216 -0.8695 -0.7083  0.1305
15329TIP3    H267403   2.436   4.819   6.354  0.2184 -2.2246  0.7203
15330TIP3   OH267404   6.175   6.596  15.393  0.1030 -0.7402  0.5908
15330TIP3    H167405   6.119   6.556  15.459 -1.2801 -0.1193 -0.1659
15330TIP3    H267406   6.202   6.679  15.432 -0.6401 -0.4145  0.4301
15331TIP3   OH267407   1.884   1.447   2.853 -0.1382 -0.3391  0.1962
15331TIP3    H167408   1.835   1.453   2.935  0.6647 -1.4252  0.7730
15331TIP3    H267409   1.970   1.483   2.874  0.6084 -2.0855  0.3056
15332TIP3   OH267410   3.471   3.593   1.027 -0.2962  0.9023 -0.1449
15332TIP3    H167411   3.456   3.541   1.106  2.0025 -0.0828 -0.2869
15332TIP3    H267412   3.465   3.530   0.955 -1.8198  1.6898 -0.7512
15333TIP3   OH267413   5.813   5.095  13.327  0.4964  0.0675  0.1991
15333TIP3    H167414   5.801   5.178  13.283  0.5490 -1.5043 -3.0466
15333TIP3    H267415   5.870   5.115  13.401  0.1014  2.9484 -0.1690
15334TIP3   OH267416   3.841   5.580   2.295 -0.0987  0.9760  0.2604
15334TIP3    H167417   3.917   5.561   2.349  0.5149 -2.6373 -1.5785
15334TIP3    H267418   3.770   5.529   2.334 -0.3237  0.5072 -0.7149
15335TIP3   OH267419   5.359   6.793   3.669 -0.3855  0.4184 -0.1260
15335TIP3    H167420   5.338   6.715   3.721 -0.3846  0.7410  0.3566
15335TIP3    H267421   5.276   6.840   3.661  0.0027  1.3827  1.2639
15336TIP3   OH267422   2.157   5.038  14.993 -0.2578  0.8222 -0.8817
15336TIP3    H167423   2.079   4.991  14.964 -0.5094  0.7667 -0.1537
15336TIP3    H267424   2.132   5.131  14.991 -0.6997  0.7505  0.3050
15337TIP3   OH267425   6.707   6.254   0.149 -0.2279  0.6932  0.1766
15337TIP3    H167426   6.731   6.224   0.062  1.9317  1.8722  0.2677
15337TIP3    H267427   6.684   6.346   0.137 -0.9973  0.5736  0.6960
15338TIP3   OH267428   1.700   3.504   4.378 -0.4036  0.2592  0.1407
15338TIP3    H167429   1.627   3.555   4.340  0.4409  1.1642 -0.3084
15338TIP3    H267430   1.772   3.516   4.316  0.0164 -0.9732  0.3697
15339TIP3   OH267431   3.467   6.209  14.779  0.2394 -0.5523  0.1077
15339TIP3    H167432   3.529   6.228  14.709  1.3249  1.6162  1.5454
15339TIP3    H267433   3.515   6.227  14.860 -2.0377  0.6457  1.3132
15340TIP3   OH267434   5.571   0.539  14.382  0.0590  0.5722 -0.0848
15340TIP3    H167435   5.505   0.502  14.324 -0.8726  2.0804 -0.0329
15340TIP3    H267436   5.562   0.489  14.464 -0.1014 -0.0996 -0.5047
15341TIP3   OH267437   3.904   5.854  15.377 -0.6397  0.5740 -0.1875
15341TIP3    H167438   3.903   5.900  15.293 -0.2812 -1.3741 -1.3086
15341TIP3    H267439   3.988   5.877  15.416 -0.2230  0.4385 -0.9911
15342TIP3   OH267440   3.211   2.902   1.178 -0.2440  0.1984  0.1710
15342TIP3    H167441   3.162   2.929   1.255 -1.0734  0.2060 -0.3429
15342TIP3    H267442   3.212   2.806   1.181 -1.4327  0.1460 -0.4869
15343TIP3   OH267443   4.092   3.859  15.785  0.3676 -0.6082  0.2868
15343TIP3    H167444   4.005   3.874  15.748  0.0035 -2.1924  0.4324
15343TIP3    H267445   4.152   3.904  15.726 -0.4852 -0.1477 -0.2455
15344TIP3   OH267446   0.975   3.183   4.174 -0.1083 -0.0377 -0.0602
15344TIP3    H167447   0.961   3.170   4.268  0.5873 -0.3479  0.0072
15344TIP3    H267448   0.892   3.217   4.142 -0.7599 -1.0965  0.4444
15345TIP3   OH267449   0.846   4.919   3.547  0.0916 -0.5826 -0.1185
15345TIP3    H167450   0.875   4.840   3.592 -0.0216 -0.5524  0.0087
15345TIP3    H267451   0.802   4.971   3.615 -0.3251 -0.6608 -0.3216
15346TIP3   OH267452   4.621   4.856   5.791  0.2049 -0.4945  0.0184
15346TIP3    H167453   4.635   4.836   5.698 -0.4208 -1.4671  0.1148
15346TIP3    H267454   4.543   4.912   5.791  0.5518 -0.0083 -0.0831
15347TIP3   OH267455   1.470   1.900  14.450 -0.3147 -0.7925 -0.5257
15347TIP3    H167456   1.546   1.920  14.504 -0.8096 -3.5839  1.4053
15347TIP3    H267457   1.421   1.982  14.446  1.9274  0.6450 -0.5069
15348TIP3   OH267458   4.862   2.253   3.311  0.4810 -0.2530  0.1661
15348TIP3    H167459   4.882   2.241   3.404  0.1253 -0.4863  0.2158
15348TIP3    H267460   4.931   2.310   3.279  0.4938 -0.0057  0.6209
15349TIP3   OH267461   3.969   3.432   3.147  0.3412 -0.0806  0.0398
15349TIP3    H167462   3.935   3.357   3.098  1.3515  0.1670 -1.0949
15349TIP3    H267463   4.037   3.469   3.090  0.2731  1.3410  0.8413
15350TIP3   OH267464   1.802   2.688   0.213 -0.4465  0.0024 -0.2659
15350TIP3    H167465   1.867   2.741   0.168  3.6434 -4.0337  0.0779
15350TIP3    H267466   1.791   2.729   0.298  0.5705  1.6142 -0.8780
15351TIP3   OH267467   4.422   6.045  17.059 -0.3225 -0.3895  0.3308
15351TIP3    H167468   4.499   5.996  17.032  1.0046  1.0349  1.3356
15351TIP3    H267469   4.407   6.108  16.989 -0.2010 -0.2733  0.4088
15352TIP3   OH267470   6.602   1.514  10.817  0.9514 -0.2183  0.5502
15352TIP3    H167471   6.659   1.438  10.829 -0.4349 -1.3939 -0.0555
15352TIP3    H267472   6.606   1.533  10.723 -0.3411 -0.9233  0.3200
15353TIP3   OH267473   1.681   2.460  15.079  0.5046  0.2482  0.1986
15353TIP3    H167474   1.698   2.371  15.111  1.1672  0.3470  0.1395
15353TIP3    H267475   1.624   2.447  15.003  2.8528 -0.3773 -1.5725
15354TIP3   OH267476   5.982   0.794  12.994  0.2720  0.0995 -0.3068
15354TIP3    H167477   5.898   0.778  12.950  1.3468 -0.2517 -2.3551
15354TIP3    H267478   6.000   0.887  12.979  0.4711  0.0711 -0.2479
15355TIP3   OH267479   3.514   0.099   4.323  0.4843  0.2811 -0.1216
15355TIP3    H167480   3.472   0.049   4.393  2.3039  1.3052  1.8320
15355TIP3    H267481   3.449   0.164   4.297 -0.6543 -0.8897 -0.2589
15356TIP3   OH267482   1.396   2.009   0.575  0.2375  0.6756  0.2979
15356TIP3    H167483   1.443   1.996   0.657  0.8987  1.4272  0.0490
15356TIP3    H267484   1.394   2.104   0.563 -0.5775  0.6193 -0.1482
15357TIP3   OH267485   4.882   3.164   1.051  0.3734  0.3094  0.2762
15357TIP3    H167486   4.828   3.227   1.003 -2.3456 -2.1479 -0.1803
15357TIP3    H267487   4.961   3.154   0.998  0.2325  2.2123 -0.3645
15358TIP3   OH267488   4.564   4.011  12.850  0.4174 -0.3845  0.6356
15358TIP3    H167489   4.479   3.994  12.892 -0.1160  0.4705 -0.0441
15358TIP3    H267490   4.628   3.972  12.908 -0.4231 -0.6742  1.3895
15359TIP3   OH267491   3.573   4.081   5.242 -0.0114 -0.1386 -0.0392
15359TIP3    H167492   3.608   4.117   5.160  0.6942  1.4906  0.9172
15359TIP3    H267493   3.648   4.035   5.282 -0.3530 -0.9306 -0.2984
15360TIP3   OH267494   6.416   1.463   3.551  0.5363  0.9164  0.7771
15360TIP3    H167495   6.396   1.377   3.514  1.1598  1.3076 -0.5069
15360TIP3    H267496   6.384   1.526   3.487  1.6822  1.6140  0.8545
15361TIP3   OH267497   5.680   3.322   4.974 -0.0924 -0.1339  0.3146
15361TIP3    H167498   5.614   3.333   5.042  0.8986 -0.9936  1.4820
15361TIP3    H267499   5.635   3.341   4.893 -1.6404 -0.2159  1.1154
15362TIP3   OH267500   5.626   5.257  17.072  0.4601 -0.1119 -0.5813
15362TIP3    H167501   5.623   5.185  17.009  1.2979  0.9686 -1.9174
15362TIP3    H267502   5.718   5.284  17.074  0.3425  0.2727  0.6642
15363TIP3   OH267503   4.223   2.492  14.838  0.5239  0.0808 -0.1540
15363TIP3    H167504   4.239   2.425  14.771 -0.5524 -0.1562 -0.1981
15363TIP3    H267505   4.214   2.574  14.788 -2.4117 -0.3983 -0.6062
15364TIP3   OH267506   6.089   1.371  13.129  0.3660 -0.2822 -0.2151
15364TIP3    H167507   6.172   1.376  13.082  0.3148  1.3825 -0.1885
15364TIP3    H267508   6.023   1.385  13.061  0.1303 -0.8958 -0.1180
15365TIP3   OH267509   3.358   2.398   2.305  0.0934  0.3949 -0.4585
15365TIP3    H167510   3.297   2.333   2.271 -2.0349  1.4869  0.9824
15365TIP3    H267511   3.409   2.352   2.371 -1.3228  0.0993  0.4738
15366TIP3   OH267512   6.158   6.471  16.073  0.6269  0.7849 -0.5886
15366TIP3    H167513   6.130   6.483  15.982 -0.0452  0.3871 -0.4371
15366TIP3    H267514   6.248   6.438  16.066 -0.0130 -0.9489 -1.1546
15367TIP3   OH267515   2.080   4.853   4.870 -0.0217 -0.6935  0.7537
15367TIP3    H167516   2.047   4.783   4.813  2.6793 -1.7436  0.3374
15367TIP3    H267517   2.093   4.810   4.955 -0.1829 -0.1803  1.0422
15368TIP3   OH267518   1.473   4.330   1.441 -0.3308 -0.3482 -0.2676
15368TIP3    H167519   1.519   4.271   1.382 -0.8446 -0.9403 -0.0844
15368TIP3    H267520   1.500   4.417   1.413  0.8066 -0.6765 -0.2318
15369TIP3   OH267521   1.706   0.112   0.743  0.2475  0.2846  0.3683
15369TIP3    H167522   1.787   0.143   0.782  1.5026 -1.8115 -0.4131
15369TIP3    H267523   1.654   0.080   0.818  0.7916  0.2345  0.7292
15370TIP3   OH267524   1.083   2.968   1.409 -0.2835 -0.1221 -0.5056
15370TIP3    H167525   1.046   3.007   1.488  0.9944  1.0946 -0.4663
15370TIP3    H267526   1.172   3.005   1.403  0.4783 -1.9580 -1.2630
15371TIP3   OH267527   3.082   2.538   1.820  0.0595 -0.4961  0.5405
15371TIP3    H167528   3.036   2.457   1.843 -2.1867  0.7495  0.6900
15371TIP3    H267529   3.017   2.590   1.773  1.1281  1.6467  1.3161
15372TIP3   OH267530   0.292   3.332   4.700  0.2823 -0.1678  0.2805
15372TIP3    H167531   0.228   3.262   4.693 -0.7123  0.7463  0.0905
15372TIP3    H267532   0.363   3.305   4.642 -0.9197 -0.1468 -1.2639
15373TIP3   OH267533   1.538   2.664   4.244  0.3205  0.4197  0.3374
15373TIP3    H167534   1.570   2.633   4.160  1.7379  0.9187  0.6694
15373TIP3    H267535   1.489   2.744   4.224 -0.6825 -0.3135 -0.1726
15374TIP3   OH267536   0.782   1.880  16.200 -0.2075 -0.3335  0.2097
15374TIP3    H167537   0.821   1.928  16.126  1.7633 -1.5412  0.3892
15374TIP3    H267538   0.826   1.795  16.199 -0.3586 -0.4998  2.5631
15375TIP3   OH267539   1.414   2.457   1.189 -0.5865 -0.4153 -0.3671
15375TIP3    H167540   1.433   2.372   1.230  0.2885 -1.5201 -2.8641
15375TIP3    H267541   1.347   2.437   1.123 -0.6068  0.9020 -0.7740
15376TIP3   OH267542   4.308   0.771   2.533 -0.1791  1.0888  0.4012
15376TIP3    H167543   4.321   0.682   2.504  0.0707  0.7470  1.4989
15376TIP3    H267544   4.305   0.823   2.453 -0.3116  0.1058 -0.2456
15377TIP3   OH267545   4.149   5.544  15.220 -0.5756 -0.0580 -0.5485
15377TIP3    H167546   4.174   5.636  15.216  1.5889 -0.5973 -0.6223
15377TIP3    H267547   4.115   5.532  15.309 -2.0388  1.0443 -0.9207
15378TIP3   OH267548   6.541   0.533  14.221 -0.0922 -0.1699 -0.8312
15378TIP3    H167549   6.546   0.552  14.127  1.1291  1.2073 -0.5321
15378TIP3    H267550   6.476   0.595  14.254 -0.0921 -0.2487 -0.6854
15379TIP3   OH267551   3.265   5.668   5.461  0.0176 -0.2053  0.0221
15379TIP3    H167552   3.296   5.663   5.371  1.2034 -0.6224  0.4338
15379TIP3    H267553   3.279   5.580   5.496 -3.2233 -0.9500 -0.2292
15380TIP3   OH267554   5.539   6.711   0.274 -0.9900  0.1997 -0.2032
15380TIP3    H167555   5.484   6.666   0.337 -0.6939 -0.2387 -0.2540
15380TIP3    H267556   5.574   6.787   0.322  0.8522 -1.2125  0.8401
15381TIP3   OH267557   1.194   6.120   5.040 -0.0966 -0.4159  0.3713
15381TIP3    H167558   1.217   6.100   5.131 -0.5736  0.5495  0.7226
15381TIP3    H267559   1.098   6.118   5.038 -0.0956 -0.1599 -0.0443
15382TIP3   OH267560   0.094   2.864  16.652 -0.7289 -0.8155 -0.0456
15382TIP3    H167561   0.185   2.865  16.680 -0.7762 -0.3718  0.0959
15382TIP3    H267562   0.097   2.844  16.559 -0.5239 -1.4417  0.0890
15383TIP3   OH267563   5.278   1.622   1.804  0.6305  0.2235  0.2700
15383TIP3    H167564   5.347   1.682   1.775  1.0304 -0.3506  0.0293
15383TIP3    H267565   5.316   1.578   1.880 -0.3987  1.7194  1.7443
15384TIP3   OH267566   1.990   3.000   5.261  0.2805 -0.1136  0.2230
15384TIP3    H167567   1.982   3.091   5.233  0.7066 -0.2092 -0.2249
15384TIP3    H267568   2.072   2.996   5.309  1.2656 -0.6549 -1.4269
15385TIP3   OH267569   4.252   5.329  14.188 -0.4466  0.4564  0.0561
15385TIP3    H167570   4.282   5.345  14.278  0.4641  0.6135 -0.2662
15385TIP3    H267571   4.328   5.348  14.133 -0.6231 -0.8117 -0.6681
15386TIP3   OH267572   1.677   5.440   2.733  0.1605 -0.5106  0.2764
15386TIP3    H167573   1.685   5.523   2.780 -0.1941 -0.5708  0.4423
15386TIP3    H267574   1.583   5.425   2.726  0.2283 -1.0911  0.5811
15387TIP3   OH267575   4.111   5.394  13.032 -0.6927  0.1661 -0.4467
15387TIP3    H167576   4.130   5.317  12.978  0.1147 -0.3322  0.5208
15387TIP3    H267577   4.017   5.390  13.048 -0.4660 -1.3865  0.7024
15388TIP3   OH267578   2.542   6.803  14.829 -0.1961  0.2185 -0.2868
15388TIP3    H167579   2.485   6.736  14.866 -0.9423  1.9896  1.9666
15388TIP3    H267580   2.587   6.840  14.904  1.2607  1.3058 -1.6424
15389TIP3   OH267581   4.371   4.397  16.806  0.3597  0.6734  0.1005
15389TIP3    H167582   4.347   4.471  16.750 -0.8719  0.3481  0.1750
15389TIP3    H267583   4.345   4.424  16.894 -2.6716 -0.8534 -0.2063
15390TIP3   OH267584   2.006   2.286  16.560  0.2427  0.8485  0.3356
15390TIP3    H167585   1.939   2.232  16.518 -1.0902  1.9162  0.9852
15390TIP3    H267586   1.972   2.302  16.648  1.2262  1.6486  0.5846
15391TIP3   OH267587   5.646   6.596  12.688 -0.1445 -0.1523  0.0268
15391TIP3    H167588   5.688   6.649  12.621 -0.5363  0.1654  0.0223
15391TIP3    H267589   5.589   6.536  12.640  1.3031 -1.5186 -0.0427
15392TIP3   OH267590   5.292   5.241   4.053  0.1734  0.1241  0.1144
15392TIP3    H167591   5.347   5.193   3.991 -0.3059  1.0211 -1.0363
15392TIP3    H267592   5.333   5.327   4.058 -0.8608  0.6574 -0.4216
15393TIP3   OH267593   1.749   2.439   5.539 -0.3810  0.4762  0.1612
15393TIP3    H167594   1.745   2.452   5.634  0.0525  2.3076 -0.0391
15393TIP3    H267595   1.657   2.435   5.511 -0.5093  0.4717  0.5784
15394TIP3   OH267596   1.216   1.512  16.011 -0.2790  0.5294 -0.5442
15394TIP3    H167597   1.140   1.493  16.067 -0.2802  1.4500 -0.2144
15394TIP3    H267598   1.191   1.591  15.963 -0.0144  0.1202 -1.3772
15395TIP3   OH267599   3.488   5.753  15.574  0.2244 -0.6926 -0.3190
15395TIP3    H167600   3.582   5.735  15.575  0.0776 -1.4960 -0.4634
15395TIP3    H267601   3.455   5.714  15.655  0.4990  2.4659  1.4536
15396TIP3   OH267602   2.266   6.597  14.800 -0.1077 -0.0831  0.4954
15396TIP3    H167603   2.314   6.576  14.880  0.7646 -0.5860 -0.1526
15396TIP3    H267604   2.194   6.534  14.799  0.3926 -0.6681  0.4396
15397TIP3   OH267605   2.773   2.574  12.116  0.4127  0.0425  0.5261
15397TIP3    H167606   2.841   2.565  12.049  0.5784  0.3863  0.6485
15397TIP3    H267607   2.804   2.519  12.188  0.2319 -0.3326  0.3262
15398TIP3   OH267608   5.936   4.439   0.954 -0.5299 -0.0217  0.7232
15398TIP3    H167609   5.978   4.466   1.036 -0.0341  0.8847  0.1799
15398TIP3    H267610   5.961   4.347   0.944  0.8816  0.3326  0.7136
15399TIP3   OH267611   6.784   3.656   1.520 -0.2487  0.2871  0.0704
15399TIP3    H167612   6.753   3.737   1.561  0.3665  0.6069 -0.0821
15399TIP3    H267613   6.734   3.586   1.563 -2.1095  0.8578 -1.0361
15400TIP3   OH267614   4.546   5.348   3.556 -0.2920  0.0999  0.1135
15400TIP3    H167615   4.626   5.385   3.518 -1.3450  1.6244 -0.7159
15400TIP3    H267616   4.489   5.331   3.481 -1.3678  0.5815  0.7997
15401TIP3   OH267617   0.425   5.674   0.300 -0.0792  0.2169  0.1015
15401TIP3    H167618   0.379   5.605   0.252  3.8955 -2.7462  0.0627
15401TIP3    H267619   0.437   5.744   0.235 -3.4908  0.7778 -0.1042
15402TIP3   OH267620   3.084   0.358  15.908 -0.3277  0.7503  0.1926
15402TIP3    H167621   3.078   0.352  16.004  0.1483  3.2627  0.4326
15402TIP3    H267622   3.153   0.423  15.892 -0.4880  0.4741 -1.8720
15403TIP3   OH267623   2.962   3.655   5.341  0.2193  0.3751  0.5640
15403TIP3    H167624   2.959   3.576   5.395 -0.9619  1.9857  3.0763
15403TIP3    H267625   2.872   3.667   5.311  0.2565  1.0822  0.7262
15404TIP3   OH267626   6.564   4.060  14.636 -0.4829 -0.3760 -0.5268
15404TIP3    H167627   6.565   4.008  14.557  1.9769  0.1905 -0.9696
15404TIP3    H267628   6.492   4.123  14.624 -0.1423 -0.3014 -2.3084
15405TIP3   OH267629   2.709   0.868   6.265  0.0731 -0.0455 -0.5652
15405TIP3    H167630   2.757   0.880   6.347 -2.7513  2.2215  0.9413
15405TIP3    H267631   2.632   0.817   6.290 -0.0980 -0.6277 -2.1573
15406TIP3   OH267632   2.513   0.289  14.154 -0.5643  0.3193  0.0473
15406TIP3    H167633   2.543   0.376  14.182 -0.4604  0.2526  0.1371
15406TIP3    H267634   2.482   0.303  14.064 -0.5145  0.4424  0.0496
15407TIP3   OH267635   4.967   1.417  14.056  0.0821 -0.2239 -0.0039
15407TIP3    H167636   4.928   1.351  14.000  0.9921  0.2194 -1.2090
15407TIP3    H267637   4.900   1.484  14.066 -0.1445 -0.3888 -0.4251
15408TIP3   OH267638   6.342   5.507   1.119  0.3843  0.3633  0.0540
15408TIP3    H167639   6.299   5.484   1.201  0.6592  2.1918  0.7632
15408TIP3    H267640   6.278   5.562   1.073  0.7382  0.4510 -0.3423
15409TIP3   OH267641   5.324   4.576  16.856  0.2338  0.0697  0.1788
15409TIP3    H167642   5.254   4.514  16.834  0.6323  0.6103 -3.1661
15409TIP3    H267643   5.363   4.541  16.936 -0.7894 -2.9158 -0.4995
15410TIP3   OH267644   4.629   2.235  11.028 -0.1853 -0.7467 -0.3606
15410TIP3    H167645   4.700   2.274  10.978 -1.2163  1.2228 -0.4000
15410TIP3    H267646   4.613   2.297  11.099 -0.4790 -2.2107  0.9040
15411TIP3   OH267647   2.181   0.881   3.593 -0.3499 -0.0446  0.0905
15411TIP3    H167648   2.237   0.898   3.518  1.3637  0.5598  1.4356
15411TIP3    H267649   2.237   0.836   3.656 -2.0580 -1.6167  0.5811
15412TIP3   OH267650   5.262   1.960  13.783  0.4970  0.1167  0.3950
15412TIP3    H167651   5.308   1.972  13.866  0.0417 -0.7663  0.7893
15412TIP3    H267652   5.216   2.043  13.769  1.6803  0.7784  0.3151
15413TIP3   OH267653   2.374   2.276  13.799 -0.0457  0.2095 -0.1681
15413TIP3    H167654   2.311   2.236  13.739  0.0028  0.3560 -0.3149
15413TIP3    H267655   2.459   2.241  13.773  0.1972  1.5893 -1.2877
15414TIP3   OH267656   4.387   2.222   2.227  0.1708 -0.3860  0.1878
15414TIP3    H167657   4.469   2.271   2.228 -0.1622  0.1896  1.4701
15414TIP3    H267658   4.320   2.289   2.244 -0.4385 -1.0476  0.4069
15415TIP3   OH267659   5.284   4.939  10.890 -0.1445  0.1369  0.3089
15415TIP3    H167660   5.336   5.016  10.911  1.0143 -0.9576  1.6670
15415TIP3    H267661   5.215   4.938  10.956 -1.8986  1.4779 -1.3705
15416TIP3   OH267662   0.353   3.418  14.829  0.6824 -0.5428 -0.1141
15416TIP3    H167663   0.350   3.421  14.925  0.3184  0.1253 -0.1411
15416TIP3    H267664   0.447   3.415  14.808  0.7549 -1.3523  0.2705
15417TIP3   OH267665   6.380   0.302   2.650 -0.2732 -0.0197  0.1172
15417TIP3    H167666   6.451   0.238   2.656 -1.4043 -1.3241 -0.0639
15417TIP3    H267667   6.386   0.352   2.731  1.3781  0.4869 -0.2764
15418TIP3   OH267668   2.956   5.984   4.155  0.3625 -0.1730 -0.2828
15418TIP3    H167669   2.943   6.030   4.072 -0.9194 -3.7110 -2.2511
15418TIP3    H267670   3.039   5.937   4.144  0.7670  0.2085  0.9509
15419TIP3   OH267671   1.016   4.951  15.753 -0.2655  0.1599 -0.6014
15419TIP3    H167672   0.933   4.967  15.708 -1.1864 -2.1130  0.1531
15419TIP3    H267673   1.046   5.038  15.780 -2.4528  1.0237 -0.7682
15420TIP3   OH267674   4.513   0.965  12.654 -0.5883  0.0447 -0.4712
15420TIP3    H167675   4.496   0.873  12.633  2.9434 -1.0682  0.7910
15420TIP3    H267676   4.492   1.012  12.573 -0.6163 -2.1478 -1.8135
15421TIP3   OH267677   3.580   3.684  16.738 -0.1331 -0.1463  0.7484
15421TIP3    H167678   3.602   3.609  16.682 -0.5389  0.0547  0.3112
15421TIP3    H267679   3.600   3.654  16.827  0.0353 -0.6503  0.5456
15422TIP3   OH267680   2.532   1.968  11.372  0.8631  0.0583 -0.0310
15422TIP3    H167681   2.627   1.965  11.364  0.7549 -0.2363 -1.4069
15422TIP3    H267682   2.508   2.052  11.334  0.4336 -0.7277 -1.5689
15423TIP3   OH267683   1.882   1.277   2.108  0.1184  0.2852 -0.5778
15423TIP3    H167684   1.811   1.333   2.141 -0.2960 -0.0917 -0.8190
15423TIP3    H267685   1.918   1.236   2.187 -0.7074 -0.4206 -0.5436
15424TIP3   OH267686   5.104   4.282  11.422 -0.6079 -0.0289  0.3152
15424TIP3    H167687   5.026   4.328  11.454 -0.3157 -0.5143  1.8188
15424TIP3    H267688   5.157   4.350  11.380  0.1257  1.2389  3.0567
15425TIP3   OH267689   0.218   0.913  16.032  0.1329 -0.4433 -0.0937
15425TIP3    H167690   0.195   0.954  16.115  2.5165 -0.8092  0.8241
15425TIP3    H267691   0.213   0.984  15.968  1.4360  0.6514  0.9631
15426TIP3   OH267692   3.528   6.571  15.877  0.3274  0.0552 -0.0145
15426TIP3    H167693   3.470   6.543  15.949 -0.5010  0.9810 -0.2982
15426TIP3    H267694   3.498   6.659  15.856  0.6130 -0.1670 -1.4456
15427TIP3   OH267695   1.329   0.895  16.797  0.3139  0.0970 -0.2812
15427TIP3    H167696   1.344   0.828  16.730 -2.0519 -0.4298 -0.3752
15427TIP3    H267697   1.242   0.929  16.778  0.4520  1.4490  1.2896
15428TIP3   OH267698   1.408   5.494   0.960  0.1895  0.0035 -0.0649
15428TIP3    H167699   1.318   5.465   0.969  0.1284 -0.0623 -0.7903
15428TIP3    H267700   1.425   5.547   1.038 -0.4159 -0.1244  0.1552
15429TIP3   OH267701   1.590   1.207   5.495  0.1465 -0.3066  0.1172
15429TIP3    H167702   1.554   1.188   5.409  1.1405  0.6274 -0.5319
15429TIP3    H267703   1.521   1.255   5.541  1.1289  3.4030 -1.8636
15430TIP3   OH267704   4.737   6.397   1.471 -0.0236 -0.0508 -0.3621
15430TIP3    H167705   4.827   6.388   1.439 -0.4359 -0.1835 -1.5547
15430TIP3    H267706   4.710   6.484   1.440 -0.3328 -0.0546 -0.0978
15431TIP3   OH267707   1.571   5.435  15.247  0.4669 -0.3127 -0.5299
15431TIP3    H167708   1.607   5.520  15.220  0.8350  0.2725  1.5535
15431TIP3    H267709   1.648   5.384  15.273  0.2058 -1.1166 -1.2940
15432TIP3   OH267710   4.753   6.523  16.995  0.1183 -0.2229  0.1435
15432TIP3    H167711   4.665   6.498  17.023 -0.5098  0.0428 -1.4526
15432TIP3    H267712   4.774   6.461  16.925  0.1881  1.1430 -1.1170
15433TIP3   OH267713   0.378   3.882   4.812 -0.3444 -0.4724  0.1566
15433TIP3    H167714   0.429   3.878   4.731  0.9855 -0.0153  0.9373
15433TIP3    H267715   0.415   3.812   4.866 -1.3758 -0.9270  0.2957
15434TIP3   OH267716   4.815   4.857   3.283  0.1190  0.7529  0.1281
15434TIP3    H167717   4.844   4.852   3.375 -0.3161  1.1664  0.2955
15434TIP3    H267718   4.720   4.871   3.289 -0.2590 -1.2198 -0.4131
15435TIP3   OH267719   3.388   4.899  14.738 -0.7711  0.3277 -0.5205
15435TIP3    H167720   3.386   4.968  14.805 -1.6058  2.0403 -2.1993
15435TIP3    H267721   3.308   4.914  14.687 -0.7096 -1.6168 -1.2497
15436TIP3   OH267722   1.691   3.389  12.683  0.5013  0.6979  0.5222
15436TIP3    H167723   1.731   3.441  12.753  2.0533  0.9191 -0.4718
15436TIP3    H267724   1.603   3.426  12.672  0.9610  1.9886  1.0001
15437TIP3   OH267725   2.293   3.744  13.749 -0.1409 -0.0838  0.4786
15437TIP3    H167726   2.302   3.681  13.820  1.2758  0.0477  0.4376
15437TIP3    H267727   2.382   3.760  13.719 -0.6507  0.4243 -0.8492
15438TIP3   OH267728   5.014   5.570   1.384 -0.0258 -0.2629 -0.2343
15438TIP3    H167729   5.001   5.476   1.392  2.5472 -0.7477 -0.8505
15438TIP3    H267730   4.973   5.607   1.462 -1.3700 -1.8328 -0.1463
15439TIP3   OH267731   0.959   2.513  11.552  0.4944  0.5471 -0.1118
15439TIP3    H167732   0.987   2.598  11.585 -1.2845  0.4621  1.8327
15439TIP3    H267733   1.035   2.478  11.505  1.5150  2.8334 -0.2452
15440TIP3   OH267734   4.759   3.288  15.383 -0.3019  0.2046 -0.5507
15440TIP3    H167735   4.727   3.293  15.472 -1.4942  1.3585 -1.0177
15440TIP3    H267736   4.745   3.197  15.357 -0.4036 -0.0176  0.2631
15441TIP3   OH267737   1.695   3.315   3.710 -0.4416 -0.3287  0.2821
15441TIP3    H167738   1.767   3.264   3.747  0.5707  1.1618  0.4435
15441TIP3    H267739   1.698   3.295   3.616  1.1127  0.7678  0.0604
15442TIP3   OH267740   4.518   6.057  12.846 -0.1754  0.3736  0.0027
15442TIP3    H167741   4.515   6.147  12.815 -3.2598  0.1768 -0.5888
15442TIP3    H267742   4.497   6.063  12.939 -1.9229  0.2300 -0.3451
15443TIP3   OH267743   4.871   4.769   3.795 -0.1256  0.5255  0.1167
15443TIP3    H167744   4.894   4.749   3.886 -1.9598  0.4474  0.6131
15443TIP3    H267745   4.912   4.853   3.777  0.8339  0.2128  0.7873
15444TIP3   OH267746   4.861   6.265   6.355  0.0761  0.2850 -0.1223
15444TIP3    H167747   4.905   6.333   6.303 -0.0369 -0.6805 -1.5431
15444TIP3    H267748   4.775   6.255   6.314 -0.0852 -0.3784  0.3637
15445TIP3   OH267749   3.716   4.673   3.575  0.3904  0.2606  0.7840
15445TIP3    H167750   3.767   4.716   3.644  0.9569 -0.6695  0.9680
15445TIP3    H267751   3.730   4.727   3.497  0.3935  0.8788  1.2087
15446TIP3   OH267752   1.739   5.620   2.162 -0.0821  0.1277  0.1318
15446TIP3    H167753   1.717   5.578   2.245  1.2343  0.0080  0.4376
15446TIP3    H267754   1.803   5.688   2.185 -2.9668  3.2240 -0.1453
15447TIP3   OH267755   2.492   1.766  14.219  0.1279  0.0372  0.6994
15447TIP3    H167756   2.449   1.692  14.263  0.0471  0.4271  1.2904
15447TIP3    H267757   2.486   1.745  14.126 -1.4542  0.1462  0.7619
15448TIP3   OH267758   2.191   4.602  15.356  0.0837 -0.3038  0.2172
15448TIP3    H167759   2.228   4.688  15.334 -0.8836 -0.2578 -1.3806
15448TIP3    H267760   2.235   4.542  15.296 -0.2050 -0.7248  0.4245
15449TIP3   OH267761   3.383   0.100  16.695  0.0343  0.0394 -0.3199
15449TIP3    H167762   3.464   0.138  16.661  0.0322  0.9416  0.6224
15449TIP3    H267763   3.379   0.013  16.656  0.7627  0.4772 -1.4458
15450TIP3   OH267764   6.729   5.981  15.585 -0.3475  0.1607  0.2403
15450TIP3    H167765   6.721   6.040  15.510 -0.0181 -0.1473 -0.0407
15450TIP3    H267766   6.747   6.039  15.659  0.3875  0.3875 -0.1058
15451TIP3   OH267767   6.345   5.420   1.716 -0.2804  0.5599  0.4538
15451TIP3    H167768   6.302   5.372   1.788 -3.4181  1.9148 -0.3306
15451TIP3    H267769   6.348   5.356   1.645  3.2604 -0.9388  1.7334
15452TIP3   OH267770   2.452   2.936  12.217 -0.2032 -0.5790  0.0198
15452TIP3    H167771   2.372   2.953  12.168  0.1314  2.2738  0.3288
15452TIP3    H267772   2.523   2.966  12.160  0.4385 -0.3288  0.9248
15453TIP3   OH267773   6.200   3.173   5.940  0.0590 -0.6489  0.6729
15453TIP3    H167774   6.282   3.194   5.986 -0.8157  0.0324  1.9640
15453TIP3    H267775   6.136   3.159   6.010 -1.3645  0.5628 -0.3361
15454TIP3   OH267776   2.469   2.819   0.003 -0.5535 -0.5016  0.4568
15454TIP3    H167777   2.428   2.905   0.011 -1.8045 -1.0299  0.0609
15454TIP3    H267778   2.527   2.812   0.078 -0.4308  0.6917  0.4826
15455TIP3   OH267779   0.057   0.442  12.332  0.0153 -0.3720  0.0291
15455TIP3    H167780  -0.019   0.468  12.280  0.5224  0.0560 -0.5121
15455TIP3    H267781   0.121   0.410  12.268  1.0853  1.2138  0.2321
15456TIP3   OH267782   2.363   1.383   5.510  0.3191 -0.2989 -0.1538
15456TIP3    H167783   2.452   1.400   5.542  0.2825 -0.7054  0.1747
15456TIP3    H267784   2.320   1.336   5.582  1.0592 -3.6837 -1.7039
15457TIP3   OH267785   2.647   0.042  16.726  0.0948 -0.3173  0.2220
15457TIP3    H167786   2.654  -0.039  16.776 -1.4388 -1.2752 -1.0406
15457TIP3    H267787   2.568   0.032  16.674  0.2753  1.6927 -0.5344
15458TIP3   OH267788   0.018   4.753   6.184 -0.5493  0.0181 -0.1823
15458TIP3    H167789  -0.024   4.683   6.135 -0.2556 -1.2072  1.2464
15458TIP3    H267790   0.066   4.708   6.253 -1.0762  1.6614  1.3261
15459TIP3   OH267791   0.945   3.149  13.166  0.1852  0.1218 -0.6023
15459TIP3    H167792   0.921   3.109  13.082  0.8457 -0.3431 -0.5807
15459TIP3    H267793   1.012   3.090  13.202 -0.3611  0.1025  0.4318
15460TIP3   OH267794   0.729   6.330  11.195  0.1128 -0.2180 -0.1786
15460TIP3    H167795   0.726   6.386  11.117  1.1636 -0.3894 -0.3599
15460TIP3    H267796   0.794   6.263  11.173 -0.6082 -1.0891  0.3129
15461TIP3   OH267797   5.148   3.646   3.131  0.5712 -0.3751  0.1484
15461TIP3    H167798   5.076   3.585   3.148  1.3708 -1.3963 -0.0213
15461TIP3    H267799   5.226   3.602   3.167  1.1272  0.6798  0.2774
15462TIP3   OH267800   3.866   1.355   5.386 -0.1333 -0.1562 -0.4324
15462TIP3    H167801   3.930   1.425   5.384  0.2024 -0.4341 -3.0342
15462TIP3    H267802   3.837   1.351   5.477  0.9082  2.3406  0.0848
15463TIP3   OH267803   1.198   6.253  14.385 -0.5347 -0.3270  0.2087
15463TIP3    H167804   1.255   6.178  14.370  2.3912  1.5420  1.0197
15463TIP3    H267805   1.135   6.250  14.313  3.1675 -0.3600 -3.4502
15464TIP3   OH267806   2.771   0.665  12.879 -0.8363  0.4136  0.6858
15464TIP3    H167807   2.791   0.757  12.896  2.2011 -0.1022  0.5206
15464TIP3    H267808   2.853   0.629  12.846 -0.7835 -3.1685  4.0236
15465TIP3   OH267809   6.553   1.754  12.943 -0.0691  0.5991 -0.2737
15465TIP3    H167810   6.527   1.663  12.959 -0.2945  0.6864 -0.1349
15465TIP3    H267811   6.626   1.769  13.003 -0.9474  0.9409  0.7412
15466TIP3   OH267812   5.296   1.483   0.285  0.2478  0.3233 -0.2514
15466TIP3    H167813   5.346   1.520   0.358  0.3507 -2.2743  1.1047
15466TIP3    H267814   5.361   1.434   0.234 -0.2609  0.0389 -0.6322
15467TIP3   OH267815   2.714   0.201  13.644  1.0728  0.6731 -0.0376
15467TIP3    H167816   2.732   0.254  13.721  2.2507  1.6065 -0.8989
15467TIP3    H267817   2.799   0.196  13.599  0.9900 -1.8835 -0.0401
15468TIP3   OH267818   6.076   1.167   4.916  0.4480  0.0927 -0.2040
15468TIP3    H167819   6.008   1.116   4.960  1.9736 -0.1297  2.0429
15468TIP3    H267820   6.110   1.108   4.849 -0.9217 -0.1068 -0.7669
15469TIP3   OH267821   6.167   0.467   5.324  0.1483 -0.3005 -0.0083
15469TIP3    H167822   6.199   0.390   5.372  1.0661 -0.4398 -0.8252
15469TIP3    H267823   6.071   0.461   5.330  0.2286 -0.9408  0.8122
15470TIP3   OH267824   4.507   6.574  13.434  0.6312 -0.1875  1.0502
15470TIP3    H167825   4.523   6.479  13.429 -1.7673 -0.5814 -0.9214
15470TIP3    H267826   4.414   6.584  13.413  0.8945  2.6539  0.8932
15471TIP3   OH267827   0.139   4.205  13.936  0.7847 -0.3378 -0.5534
15471TIP3    H167828   0.116   4.123  13.979 -0.7556 -0.3984 -1.4289
15471TIP3    H267829   0.228   4.224  13.967 -0.1383 -0.4277  2.5430
15472TIP3   OH267830   5.534   4.833   4.824  0.7581 -0.0909  0.3788
15472TIP3    H167831   5.575   4.751   4.796  1.8618  0.0161  1.5677
15472TIP3    H267832   5.468   4.806   4.887 -0.6224 -0.2164 -1.0662
15473TIP3   OH267833   6.785   3.851   0.673  0.2436 -0.0504  0.2108
15473TIP3    H167834   6.718   3.814   0.731  0.3094 -0.1065  0.2518
15473TIP3    H267835   6.810   3.778   0.617  0.7762 -0.2254  0.6601
15474TIP3   OH267836   3.411   0.954  15.337  0.2765 -0.0127  0.7093
15474TIP3    H167837   3.430   0.876  15.284  0.8322 -0.3137  1.3337
15474TIP3    H267838   3.316   0.960  15.337  0.2698  0.9238 -1.6392
15475TIP3   OH267839   2.777   6.150  16.352  0.2141  0.2045 -0.5311
15475TIP3    H167840   2.800   6.238  16.382  1.3236 -0.3529  0.3532
15475TIP3    H267841   2.767   6.099  16.432 -2.3265 -0.0758 -0.9539
15476TIP3   OH267842   4.438   2.599  13.692  0.6608 -0.1266 -0.7534
15476TIP3    H167843   4.463   2.519  13.738 -1.3051 -0.4538 -0.1413
15476TIP3    H267844   4.492   2.599  13.613  1.8861 -1.1722  0.0368
15477TIP3   OH267845   4.440   2.423  10.413 -0.0949  0.2917  0.3181
15477TIP3    H167846   4.439   2.472  10.331  1.6540  1.0674  0.6995
15477TIP3    H267847   4.529   2.435  10.447 -0.2279 -1.4884  1.4448
15478TIP3   OH267848   5.883   6.507   1.248 -0.7253  0.8480 -0.0803
15478TIP3    H167849   5.839   6.589   1.225  1.4494  2.2235  0.3116
15478TIP3    H267850   5.920   6.523   1.335 -0.2827 -0.5784  0.0264
15479TIP3   OH267851   3.706   2.311   2.910  0.1161  0.1803  0.6025
15479TIP3    H167852   3.702   2.317   2.815 -0.2321  0.5260  0.6367
15479TIP3    H267853   3.765   2.381   2.937 -0.2875  0.4976  0.6803
15480TIP3   OH267854   1.454   2.451   1.947  0.3486 -0.2466  0.2001
15480TIP3    H167855   1.521   2.389   1.920  1.2190  2.0060 -3.5603
15480TIP3    H267856   1.502   2.533   1.961 -1.2200  0.5615  1.1300
15481TIP3   OH267857   3.703   2.916  14.920 -0.1296  0.5779 -0.2027
15481TIP3    H167858   3.798   2.900  14.923 -0.2226  0.1769  1.1128
15481TIP3    H267859   3.671   2.887  15.006 -2.0160 -2.6788 -1.8266
15482TIP3   OH267860   3.759   2.844  16.686  0.6552 -0.6714 -0.2803
15482TIP3    H167861   3.776   2.936  16.664 -0.0083 -0.5990 -0.4880
15482TIP3    H267862   3.736   2.803  16.603 -0.7865 -0.6329  0.0714
15483TIP3   OH267863   2.128   1.532   5.583  0.4116  0.1478  0.3937
15483TIP3    H167864   2.053   1.550   5.527  1.6823  0.1147 -1.4368
15483TIP3    H267865   2.195   1.499   5.522  1.6976 -0.4010  2.0365
15484TIP3   OH267866   3.984   4.077   0.439  0.1712 -0.0636  0.3098
15484TIP3    H167867   4.027   4.114   0.516 -1.3516 -1.7417  2.1035
15484TIP3    H267868   4.016   3.986   0.435  0.2778  0.0136 -1.1060
15485TIP3   OH267869   5.031   2.101  12.031 -0.0659 -0.0372 -0.0442
15485TIP3    H167870   5.111   2.110  11.979  0.4479  0.0433  0.7446
15485TIP3    H267871   4.974   2.173  12.000  0.4922  0.4152 -0.0288
15486TIP3   OH267872   5.963   2.793   0.371  0.2239 -0.0744 -0.5336
15486TIP3    H167873   6.050   2.824   0.346  0.3102 -0.4308 -0.6740
15486TIP3    H267874   5.934   2.855   0.438 -0.4481  1.5279 -2.2054
15487TIP3   OH267875   5.141   1.396   1.018 -0.0713 -0.4202 -0.6907
15487TIP3    H167876   5.227   1.431   1.043  0.0170 -1.0921 -0.0174
15487TIP3    H267877   5.118   1.336   1.089 -0.7158 -0.8836 -1.2775
15488TIP3   OH267878   6.489   4.162  15.531 -0.2952 -0.0732 -0.4054
15488TIP3    H167879   6.415   4.221  15.521 -0.6046 -0.4093 -0.1049
15488TIP3    H267880   6.562   4.208  15.489 -0.5925  0.4069 -0.4010
15489TIP3   OH267881   0.570   6.764  13.820  0.0336  0.0241  0.1097
15489TIP3    H167882   0.600   6.694  13.762 -0.0379 -0.0996  0.2206
15489TIP3    H267883   0.492   6.799  13.777 -0.8239 -0.9857  0.8121
15490TIP3   OH267884   3.415   5.599  13.465  0.1304 -0.3623 -0.5175
15490TIP3    H167885   3.455   5.579  13.549  1.3737  1.2894 -0.6711
15490TIP3    H267886   3.338   5.542  13.461  0.7168 -1.3410  1.1860
15491TIP3   OH267887   5.237   2.994   4.005  0.3847  0.2750  0.0441
15491TIP3    H167888   5.216   3.014   3.913  1.0872  0.8090 -0.0110
15491TIP3    H267889   5.152   2.983   4.047  0.0589 -1.9531 -1.0681
15492TIP3   OH267890   2.913   0.206   0.342 -0.3316  0.3213 -0.9271
15492TIP3    H167891   2.935   0.165   0.426  1.4781  0.6138 -1.2226
15492TIP3    H267892   2.828   0.246   0.357 -0.5850 -0.6537  0.4040
15493TIP3   OH267893   4.189   0.245   3.378  0.1892 -0.1825 -0.6754
15493TIP3    H167894   4.102   0.229   3.342  0.0305  0.7713 -0.7357
15493TIP3    H267895   4.248   0.192   3.324 -0.4998 -2.0105  0.3006
15494TIP3   OH267896   6.372   3.190   1.849  0.0920 -0.2727 -0.8739
15494TIP3    H167897   6.325   3.153   1.923  0.1256  0.2132 -0.6047
15494TIP3    H267898   6.441   3.127   1.830 -1.1170 -1.3709 -1.7650
15495TIP3   OH267899   4.607   4.179  15.118  0.1550 -0.2491  0.1867
15495TIP3    H167900   4.568   4.240  15.055 -1.6282 -0.2884  1.1885
15495TIP3    H267901   4.702   4.193  15.110 -0.1661  2.7557  0.4689
15496TIP3   OH267902   1.730   1.288   6.427 -0.0998 -0.1782  0.7587
15496TIP3    H167903   1.657   1.243   6.469  0.9651 -0.4276  2.4099
15496TIP3    H267904   1.708   1.381   6.433 -0.7949 -0.2965  0.2135
15497TIP3   OH267905   4.738   0.047   3.136  0.0828 -0.0474  0.5585
15497TIP3    H167906   4.680  -0.011   3.186  0.1986  0.1594  0.9382
15497TIP3    H267907   4.688   0.068   3.057 -0.0997 -0.3873  0.5823
15498TIP3   OH267908   2.975   3.813   3.293 -0.6322 -0.4975 -0.0880
15498TIP3    H167909   3.026   3.823   3.213 -0.2145 -2.3884 -0.1023
15498TIP3    H267910   3.036   3.775   3.356 -1.3673 -0.4514  0.6740
15499TIP3   OH267911   4.298   4.986   3.227 -0.0070 -0.1468  0.0961
15499TIP3    H167912   4.298   4.891   3.212  1.4734  0.2722 -4.0848
15499TIP3    H267913   4.214   5.016   3.193  0.0451  0.1429  0.2219
15500TIP3   OH267914   6.670   3.091  14.839 -0.4656  0.7086 -0.4138
15500TIP3    H167915   6.667   3.025  14.769  1.6424  0.8826 -0.7392
15500TIP3    H267916   6.623   3.051  14.912 -0.5858 -0.5032 -1.1326
15501TIP3   OH267917   5.505   0.641  11.930 -0.3303 -0.0239  0.0942
15501TIP3    H167918   5.523   0.676  11.843  0.8266 -0.3745  0.1775
15501TIP3    H267919   5.565   0.687  11.988 -0.5347 -0.3625  0.5828
15502TIP3   OH267920   5.834   3.138  16.853 -0.4328 -0.2074  0.3812
15502TIP3    H167921   5.890   3.212  16.878  1.2321 -0.4796 -2.1817
15502TIP3    H267922   5.872   3.064  16.901  1.4012 -0.3455 -1.1542
15503TIP3   OH267923   6.401   0.847   0.458  0.0596  0.4781 -0.6113
15503TIP3    H167924   6.400   0.783   0.529 -2.1834 -0.5631 -1.4744
15503TIP3    H267925   6.411   0.795   0.379  0.1917  1.3960 -1.2133
15504TIP3   OH267926   1.968   1.642  12.665 -0.1293  0.5516  0.1241
15504TIP3    H167927   2.042   1.678  12.714  1.3497 -1.0215 -0.8646
15504TIP3    H267928   1.903   1.623  12.733  1.1108  0.2057  1.2592
15505TIP3   OH267929   1.473   1.258   3.383  0.0717  0.5864  0.2012
15505TIP3    H167930   1.521   1.178   3.402  1.1564  1.0955 -0.2942
15505TIP3    H267931   1.485   1.271   3.289 -1.2101  0.6324  0.0199
15506TIP3   OH267932   6.609   4.613  15.013  0.1325 -0.5339 -0.1332
15506TIP3    H167933   6.548   4.566  15.070 -0.6331 -1.2474 -1.4900
15506TIP3    H267934   6.557   4.638  14.937  0.3480  3.0200  0.6821
15507TIP3   OH267935   5.558   3.429   5.706  0.8642 -0.1513 -0.1198
15507TIP3    H167936   5.614   3.463   5.776  0.7076 -0.8239  0.3355
15507TIP3    H267937   5.489   3.382   5.751 -1.1575  2.1681 -0.5715
15508TIP3   OH267938   2.003   6.298   3.647  0.3962  0.2952 -0.1687
15508TIP3    H167939   1.990   6.366   3.582  0.1513 -0.0125 -0.4457
15508TIP3    H267940   2.004   6.216   3.596 -0.9922 -0.0570  0.3360
15509TIP3   OH267941   5.392   1.363  14.002  0.0285  0.0431  0.0092
15509TIP3    H167942   5.439   1.282  14.019 -1.0833 -0.3245  1.6158
15509TIP3    H267943   5.460   1.431  14.002  0.7243 -0.6221  0.9508
15510TIP3   OH267944   0.686   4.877  10.517 -0.5506  0.2660  0.4252
15510TIP3    H167945   0.635   4.852  10.440  1.3046 -0.5216 -0.6070
15510TIP3    H267946   0.620   4.889  10.586 -2.0513 -1.8165 -0.5245
15511TIP3   OH267947   5.360   4.561  15.216  0.4151  0.4757  0.4793
15511TIP3    H167948   5.429   4.512  15.171 -0.5262  0.6304 -1.1891
15511TIP3    H267949   5.303   4.593  15.146 -0.8339  1.1513  1.7556
15512TIP3   OH267950   5.858   0.056   1.455  0.5743  0.3766 -0.0785
15512TIP3    H167951   5.835  -0.014   1.516 -1.1633 -0.2771 -1.4000
15512TIP3    H267952   5.832   0.136   1.501  0.7961  0.0376  0.6684
15513TIP3   OH267953   1.457   6.455  12.746 -0.1457 -0.0595 -0.6925
15513TIP3    H167954   1.544   6.450  12.707 -0.0531  1.6086 -0.7808
15513TIP3    H267955   1.454   6.541  12.788 -2.0026  0.2297 -1.3224
15514TIP3   OH267956   3.621   4.062   3.752  0.3240 -0.2130  0.2359
15514TIP3    H167957   3.561   4.135   3.767 -0.4694 -0.8923  0.4404
15514TIP3    H267958   3.694   4.079   3.810 -0.4862 -0.2843  1.3031
15515TIP3   OH267959   6.125   3.870   4.167  0.6851  0.4467  0.0405
15515TIP3    H167960   6.190   3.886   4.098  2.1275 -2.1445  0.6704
15515TIP3    H267961   6.176   3.847   4.244 -0.7825 -4.1450 -0.0386
15516TIP3   OH267962   0.553   1.391   2.122  0.3521  0.3228  0.0207
15516TIP3    H167963   0.553   1.461   2.057  1.0465  0.2750 -0.0355
15516TIP3    H267964   0.515   1.316   2.076  0.6143  0.3571 -0.2601
15517TIP3   OH267965   0.656   0.140   0.969  0.6312 -0.0307  0.3618
15517TIP3    H167966   0.578   0.191   0.948 -0.7436 -2.1445  0.0281
15517TIP3    H267967   0.663   0.145   1.064  0.4296  0.6504  0.3430
15518TIP3   OH267968   0.247   4.683   6.357  0.4103 -0.1186 -0.4008
15518TIP3    H167969   0.307   4.613   6.383 -0.0663  0.2935  2.0431
15518TIP3    H267970   0.300   4.762   6.354  0.3493 -0.0684 -0.1291
15519TIP3   OH267971   2.177   0.634  12.211  0.2700 -0.0236 -0.2386
15519TIP3    H167972   2.227   0.637  12.292 -0.2390  2.2753  0.0451
15519TIP3    H267973   2.085   0.637  12.240  0.0975  2.2933 -0.8743
15520TIP3   OH267974   6.524   4.110  15.806  0.0810  0.0929  0.1840
15520TIP3    H167975   6.545   4.017  15.819 -0.7994 -0.4056 -1.6742
15520TIP3    H267976   6.500   4.117  15.714  1.3800  2.4380 -0.0515
15521TIP3   OH267977   3.681   6.043   3.801  0.4436  0.5497 -0.0648
15521TIP3    H167978   3.746   6.081   3.742 -1.1400  0.1556 -2.2008
15521TIP3    H267979   3.708   5.952   3.812  0.5302  0.5147 -0.5475
15522TIP3   OH267980   2.189   1.968  15.840 -0.8377 -0.2811  0.2444
15522TIP3    H167981   2.121   1.929  15.895 -0.9946 -0.7636 -0.2847
15522TIP3    H267982   2.219   2.044  15.889 -0.6742 -0.9480  1.2050
15523TIP3   OH267983   4.457   5.380  11.327 -0.3911 -0.0684 -0.6303
15523TIP3    H167984   4.553   5.379  11.317 -0.2209  2.8456 -0.3609
15523TIP3    H267985   4.424   5.380  11.237 -0.0995 -0.1664 -0.7381
15524TIP3   OH267986   2.587   3.036  12.731 -0.6719  0.0695 -0.3994
15524TIP3    H167987   2.534   3.113  12.756 -0.1387  0.7036 -1.1799
15524TIP3    H267988   2.525   2.963  12.732 -2.2819  1.1683 -3.7915
15525TIP3   OH267989   1.111   3.013  12.122  0.5527  0.1534  0.2037
15525TIP3    H167990   1.144   3.049  12.205  2.3595 -2.5596  0.8272
15525TIP3    H267991   1.189   3.009  12.066 -0.6711  2.0352 -1.7375
15526TIP3   OH267992   3.712   6.599   2.775  0.4724 -0.5122  0.1258
15526TIP3    H167993   3.795   6.563   2.808 -0.8647 -3.6663  0.3863
15526TIP3    H267994   3.645   6.538   2.806 -2.2411  2.6484  1.1870
15527TIP3   OH267995   2.799   4.912   2.506 -0.4570  0.5309  0.1045
15527TIP3    H167996   2.844   4.841   2.551 -2.9749  0.0096  1.9703
15527TIP3    H267997   2.843   4.918   2.421  1.2061 -1.8094  0.7178
15528TIP3   OH267998   0.103   0.654  11.886 -0.2914 -0.7345  0.6395
15528TIP3    H167999   0.088   0.608  11.804  0.9476 -1.3773  0.7374
15528TIP3    H268000   0.131   0.585  11.947  1.5376  0.1029  0.8156
15529TIP3   OH268001   3.086   1.783  11.698  0.0605 -0.6613 -0.5341
15529TIP3    H168002   3.043   1.727  11.632  2.2190  0.4343 -3.0628
15529TIP3    H268003   3.046   1.869  11.686  0.6209 -0.4045 -0.5799
15530TIP3   OH268004   3.183   6.482   1.430 -0.1565 -0.3571  0.1607
15530TIP3    H168005   3.214   6.514   1.345  0.2945 -1.3641 -0.0720
15530TIP3    H268006   3.130   6.405   1.409 -0.9702  0.0450  0.7225
15531TIP3   OH268007   5.802   6.639  16.648  0.3918  0.6387 -0.2725
15531TIP3    H168008   5.815   6.571  16.583 -0.4928  0.2646 -0.0783
15531TIP3    H268009   5.717   6.619  16.687  1.5351 -0.0398  2.0721
15532TIP3   OH268010   3.969   4.040   1.594  0.4231 -0.0027 -0.5444
15532TIP3    H168011   3.923   4.091   1.528 -0.5239 -2.0601 -1.5937
15532TIP3    H268012   4.038   3.994   1.545 -0.5187 -1.8353 -0.2376
15533TIP3   OH268013   6.638   6.661  14.907  0.0439  0.1035  0.2762
15533TIP3    H168014   6.653   6.642  15.000  2.4332 -0.0373 -0.0943
15533TIP3    H268015   6.641   6.576  14.864  0.6430  0.3309 -0.1390
15534TIP3   OH268016   6.340   4.345   6.061  0.4542  0.0134  0.0503
15534TIP3    H168017   6.254   4.308   6.038  0.2426  1.2918 -1.3465
15534TIP3    H268018   6.325   4.439   6.065  1.6710  0.2003  0.4166
15535TIP3   OH268019   5.065   3.459   0.066  0.1245  0.3103 -0.1831
15535TIP3    H168020   5.154   3.429   0.048 -0.2923 -1.4430  0.4248
15535TIP3    H268021   5.052   3.440   0.159 -0.4548  1.7719  0.0548
15536TIP3   OH268022   3.696   0.886   0.884 -0.0727 -0.3082  0.4708
15536TIP3    H168023   3.735   0.815   0.833 -0.0216 -0.2689  0.4555
15536TIP3    H268024   3.742   0.884   0.967 -0.3720 -0.5740  0.6300
15537TIP3   OH268025   3.730   6.782   4.187  0.1656  0.1599  0.2791
15537TIP3    H168026   3.690   6.701   4.153  1.6524 -0.9170  0.9549
15537TIP3    H268027   3.659   6.828   4.231 -0.4594 -1.4043  0.9669
15538TIP3   OH268028   5.389   0.377  12.372  0.2928  0.2088 -0.1953
15538TIP3    H168029   5.477   0.349  12.399  0.8111  1.0702 -0.9386
15538TIP3    H268030   5.405   0.454  12.317 -0.7485 -1.1927 -2.5629
15539TIP3   OH268031   0.115   2.016  12.210  0.2641  0.0001  0.6489
15539TIP3    H168032   0.041   1.957  12.226 -2.2127  0.8161 -5.4181
15539TIP3    H268033   0.178   1.962  12.163  0.1036  1.0087 -0.7642
15540TIP3   OH268034   6.773   0.582   3.264  0.0109 -0.1126  0.2061
15540TIP3    H168035   6.798   0.669   3.293 -1.5639  0.6050 -0.4980
15540TIP3    H268036   6.856   0.542   3.237  0.6854  1.3877 -0.0695
15541TIP3   OH268037   0.915   4.340   2.432  0.5649  0.4354 -0.0732
15541TIP3    H168038   0.909   4.303   2.344 -0.1848 -0.7507  0.4590
15541TIP3    H268039   0.925   4.434   2.417 -1.1104  0.4436 -1.4207
15542TIP3   OH268040   3.827   4.351  12.080 -0.2114 -0.3004  0.0381
15542TIP3    H168041   3.899   4.402  12.043 -0.9695  0.2221 -0.7563
15542TIP3    H268042   3.774   4.415  12.128 -0.4025 -0.5928  0.2208
15543TIP3   OH268043   2.183   0.925   2.366 -0.3380 -0.3117 -0.2400
15543TIP3    H168044   2.121   0.900   2.435  0.9150 -0.4857  0.8669
15543TIP3    H268045   2.147   0.887   2.286  0.1450 -3.5805  0.9406
15544TIP3   OH268046   1.397   4.689  15.287  0.1666 -0.0449 -0.1008
15544TIP3    H168047   1.435   4.772  15.259 -2.2662  1.6669  1.2617
15544TIP3    H268048   1.466   4.648  15.340  1.3583  1.1840 -0.6279
15545TIP3   OH268049   0.436   3.588   4.875  0.3582  0.2484  0.3177
15545TIP3    H168050   0.384   3.509   4.861  1.0728  0.0061 -1.1283
15545TIP3    H268051   0.527   3.559   4.869  0.6327  1.1244  0.0721
15546TIP3   OH268052   4.652   0.563   0.992 -0.3104  0.2817  0.2352
15546TIP3    H168053   4.614   0.500   1.054 -0.4716  0.5797  0.4449
15546TIP3    H268054   4.658   0.644   1.042 -1.5592  0.8479 -0.5063
15547TIP3   OH268055   0.150   5.362  11.865  0.1363 -0.4807  0.4645
15547TIP3    H168056   0.123   5.432  11.806 -0.4205  0.4397  1.7622
15547TIP3    H268057   0.242   5.347  11.844  0.8123  1.9284  1.3371
15548TIP3   OH268058   0.422   3.405  13.027  0.7927  0.3114  0.3937
15548TIP3    H168059   0.334   3.378  13.005  0.6746 -0.1910  1.4119
15548TIP3    H268060   0.413   3.449  13.112  1.5057  0.3027  0.4850
15549TIP3   OH268061   4.075   1.714   1.280 -0.0877  0.3976 -0.5043
15549TIP3    H168062   4.030   1.791   1.244 -0.0299  0.4567 -0.4512
15549TIP3    H268063   4.006   1.665   1.325  0.0667  0.9800  0.4043
15550TIP3   OH268064   3.071   1.007  15.267 -0.8487  0.1744  0.0666
15550TIP3    H168065   3.078   1.055  15.350  0.1122  0.2694 -0.0593
15550TIP3    H268066   3.016   1.063  15.212  0.4935  1.2929 -0.1765
15551TIP3   OH268067   2.977   2.295   1.823 -0.1489  0.5554  0.0093
15551TIP3    H168068   3.058   2.255   1.855 -0.9242 -1.2042 -0.0538
15551TIP3    H268069   2.953   2.242   1.747 -0.3885  2.2361 -1.1341
15552TIP3   OH268070   6.024   1.935   6.082  0.8637 -0.3041  0.0737
15552TIP3    H168071   5.959   1.997   6.115  1.5486  0.2852  0.3396
15552TIP3    H268072   6.089   1.928   6.152  1.6879 -0.0008 -0.6406
15553TIP3   OH268073   5.011   1.249  12.375 -0.0114  0.0858  0.8283
15553TIP3    H168074   5.043   1.257  12.465  0.8988  1.5534  0.4034
15553TIP3    H268075   4.919   1.278  12.379  0.2433  0.8781  1.1675
15554TIP3   OH268076   0.266   3.852  13.747 -0.8909  1.0926 -0.2816
15554TIP3    H168077   0.174   3.846  13.724 -0.1365 -1.4980 -3.2063
15554TIP3    H268078   0.303   3.913  13.684 -0.1982  0.0964 -0.8750
15555TIP3   OH268079   6.149   3.930  11.387 -0.2922  0.0008  0.1193
15555TIP3    H168080   6.070   3.962  11.430  0.1795 -0.1433  1.1024
15555TIP3    H268081   6.128   3.936  11.293 -1.4613 -0.0274  0.3565
15556TIP3   OH268082   5.976   1.863  13.762  0.1470 -0.0588  0.2571
15556TIP3    H168083   6.037   1.819  13.702  1.3242 -1.9250  2.6248
15556TIP3    H268084   6.015   1.949  13.777  0.6942 -0.1837 -0.3972
15557TIP3   OH268085   1.821   2.624  12.286  0.1124 -0.0097 -0.2494
15557TIP3    H168086   1.807   2.623  12.381  0.7576 -0.9616 -0.1608
15557TIP3    H268087   1.914   2.642  12.276  0.0316  0.1626 -0.7139
15558TIP3   OH268088   0.789   3.099  16.159 -0.2109  0.1224 -0.1581
15558TIP3    H168089   0.763   3.081  16.069 -2.0312 -1.8282  0.6495
15558TIP3    H268090   0.850   3.028  16.181 -0.9455 -0.3249  0.5427
15559TIP3   OH268091   0.277   5.325  15.582  0.8110 -0.6639 -0.7844
15559TIP3    H168092   0.222   5.335  15.504  1.0426  2.4319 -0.6682
15559TIP3    H268093   0.247   5.394  15.641  3.8056  0.2052 -0.1224
15560TIP3   OH268094   4.842   5.140   0.065  0.2558  0.3170  0.3450
15560TIP3    H168095   4.925   5.094   0.048 -0.0483 -0.3687  0.6644
15560TIP3    H268096   4.857   5.186   0.147  0.6703  1.0690 -0.1366
15561TIP3   OH268097   2.481   2.073   4.035  0.5794  0.0275 -0.8901
15561TIP3    H168098   2.408   2.134   4.042  0.9906  0.7782 -2.6045
15561TIP3    H268099   2.445   1.997   3.989 -0.0414 -1.2881  1.6110
15562TIP3   OH268100   5.654   5.205   3.287  0.2250 -0.4158  0.2680
15562TIP3    H168101   5.743   5.179   3.309  0.8642  0.9377 -0.5314
15562TIP3    H268102   5.647   5.188   3.193  0.2926  1.1060 -0.0496
15563TIP3   OH268103   1.066   2.301   1.847 -0.2369 -0.7021  0.1475
15563TIP3    H168104   0.998   2.238   1.822  0.8386 -2.1651  0.7592
15563TIP3    H268105   1.145   2.269   1.803  0.0346  1.1588 -0.8319
15564TIP3   OH268106   6.484   1.766  15.200 -0.3032  0.2062  0.2173
15564TIP3    H168107   6.449   1.698  15.142 -0.2065  0.4371 -0.1154
15564TIP3    H268108   6.568   1.789  15.161 -0.6587  1.0255 -0.0739
15565TIP3   OH268109   4.502   3.534  12.379  0.0004  0.1696 -0.0538
15565TIP3    H168110   4.586   3.563  12.415  0.7946 -0.9343 -0.9510
15565TIP3    H268111   4.462   3.485  12.451  1.0672 -1.0648 -0.2605
15566TIP3   OH268112   5.911   2.390  16.259 -0.0896 -0.1831  0.4122
15566TIP3    H168113   6.003   2.378  16.235 -0.5185 -0.2873 -1.3089
15566TIP3    H268114   5.891   2.313  16.313  1.2628  0.7278  2.3486
15567TIP3   OH268115   2.305   5.356   4.792  0.1975  0.0211 -0.0988
15567TIP3    H168116   2.400   5.343   4.801  0.1451  0.8457  2.3333
15567TIP3    H268117   2.266   5.303   4.862 -0.9770  1.2095  0.1900
15568TIP3   OH268118   0.898   3.205   1.161 -0.4633 -0.0177  0.9747
15568TIP3    H168119   0.983   3.161   1.151  1.0053  2.8823 -0.7533
15568TIP3    H268120   0.881   3.202   1.255  1.2138 -1.2276  1.2951
15569TIP3   OH268121   6.605   2.677   6.205 -0.3679 -0.5403  0.3332
15569TIP3    H168122   6.653   2.660   6.125 -0.5870 -2.2913  0.5329
15569TIP3    H268123   6.559   2.760   6.189  2.4642  1.1049  0.0743
15570TIP3   OH268124   2.006   4.233  14.999 -0.0945 -0.0714 -0.2575
15570TIP3    H168125   2.081   4.215  15.056 -1.2728 -1.4334  0.9542
15570TIP3    H268126   1.984   4.325  15.016  1.3895  0.3993 -0.7780
15571TIP3   OH268127   5.947   1.870   4.665 -0.1691  0.5511  0.1415
15571TIP3    H168128   5.944   1.787   4.712 -0.7246  1.1931  1.2627
15571TIP3    H268129   6.027   1.912   4.695  0.2958  0.2947 -0.6898
15572TIP3   OH268130   6.295   5.203   2.999 -0.1269 -0.0022 -0.6543
15572TIP3    H168131   6.325   5.180   2.911 -2.4646  0.8919 -1.7757
15572TIP3    H268132   6.292   5.120   3.046  2.2397 -0.3568 -0.9812
15573TIP3   OH268133   6.588   5.477  11.909 -0.2552 -0.1223 -0.3419
15573TIP3    H168134   6.540   5.440  11.983  1.4263  0.8602  1.3262
15573TIP3    H268135   6.637   5.403  11.873  1.6755  0.0233  1.8139
15574TIP3   OH268136   2.999   3.037  13.267 -0.4007 -0.3135  0.0275
15574TIP3    H168137   3.074   3.013  13.212 -0.2115  2.0700 -0.8872
15574TIP3    H268138   3.023   3.007  13.354  1.8877  0.7506 -0.1499
15575TIP3   OH268139   4.245   4.054  12.151  0.4940 -0.1016 -1.0903
15575TIP3    H168140   4.154   4.085  12.154  0.0976 -1.3060  0.2666
15575TIP3    H268141   4.297   4.135  12.153 -0.5313  0.5835  0.7649
15576TIP3   OH268142   2.137   3.065   3.214  0.1908  0.1468 -0.0066
15576TIP3    H168143   2.116   2.999   3.280  3.0874  0.1901  1.1293
15576TIP3    H268144   2.173   3.138   3.264  0.3669  1.1262 -1.5013
15577TIP3   OH268145   6.775   0.310  11.785 -0.4682 -0.1148 -0.1072
15577TIP3    H168146   6.721   0.370  11.733 -1.3780  0.2334  1.1870
15577TIP3    H268147   6.725   0.297  11.866  1.8364  0.9916  1.5994
15578TIP3   OH268148   0.988   1.513  13.833 -0.0209 -0.2909 -0.1374
15578TIP3    H168149   1.013   1.421  13.824 -0.6356 -0.4553 -0.1653
15578TIP3    H268150   0.900   1.511  13.868  0.4335  0.3067  1.0849
15579TIP3   OH268151   2.085   4.365  10.948  0.0360 -0.4808 -0.3651
15579TIP3    H168152   2.067   4.367  11.042 -0.8307  0.1583 -0.5287
15579TIP3    H268153   2.176   4.392  10.940 -0.1599  0.3864  0.2294
15580TIP3   OH268154   5.298   4.985   4.758  0.0655  0.8056 -0.1066
15580TIP3    H168155   5.386   4.951   4.773  0.0510  0.7382 -0.1750
15580TIP3    H268156   5.292   5.062   4.815 -0.2443  0.1414  0.7867
15581TIP3   OH268157   4.562   6.482  15.086 -0.1195  0.7952  0.0642
15581TIP3    H168158   4.624   6.518  15.023 -0.9320  0.5508 -0.8997
15581TIP3    H268159   4.529   6.558  15.134  0.4965  0.9836  0.1930
15582TIP3   OH268160   0.320   3.411  16.690 -0.2133 -0.0211 -0.0817
15582TIP3    H168161   0.377   3.348  16.645  0.2144  0.0000  0.4226
15582TIP3    H268162   0.370   3.493  16.690 -0.5401  0.1815 -0.2526
15583TIP3   OH268163   1.498   0.954   5.179  0.8378  0.6438  0.3949
15583TIP3    H168164   1.487   0.923   5.089 -0.4076  0.3272  0.6420
15583TIP3    H268165   1.593   0.957   5.192  1.0180  0.0002 -0.6881
15584TIP3   OH268166   2.847   1.558   6.251  0.1769  0.1551  0.2670
15584TIP3    H168167   2.820   1.471   6.281 -0.2826 -0.4393 -1.6821
15584TIP3    H268168   2.935   1.569   6.284 -0.6321  0.0309  2.6360
15585TIP3   OH268169   6.159   5.595  13.640  0.4986  0.5009 -0.1109
15585TIP3    H168170   6.239   5.561  13.599  0.6492 -0.9863  1.3273
15585TIP3    H268171   6.191   5.652  13.710  0.3965 -1.4506  1.6041
15586TIP3   OH268172   5.490   5.300   0.261 -0.4530 -0.0712 -0.3952
15586TIP3    H168173   5.569   5.275   0.307 -0.6450 -2.7649 -1.3276
15586TIP3    H268174   5.512   5.291   0.168 -1.3197  1.0423 -0.7412
15587TIP3   OH268175   4.390   1.682  10.674  0.2495  0.3629  0.0183
15587TIP3    H168176   4.302   1.711  10.654 -0.1217 -0.4547  0.4278
15587TIP3    H268177   4.414   1.624  10.602  0.5698  0.7934 -0.2331
15588TIP3   OH268178   6.647   5.665   6.452  0.2884 -0.8116  0.2344
15588TIP3    H168179   6.609   5.600   6.512 -1.0091 -0.0795  0.2607
15588TIP3    H268180   6.697   5.613   6.389  0.4096 -1.7172  1.0496
15589TIP3   OH268181   0.213   6.093   2.082  0.0807 -0.0770 -0.7466
15589TIP3    H168182   0.284   6.032   2.065  1.5557  1.6398 -1.1180
15589TIP3    H268183   0.176   6.065   2.165 -1.1850 -3.1058 -2.1787
15590TIP3   OH268184   2.922   0.089  14.563  0.3415  0.7362  0.0744
15590TIP3    H168185   2.858   0.086  14.492  0.9807  0.7582 -0.5126
15590TIP3    H268186   3.005   0.110  14.520  0.7650  0.6121  0.8086
15591TIP3   OH268187   1.177   4.240  10.974  0.8374 -0.4703  0.0694
15591TIP3    H168188   1.210   4.228  11.063  0.9986 -1.6610 -0.1446
15591TIP3    H268189   1.113   4.311  10.982  0.9969 -0.4284  1.0979
15592TIP3   OH268190   5.402   2.816  12.866 -0.7205 -0.5377 -0.4854
15592TIP3    H168191   5.472   2.756  12.843 -0.2457 -1.1503  2.2114
15592TIP3    H268192   5.446   2.886  12.915 -1.6772  0.4461 -0.9798
15593TIP3   OH268193   5.189   6.333  12.987  0.4604  0.0574  0.4255
15593TIP3    H168194   5.140   6.341  12.905  1.3154  0.7695 -0.0361
15593TIP3    H268195   5.244   6.255  12.975  2.2249  1.3677 -0.6209
15594TIP3   OH268196   0.127   5.608   1.331 -0.3051  0.4388 -0.6764
15594TIP3    H168197   0.169   5.597   1.416  0.7499 -1.1625 -1.3673
15594TIP3    H268198   0.091   5.697   1.334  1.0695  0.9977  0.8340
15595TIP3   OH268199   3.054   6.252  15.861 -0.1598  0.4582 -0.2038
15595TIP3    H168200   3.014   6.209  15.936  1.5391 -2.5215 -0.8534
15595TIP3    H268201   3.119   6.312  15.898 -3.2720  3.6393  0.7601
15596TIP3   OH268202   3.342   2.474   4.653 -0.4086  0.3375  0.8644
15596TIP3    H168203   3.322   2.462   4.746 -1.8212  0.8977  0.6595
15596TIP3    H268204   3.339   2.568   4.640 -1.7922  0.2007 -0.0439
15597TIP3   OH268205   3.861   2.706  10.867 -0.4672  0.7653 -0.2226
15597TIP3    H168206   3.863   2.611  10.857  1.0388  0.4796  1.9420
15597TIP3    H268207   3.922   2.738  10.801  1.8859 -0.1566  1.3683
15598TIP3   OH268208   4.651   4.090  11.493  0.0050 -0.6271  0.3731
15598TIP3    H168209   4.592   4.144  11.547  0.9161  1.2321 -0.3893
15598TIP3    H268210   4.736   4.098  11.536  0.3603 -0.5907 -0.3307
15599TIP3   OH268211   6.168   1.135   2.934  0.1245  0.2117 -0.5090
15599TIP3    H168212   6.129   1.098   3.013 -0.5322  1.4901 -0.1968
15599TIP3    H268213   6.243   1.079   2.915 -0.2607 -0.6670  0.4768
15600TIP3   OH268214   0.766   3.796   0.597 -0.2140  0.1214 -0.0471
15600TIP3    H168215   0.825   3.732   0.558  1.6710  0.7569  1.5859
15600TIP3    H268216   0.718   3.748   0.664  0.6748  0.2099  0.6792
15601TIP3   OH268217   1.818   3.277   4.561 -0.2476  0.2153 -0.1058
15601TIP3    H168218   1.865   3.322   4.492  1.0027  0.6821  1.0066
15601TIP3    H268219   1.886   3.232   4.612 -1.2183 -0.8915  0.2726
15602TIP3   OH268220   0.539   4.927  12.454 -0.4529 -0.6270 -0.1749
15602TIP3    H168221   0.624   4.898  12.421  0.0268 -1.3638  1.5925
15602TIP3    H268222   0.557   5.012  12.494 -0.3395 -1.1575  0.9402
15603TIP3   OH268223   6.371   6.348   1.971 -0.5011  0.1133  0.4679
15603TIP3    H168224   6.338   6.273   2.020 -1.0928 -0.7800 -1.2561
15603TIP3    H268225   6.378   6.318   1.881 -1.2831  2.2846 -0.3860
15604TIP3   OH268226   5.031   1.306  16.793 -0.2208  0.4091 -0.2440
15604TIP3    H168227   4.997   1.339  16.710 -0.3789  2.0068  0.4331
15604TIP3    H268228   5.008   1.373  16.857 -2.6540 -2.0284  1.6757
15605TIP3   OH268229   3.923   0.841   6.535 -0.2907 -0.7238 -0.4536
15605TIP3    H168230   3.974   0.922   6.541 -1.2320 -0.0753 -0.8554
15605TIP3    H268231   3.841   0.868   6.493 -1.5472 -1.4511  1.3982
15606TIP3   OH268232   4.482   4.635  14.293  0.0583 -0.0592  0.7410
15606TIP3    H168233   4.545   4.666  14.358  0.4696  0.2580  0.2001
15606TIP3    H268234   4.533   4.581  14.233 -0.4833 -1.0597  1.1537
15607TIP3   OH268235   4.398   1.320   4.287  0.1040  0.0300 -0.7888
15607TIP3    H168236   4.488   1.288   4.293 -0.1958 -0.8817 -1.0571
15607TIP3    H268237   4.362   1.308   4.374 -0.1203 -0.7347 -0.9773
15608TIP3   OH268238   0.411   1.413   1.730 -0.0070  0.2144  1.0886
15608TIP3    H168239   0.477   1.355   1.769  0.8392  1.6610  1.8827
15608TIP3    H268240   0.442   1.429   1.641 -0.0934 -0.3057  0.9616
15609TIP3   OH268241   3.929   3.122  15.289  0.0774  0.2543  0.0342
15609TIP3    H168242   3.989   3.069  15.237  0.6287 -0.4065  1.3115
15609TIP3    H268243   3.974   3.135  15.372 -0.5124  1.8345  0.1397
15610TIP3   OH268244   6.624   3.056   2.738  0.0605 -0.7490 -0.5822
15610TIP3    H168245   6.641   3.071   2.831  0.5643 -2.3147 -0.3861
15610TIP3    H268246   6.706   3.021   2.704  0.6952  2.0121 -2.2081
15611TIP3   OH268247   0.374   0.651  16.879  0.8292  0.2380  0.4454
15611TIP3    H168248   0.463   0.615  16.882  1.2128  0.7400 -2.3088
15611TIP3    H268249   0.379   0.723  16.816 -1.7992 -0.6267 -0.9145
15612TIP3   OH268250   6.216   4.707  12.999 -0.1725 -0.7677  0.4606
15612TIP3    H168251   6.299   4.748  12.978 -0.0052 -1.3232  0.0025
15612TIP3    H268252   6.241   4.628  13.048 -0.5130  0.0048  1.9264
15613TIP3   OH268253   1.366   5.194   0.885  0.6278 -0.2774  0.5663
15613TIP3    H168254   1.296   5.242   0.930  0.2103  1.0799 -1.4129
15613TIP3    H268255   1.321   5.122   0.840  1.0439 -1.6263  2.1907
15614TIP3   OH268256   1.916   5.538   0.196 -0.1050 -0.2319 -0.0358
15614TIP3    H168257   1.866   5.465   0.161 -2.1292  0.7558  0.6424
15614TIP3    H268258   1.876   5.616   0.157  0.3729  0.6294  1.1390
15615TIP3   OH268259   1.831   5.260  12.556  0.4348  0.0167  0.3925
15615TIP3    H168260   1.919   5.296  12.569  0.3637 -0.2258  1.6886
15615TIP3    H268261   1.812   5.276  12.463  1.6035  0.5988  0.2331
15616TIP3   OH268262   0.646   2.562  13.678  0.2203 -0.2668  0.0108
15616TIP3    H168263   0.697   2.621  13.621  1.4468 -1.3736 -0.0813
15616TIP3    H268264   0.588   2.621  13.727 -0.8450  0.7390 -2.3052
15617TIP3   OH268265   6.419   4.274   1.856  0.1375  0.5543 -0.0392
15617TIP3    H168266   6.499   4.248   1.903  0.1714 -0.1170 -0.4537
15617TIP3    H268267   6.365   4.195   1.855  0.1508  0.5430 -1.1491
15618TIP3   OH268268   3.002   0.799  13.319  0.2731  0.1414 -1.0919
15618TIP3    H168269   2.981   0.861  13.389  2.4126  2.9356 -2.6998
15618TIP3    H268270   3.017   0.716  13.364 -1.6148  0.9831  1.3181
15619TIP3   OH268271   3.407   0.996   1.169 -0.0617 -0.1452 -1.2694
15619TIP3    H168272   3.480   1.026   1.115  1.2613 -1.5640 -0.3512
15619TIP3    H268273   3.396   0.904   1.145  0.9819 -0.9991  1.2640
15620TIP3   OH268274   0.442   2.316  16.989 -0.1067 -0.2760 -0.3135
15620TIP3    H168275   0.439   2.410  17.007  0.4712  0.0401 -1.7695
15620TIP3    H268276   0.507   2.306  16.920 -1.2838 -1.5662 -1.2935
15621TIP3   OH268277   6.753   5.812  12.311 -0.0133 -0.0113 -0.3451
15621TIP3    H168278   6.743   5.850  12.223  1.1536  1.1974  0.0152
15621TIP3    H268279   6.723   5.722  12.301 -0.0945  0.1585 -1.9474
15622TIP3   OH268280   6.241   5.633   1.479  0.3763 -0.1909 -0.7968
15622TIP3    H168281   6.224   5.584   1.399 -0.1758 -2.0839  0.3980
15622TIP3    H268282   6.160   5.626   1.530  0.3452  1.8674 -0.4841
15623TIP3   OH268283   2.738   0.689   1.574 -0.1906  0.8744  0.0435
15623TIP3    H168284   2.833   0.685   1.565 -0.2209  1.5304 -0.7312
15623TIP3    H268285   2.707   0.723   1.490 -1.4196 -2.5166 -1.0356
15624TIP3   OH268286   4.966   3.023   3.521 -0.0241  0.6337 -0.1553
15624TIP3    H168287   4.909   3.038   3.446 -0.7560 -1.6757 -0.1291
15624TIP3    H268288   5.051   2.999   3.483 -0.1101  0.4484 -0.2283
15625TIP3   OH268289   2.407   5.014  10.907 -0.0015  0.1847 -0.0812
15625TIP3    H168290   2.410   4.923  10.878 -1.0759  0.1790 -0.2187
15625TIP3    H268291   2.435   5.064  10.830  3.0738 -0.1008  0.7143
15626TIP3   OH268292   4.872   2.256   0.756  0.5803  0.3648 -0.0394
15626TIP3    H168293   4.842   2.173   0.792  1.1059  0.1347 -0.1268
15626TIP3    H268294   4.849   2.321   0.823 -0.2391  0.2195 -0.1707
15627TIP3   OH268295   0.672   5.490   6.318 -0.2511  0.0102 -0.0990
15627TIP3    H168296   0.645   5.485   6.410 -0.1533 -0.8787 -0.1045
15627TIP3    H268297   0.687   5.399   6.293 -1.8799  0.0839 -1.4954
15628TIP3   OH268298   0.110   5.390   5.670  0.4740  0.2111  0.8341
15628TIP3    H168299   0.040   5.371   5.734 -0.1093 -0.4133  0.0251
15628TIP3    H268300   0.141   5.478   5.694 -0.4011  0.3828  1.3792
15629TIP3   OH268301   1.042   4.186  12.331 -0.0788 -0.2009  0.5114
15629TIP3    H168302   1.068   4.227  12.248 -1.1619  1.3369  0.8778
15629TIP3    H268303   1.007   4.258  12.383 -0.2050 -1.2855  1.9973
15630TIP3   OH268304   3.324   1.222  12.456 -0.0658  0.2448  0.0296
15630TIP3    H168305   3.385   1.213  12.383 -0.3904  0.9734 -0.3421
15630TIP3    H268306   3.311   1.316  12.465 -0.2049  0.1529  0.8868
15631TIP3   OH268307   5.464   2.191  11.410 -0.0582 -0.5027  0.7706
15631TIP3    H168308   5.524   2.185  11.335 -0.2678  0.5708  0.5031
15631TIP3    H268309   5.473   2.107  11.454 -0.3102 -1.3656 -0.7555
15632TIP3   OH268310   2.439   3.879   4.890 -0.1751  0.6299 -0.1856
15632TIP3    H168311   2.496   3.886   4.814  0.2695 -3.8598 -0.5351
15632TIP3    H268312   2.460   3.794   4.928 -4.2303  0.2502  1.7148
15633TIP3   OH268313   2.448   0.693  14.781  0.2560  0.1685 -0.1905
15633TIP3    H168314   2.367   0.719  14.737 -0.0688  1.6076  1.1708
15633TIP3    H268315   2.462   0.603  14.752 -2.2842 -0.4394  0.1687
15634TIP3   OH268316   0.925   6.117   3.925 -0.2043  0.3491  0.7927
15634TIP3    H168317   0.926   6.169   3.845 -1.8355  1.8872  1.7007
15634TIP3    H268318   0.968   6.173   3.990 -0.7595  0.0050  1.4670
15635TIP3   OH268319   0.968   0.620  11.717  0.2848  0.0437 -0.0150
15635TIP3    H168320   0.977   0.677  11.641 -0.3408  0.1533 -0.0163
15635TIP3    H268321   0.879   0.637  11.749 -0.4551 -1.9295 -0.8420
15636TIP3   OH268322   5.836   5.470  14.025 -0.2072  0.0579  0.1036
15636TIP3    H168323   5.794   5.438  13.946  0.8335  1.1953 -0.9563
15636TIP3    H268324   5.780   5.542  14.054 -0.4695 -0.2148  0.2728
15637TIP3   OH268325   1.816   6.052   5.109  0.2785 -0.1651  0.3219
15637TIP3    H168326   1.742   5.995   5.131 -0.1716  0.6699  1.0272
15637TIP3    H268327   1.801   6.076   5.018 -0.1631 -0.2331  0.3730
15638TIP3   OH268328   0.500   1.504  16.779  0.0020  0.2517  0.1881
15638TIP3    H168329   0.533   1.536  16.695 -0.7565  1.1134  0.2044
15638TIP3    H268330   0.445   1.575  16.812 -1.6679 -1.0048  0.2840
15639TIP3   OH268331   2.477   6.053  11.577 -0.1972  0.3369  0.8602
15639TIP3    H168332   2.382   6.038  11.570  0.0504 -1.6154  1.1645
15639TIP3    H268333   2.487   6.104  11.657 -0.9114 -0.4817  1.4872
15640TIP3   OH268334   0.086   3.341   5.170 -0.2761 -0.5028 -1.2203
15640TIP3    H168335   0.048   3.272   5.117 -1.5052 -0.0602 -0.9380
15640TIP3    H268336   0.045   3.422   5.139 -1.0636 -0.2326  0.3841
15641TIP3   OH268337   3.185   5.400  15.872  0.1193 -0.4147  0.0642
15641TIP3    H168338   3.138   5.480  15.846  0.0595  0.3405  2.3028
15641TIP3    H268339   3.124   5.329  15.852 -0.5368  0.2462 -0.3429
15642TIP3   OH268340   4.246   3.209  13.353  0.3826 -0.0203 -0.2700
15642TIP3    H168341   4.334   3.188  13.321  0.5031  1.1414 -0.7538
15642TIP3    H268342   4.256   3.210  13.449  0.5143 -1.4012 -0.2393
15643TIP3   OH268343   4.169   6.011   3.051  0.0722 -0.5974  0.3357
15643TIP3    H168344   4.262   6.002   3.067  0.1800 -0.9082 -0.3930
15643TIP3    H268345   4.157   6.103   3.026  0.2239 -0.6144  0.1971
15644TIP3   OH268346   5.546   4.541  13.062  0.0669  0.1058  0.0377
15644TIP3    H168347   5.624   4.575  13.106 -0.4156  0.0721  0.9434
15644TIP3    H268348   5.575   4.525  12.972  0.9325  0.6890  0.1910
15645TIP3   OH268349   4.671   4.620  13.322 -0.0614 -0.0706  0.0975
15645TIP3    H168350   4.742   4.556  13.325  0.3216 -0.2443 -4.8989
15645TIP3    H268351   4.712   4.701  13.291 -1.6916  0.3771 -1.0273
15646TIP3   OH268352   4.628   1.220   0.001 -0.3467 -1.1991 -0.2286
15646TIP3    H168353   4.596   1.189  -0.084 -0.3173 -1.2064 -0.2373
15646TIP3    H268354   4.611   1.314  -0.000  0.9342 -0.9486 -0.8297
15647TIP3   OH268355   6.360   2.257  11.297 -0.2986 -0.1872  0.4091
15647TIP3    H168356   6.287   2.238  11.356  0.0824  0.0220  0.9634
15647TIP3    H268357   6.357   2.189  11.230 -0.2252 -0.9385  1.1591
15648TIP3   OH268358   5.956   6.355  16.219 -0.0167  0.5083  0.4067
15648TIP3    H168359   6.021   6.395  16.160  0.0180 -0.1587 -0.0152
15648TIP3    H268360   5.933   6.425  16.280  0.3802  1.0406 -0.0422
15649TIP3   OH268361   3.037   3.861  11.750 -0.4191 -0.1183 -0.4646
15649TIP3    H168362   3.079   3.915  11.817 -2.0319  0.4037  0.1726
15649TIP3    H268363   3.098   3.789  11.736  0.9700  0.9151 -0.0511
15650TIP3   OH268364   2.969   2.383   1.376 -0.1250  0.2942 -0.7633
15650TIP3    H168365   2.988   2.298   1.337 -0.3353 -0.0299 -0.1683
15650TIP3    H268366   3.026   2.388   1.452 -0.2856  0.5815 -0.6591
15651TIP3   OH268367   0.443   2.578  16.703  0.4124 -0.2120  0.0717
15651TIP3    H168368   0.452   2.626  16.786  0.7381 -0.0458 -0.0544
15651TIP3    H268369   0.395   2.637  16.646  2.7954  0.9978 -0.8475
15652TIP3   OH268370   4.990   0.711   2.562 -0.3847 -0.1144 -0.5668
15652TIP3    H168371   5.010   0.617   2.569 -2.6470 -0.5349  1.8589
15652TIP3    H268372   5.026   0.749   2.642  0.7647  1.1943 -1.6599
15653TIP3   OH268373   4.678   5.290   1.600 -0.2712 -0.1226  0.1407
15653TIP3    H168374   4.657   5.325   1.687 -0.2838 -0.7191  0.3775
15653TIP3    H268375   4.614   5.221   1.585  0.5167 -0.8743  0.1951
15654TIP3   OH268376   1.400   1.082  11.006 -0.6926 -0.1251 -0.2479
15654TIP3    H168377   1.424   1.027  10.931  0.7145 -0.9902  0.7829
15654TIP3    H268378   1.462   1.156  11.002 -0.0245 -0.6231  0.5181
15655TIP3   OH268379   3.351   5.365   0.665 -0.5125 -0.0053 -0.0232
15655TIP3    H168380   3.380   5.275   0.650  0.2038 -0.0520  1.4262
15655TIP3    H268381   3.385   5.386   0.752  0.1171  1.9737 -0.6955
15656TIP3   OH268382   0.087   1.343  15.421 -0.0729 -0.2742  0.4716
15656TIP3    H168383   0.086   1.405  15.348  0.1579  0.5308  1.1378
15656TIP3    H268384   0.015   1.283  15.402 -0.7641  0.6174  0.1683
15657TIP3   OH268385   4.218   5.893   6.249 -0.1789 -0.7395 -0.0028
15657TIP3    H168386   4.247   5.963   6.190 -0.7420 -1.6933 -1.4703
15657TIP3    H268387   4.133   5.923   6.282  0.7106  0.3763  1.3830
15658TIP3   OH268388   2.944   0.469  11.228  0.1127 -0.4249 -0.1100
15658TIP3    H168389   3.038   0.480  11.213  0.4679 -2.3521  0.4103
15658TIP3    H268390   2.937   0.382  11.268 -1.8754 -0.2040  0.0777
15659TIP3   OH268391   0.990   6.325  16.680  0.1574 -0.1665 -0.0151
15659TIP3    H168392   1.073   6.296  16.719  0.9658  1.2076 -0.6344
15659TIP3    H268393   0.991   6.420  16.692 -1.4076 -0.1514  0.0938
15660TIP3   OH268394   1.301   3.501  11.288 -0.2682 -0.2054  0.0422
15660TIP3    H168395   1.230   3.501  11.224  0.7380 -3.1611 -1.2548
15660TIP3    H268396   1.379   3.475  11.239  1.1746  0.2777  1.9290
15661TIP3   OH268397   2.384   6.614   4.661 -0.5841 -0.8883  0.2670
15661TIP3    H168398   2.392   6.548   4.592  0.7454 -0.8181  0.3264
15661TIP3    H268399   2.374   6.697   4.615  2.4854 -0.5383  0.0168
15662TIP3   OH268400   4.340   4.801   5.422 -0.0263 -0.0073  0.6860
15662TIP3    H168401   4.265   4.754   5.460 -0.5827  1.7052  1.8297
15662TIP3    H268402   4.374   4.853   5.495  1.4076  0.3340 -0.1971
15663TIP3   OH268403   5.180   6.145   4.325 -0.0911  0.0601  0.4031
15663TIP3    H168404   5.258   6.166   4.275 -0.1004 -0.2720  0.2471
15663TIP3    H268405   5.108   6.149   4.262 -0.0198 -1.0237  0.2237
15664TIP3   OH268406   3.311   5.590   0.520 -0.3152 -0.1480  0.4563
15664TIP3    H168407   3.385   5.575   0.461  0.9863  1.6865  1.5155
15664TIP3    H268408   3.314   5.517   0.581 -0.5848 -1.1052 -0.6414
15665TIP3   OH268409   1.786   4.139  11.332 -0.0279  0.3098 -0.1036
15665TIP3    H168410   1.764   4.087  11.255 -1.3349 -1.4420  1.3837
15665TIP3    H268411   1.703   4.151  11.378  1.0204 -0.6852  2.2169
15666TIP3   OH268412   1.064   2.979   3.590 -0.1824  0.4577  0.2936
15666TIP3    H168413   1.103   2.912   3.646  0.6249 -0.0655 -0.8643
15666TIP3    H268414   0.979   2.943   3.565  0.6061 -0.5753 -1.0337
15667TIP3   OH268415   3.802   4.335  16.651 -0.0432 -0.2875 -0.1029
15667TIP3    H168416   3.721   4.291  16.679  0.4760 -0.1637  1.7830
15667TIP3    H268417   3.841   4.364  16.733  1.3879  0.5960 -1.0761
15668TIP3   OH268418   5.949   2.430  11.239  0.2019  0.3191  0.3775
15668TIP3    H168419   5.978   2.458  11.326 -1.2607 -0.0855  1.0295
15668TIP3    H268420   5.978   2.339  11.232 -1.7819 -0.4709  1.5093
15669TIP3   OH268421   3.036   0.971   3.395 -0.2897 -0.3214  0.0963
15669TIP3    H168422   3.095   0.931   3.459 -0.1070  1.4368  1.0780
15669TIP3    H268423   2.981   0.898   3.366  1.0829 -1.6109  0.5854
15670TIP3   OH268424   4.683   2.203   5.014  0.1736 -0.3767 -0.2900
15670TIP3    H168425   4.741   2.167   5.081  0.7866 -0.4834 -0.8679
15670TIP3    H268426   4.726   2.284   4.985 -0.8851  0.5226  0.5619
15671TIP3   OH268427   6.277   1.567   2.642 -0.0468  0.2070  0.0668
15671TIP3    H168428   6.182   1.580   2.643 -0.2220 -0.5903 -1.7906
15671TIP3    H268429   6.304   1.591   2.554  1.7004  1.6381  0.9250
15672TIP3   OH268430   1.827   3.275   5.026 -0.4336  0.0657  0.0726
15672TIP3    H168431   1.745   3.270   5.075 -0.4139 -1.4623 -0.0038
15672TIP3    H268432   1.895   3.275   5.094 -0.4001 -2.2267  0.1225
15673TIP3   OH268433   3.240   3.258   3.053 -0.1508 -0.3191 -0.0058
15673TIP3    H168434   3.310   3.201   3.020 -0.6798  0.2243 -2.2288
15673TIP3    H268435   3.248   3.253   3.148  3.3057  0.1739 -0.1296
15674TIP3   OH268436   1.322   6.155  16.476 -1.0238 -0.0571  0.0924
15674TIP3    H168437   1.251   6.131  16.536 -0.0163 -1.9519  0.6062
15674TIP3    H268438   1.324   6.084  16.412  2.0842 -1.5578  1.6461
15675TIP3   OH268439   4.121   4.971   3.726  0.2768  0.1722 -0.9313
15675TIP3    H168440   4.197   4.919   3.750 -1.2918 -2.1648 -0.7389
15675TIP3    H268441   4.129   4.985   3.632  0.6481 -0.5261 -1.0041
15676TIP3   OH268442   4.747   5.087   0.629 -0.4946  0.5989  0.3466
15676TIP3    H168443   4.656   5.067   0.609 -0.7303  1.2176  0.7861
15676TIP3    H268444   4.743   5.163   0.687  0.1346 -1.1501  2.8654
15677TIP3   OH268445   4.907   2.746  13.439 -0.0541  0.1262 -0.1487
15677TIP3    H168446   4.917   2.656  13.408 -1.7470 -0.1753  0.0995
15677TIP3    H268447   4.929   2.800  13.363 -1.7639 -0.5626 -1.1836
15678TIP3   OH268448   4.132   0.883  10.279  0.2701  0.6097  0.0176
15678TIP3    H168449   4.141   0.789  10.260  3.5194  0.6949  0.5339
15678TIP3    H268450   4.126   0.887  10.375  1.4877  0.9341  0.1011
15679TIP3   OH268451   2.512   6.636   4.259 -0.7346  0.2440  0.1455
15679TIP3    H168452   2.558   6.650   4.342  0.4166 -1.0624 -0.2399
15679TIP3    H268453   2.421   6.624   4.284 -0.6087  1.0756  1.0999
15680TIP3   OH268454   4.495   4.068  14.581  0.3634  0.1190  0.3873
15680TIP3    H168455   4.585   4.074  14.614  0.3447  0.7740  0.3264
15680TIP3    H268456   4.446   4.128  14.637  0.0106 -0.0528  0.2605
15681TIP3   OH268457   3.029   6.498  16.202  0.0511 -0.4274  0.1055
15681TIP3    H168458   3.054   6.588  16.219  1.1725 -0.3497 -1.7007
15681TIP3    H268459   3.103   6.446  16.231  0.6487 -0.5132 -1.4745
15682TIP3   OH268460   3.108   5.592  12.884 -0.0328 -0.3613  0.1810
15682TIP3    H168461   3.163   5.515  12.879 -0.0303 -0.4251  1.0536
15682TIP3    H268462   3.106   5.626  12.795  0.5471 -0.9600 -0.0663
15683TIP3   OH268463   6.721   5.313   5.857 -0.1269 -0.3480  0.0765
15683TIP3    H168464   6.750   5.230   5.818 -0.9769  0.0563 -1.5105
15683TIP3    H268465   6.753   5.309   5.947  1.1943 -1.7143 -0.3976
15684TIP3   OH268466   2.219   0.425   0.856 -0.2607  0.1395  0.4391
15684TIP3    H168467   2.268   0.443   0.776  1.4039  0.6721  1.5160
15684TIP3    H268468   2.192   0.511   0.888 -1.4853 -0.1153  0.1400
15685TIP3   OH268469   2.502   3.574   6.045 -0.3115 -0.3247  0.1787
15685TIP3    H168470   2.571   3.542   5.987  0.1273  1.7147 -0.5094
15685TIP3    H268471   2.467   3.495   6.087  2.4560 -1.4291  0.6029
15686TIP3   OH268472   1.332   6.634  12.243  0.4940  0.0454 -0.3431
15686TIP3    H168473   1.338   6.722  12.281 -1.7757 -0.7740  2.2410
15686TIP3    H268474   1.241   6.627  12.213 -0.1184 -2.1626  1.7460
15687TIP3   OH268475   3.309   5.493  11.062  0.3025 -0.2371 -0.4805
15687TIP3    H168476   3.329   5.449  10.980 -0.4367 -0.0339 -0.7781
15687TIP3    H268477   3.337   5.583  11.048  0.9439 -0.3877 -0.2066
15688TIP3   OH268478   0.144   5.987  16.616 -0.2089  0.1306 -0.4006
15688TIP3    H168479   0.236   6.012  16.624 -0.0664 -0.8182  1.5350
15688TIP3    H268480   0.135   5.956  16.526  1.7919 -1.3547 -0.1431
15689TIP3   OH268481   4.617   4.391  11.862 -0.7098  0.1855  0.4815
15689TIP3    H168482   4.601   4.317  11.920 -0.4069 -1.1073 -1.0104
15689TIP3    H268483   4.688   4.439  11.903 -0.9760 -0.3004  1.5320
15690TIP3   OH268484   1.815   1.475   5.830 -0.3882  0.8092  0.3694
15690TIP3    H168485   1.895   1.476   5.883  0.0792  0.7209 -0.3155
15690TIP3    H268486   1.766   1.551   5.860 -0.8922 -0.1062  2.0289
15691TIP3   OH268487   0.864   5.824  11.945  0.2734 -0.1136 -0.5746
15691TIP3    H168488   0.881   5.862  12.032  1.0787 -0.1497 -0.7091
15691TIP3    H268489   0.834   5.735  11.964  0.5256 -0.1486 -0.3390
15692TIP3   OH268490   3.111   2.033  11.263 -0.3853 -0.3541 -0.2464
15692TIP3    H168491   3.075   2.120  11.251 -0.3817 -0.3081  0.0678
15692TIP3    H268492   3.174   2.023  11.192  1.7049  1.0013  1.3090
15693TIP3   OH268493   4.915   1.060   5.770 -0.2670 -0.3281 -0.1658
15693TIP3    H168494   4.887   1.145   5.805  2.1807  0.9469 -1.0435
15693TIP3    H268495   4.952   1.081   5.685  0.8175 -2.2396 -0.2120
15694TIP3   OH268496   6.474   4.388  10.493  0.6230  0.6897  0.0586
15694TIP3    H168497   6.414   4.383  10.567 -0.1977  0.3004 -0.6072
15694TIP3    H268498   6.561   4.370  10.530  0.5383  2.5990  1.2704
15695TIP3   OH268499   3.891   6.565   1.388 -0.2253 -0.0289 -0.0384
15695TIP3    H168500   3.873   6.473   1.368 -0.5079 -0.3100  1.4196
15695TIP3    H268501   3.826   6.588   1.455  0.9970  0.6985  0.9394
15696TIP3   OH268502   3.598   3.117  12.365  0.5319 -0.1236 -0.4977
15696TIP3    H168503   3.526   3.174  12.339  0.2072  0.0608  0.7151
15696TIP3    H268504   3.591   3.040  12.308 -1.0366 -0.3962  0.0263
15697TIP3   OH268505   4.419   0.879  14.800  0.4415  0.5004  0.2929
15697TIP3    H168506   4.450   0.966  14.774  2.1347  0.1014  0.8299
15697TIP3    H268507   4.462   0.819  14.739  0.5222 -0.0573  0.8772
15698TIP3   OH268508   3.033   2.209   3.475 -0.2596 -0.6707 -0.1662
15698TIP3    H168509   3.013   2.283   3.532  0.0084 -2.0760  1.8463
15698TIP3    H268510   2.955   2.199   3.421  0.3582  2.1452 -1.8163
15699TIP3   OH268511   0.840   1.516   3.370  0.1058 -0.1810 -0.3883
15699TIP3    H168512   0.872   1.502   3.459  1.8657  4.5558  0.0139
15699TIP3    H268513   0.875   1.442   3.320  0.4028 -2.1570  2.4806
15700TIP3   OH268514   0.095   4.399  12.180  0.0493 -0.2857  0.2101
15700TIP3    H168515   0.153   4.377  12.107  0.5924 -0.9714  0.8362
15700TIP3    H268516   0.007   4.381  12.147 -0.2765  4.0396 -2.0264
15701TIP3   OH268517   1.931   1.237   6.086  0.3921 -0.1152  0.0962
15701TIP3    H168518   1.844   1.215   6.051  0.6250  0.0040 -0.5736
15701TIP3    H268519   1.959   1.313   6.035  1.0387 -0.3679  0.0633
15702TIP3   OH268520   4.753   6.521  10.762 -0.3565 -0.1650 -0.4276
15702TIP3    H168521   4.749   6.511  10.857 -0.1652  0.1773 -0.3821
15702TIP3    H268522   4.759   6.431  10.729 -0.2356 -0.2753 -0.1072
15703TIP3   OH268523   4.619   2.490   5.407  0.1547 -0.1145 -0.3849
15703TIP3    H168524   4.605   2.397   5.390  0.3894 -0.5082  1.4349
15703TIP3    H268525   4.592   2.533   5.326  0.3551 -1.7781 -1.3803
15704TIP3   OH268526   4.201   0.848   1.347 -0.1567  0.1837  0.1775
15704TIP3    H168527   4.241   0.922   1.301  0.3936 -0.0004  0.3599
15704TIP3    H268528   4.126   0.887   1.392  0.1355  0.6338  0.2860
15705TIP3   OH268529   6.188   6.808  13.917 -0.3232 -0.2444  0.6025
15705TIP3    H168530   6.221   6.720  13.935  0.1598 -0.0644  0.6016
15705TIP3    H268531   6.094   6.802  13.935 -0.4860 -1.0411 -0.4599
15706TIP3   OH268532   5.049   3.679  15.856  0.0341  0.1018  0.5683
15706TIP3    H168533   5.071   3.686  15.763 -0.8230 -1.3107  0.2214
15706TIP3    H268534   4.956   3.656  15.856 -0.8908  3.3485  1.8959
15707TIP3   OH268535   1.651   6.444  11.961 -0.2401  0.3089  0.2812
15707TIP3    H168536   1.727   6.456  11.904 -0.1582  0.2951  0.3883
15707TIP3    H268537   1.676   6.373  12.020 -0.9805 -0.9198 -0.8259
15708TIP3   OH268538   2.745   3.798   3.929  0.0091  0.0672  0.4337
15708TIP3    H168539   2.668   3.831   3.883 -0.5359 -1.7215 -0.0365
15708TIP3    H268540   2.710   3.738   3.995  0.8401  1.8225  2.6046
15709TIP3   OH268541   4.322   6.719  14.109  0.5385 -0.2159 -0.5627
15709TIP3    H168542   4.380   6.795  14.118  1.1374 -0.4500 -2.1169
15709TIP3    H268543   4.372   6.646  14.145  0.0896  0.0420  0.6341
15710TIP3   OH268544   3.877   0.501  14.171  0.5366 -0.0099  0.2364
15710TIP3    H168545   3.787   0.526  14.149  1.0124  1.4023 -0.1951
15710TIP3    H268546   3.915   0.473  14.089  0.5143 -0.5433  0.4060
15711TIP3   OH268547   3.046   5.598  16.383  0.2799 -0.5828  0.1095
15711TIP3    H168548   3.017   5.590  16.292  0.6828  1.6098 -0.2636
15711TIP3    H268549   2.970   5.572  16.435 -0.1391 -1.2934 -0.8350
15712TIP3   OH268550   3.843   1.270   0.185 -0.4993  0.1443 -0.0432
15712TIP3    H168551   3.831   1.335   0.254  3.8590 -1.5735  2.8259
15712TIP3    H268552   3.904   1.311   0.123 -0.9333  0.1750 -0.4516
15713TIP3   OH268553   5.133   4.389  13.403 -0.2797  0.1152  0.0206
15713TIP3    H168554   5.155   4.312  13.455 -0.5833 -1.6054 -2.2691
15713TIP3    H268555   5.188   4.384  13.326  0.9651  3.2104  0.5486
15714TIP3   OH268556   5.926   0.134  16.451 -0.1896  0.2462  0.3628
15714TIP3    H168557   5.924   0.165  16.360  0.6768 -1.3111 -0.2175
15714TIP3    H268558   5.842   0.161  16.487 -0.2686  1.5192 -0.6668
15715TIP3   OH268559   5.020   4.903   2.695 -0.3076  0.6811  0.2356
15715TIP3    H168560   4.939   4.854   2.708 -0.0601 -0.1795 -1.2523
15715TIP3    H268561   5.080   4.868   2.761  0.6315 -2.8632 -2.2127
15716TIP3   OH268562   4.988   6.374  16.057 -0.4339  0.1078  0.5830
15716TIP3    H168563   4.967   6.447  15.998 -2.4694 -0.8359  0.0569
15716TIP3    H268564   4.992   6.414  16.144 -0.8285  0.9556  0.2247
15717TIP3   OH268565   5.949   4.819  15.590 -0.3459  0.4095 -0.2985
15717TIP3    H168566   5.870   4.764  15.580  0.1641 -0.2265 -0.9388
15717TIP3    H268567   5.940   4.886  15.522 -0.0981  0.0409 -0.6992
15718TIP3   OH268568   3.843   3.497  13.332  0.2583 -0.3754 -0.3426
15718TIP3    H168569   3.868   3.589  13.340 -1.9266  0.3642 -1.1402
15718TIP3    H268570   3.897   3.463  13.261  0.8966  0.3689 -0.2257
15719TIP3   OH268571   1.698   4.578   5.254  0.1655 -0.0951 -0.1570
15719TIP3    H168572   1.773   4.595   5.312 -0.4596  0.0958  0.6252
15719TIP3    H268573   1.726   4.610   5.168 -0.4513  3.9308  0.9122
15720TIP3   OH268574   0.539   2.288  14.424 -0.5523  0.1283 -0.2018
15720TIP3    H168575   0.611   2.323  14.372 -0.6272  1.9196  0.8218
15720TIP3    H268576   0.578   2.217  14.475 -0.0082 -0.2517 -1.1128
15721TIP3   OH268577   2.962   6.547   4.533 -0.5586 -0.0989 -0.0846
15721TIP3    H168578   2.960   6.485   4.606  0.4177  1.8256  1.7114
15721TIP3    H268579   3.013   6.621   4.567 -0.1102  0.9098 -2.7418
15722TIP3   OH268580   1.399   5.947   4.138  0.4094 -0.3449  0.2204
15722TIP3    H168581   1.408   6.036   4.104  0.6759  0.1393  1.4976
15722TIP3    H268582   1.377   5.894   4.061  1.6506  0.5693 -0.8185
15723TIP3   OH268583   3.175   5.745  11.840 -0.0948 -0.2422  0.5247
15723TIP3    H168584   3.204   5.789  11.919  0.5852 -2.0453  1.3245
15723TIP3    H268585   3.255   5.713  11.798 -0.3896  1.1464 -1.2110
15724TIP3   OH268586   6.437   6.384   3.183  0.5187 -0.3500  0.1295
15724TIP3    H168587   6.416   6.464   3.135 -1.1940 -0.7438  0.1564
15724TIP3    H268588   6.407   6.313   3.125  2.9855 -1.0571 -0.3733
15725TIP3   OH268589   0.751   0.674   4.538 -0.5222  0.2113 -0.1483
15725TIP3    H168590   0.842   0.678   4.509  0.2108  0.3126  2.0308
15725TIP3    H268591   0.703   0.718   4.468  1.2712  1.4122 -0.7120
15726TIP3   OH268592   3.742   2.116  13.776  0.2482  0.1637 -0.2992
15726TIP3    H168593   3.827   2.153  13.754  1.0518 -0.4708  1.5589
15726TIP3    H268594   3.761   2.025  13.799 -0.9173  0.0270  0.2005
15727TIP3   OH268595   6.573   4.131   3.913 -0.2113  0.3066 -0.4274
15727TIP3    H168596   6.626   4.190   3.859  1.3627 -1.1056 -0.5044
15727TIP3    H268597   6.568   4.050   3.862  0.7035 -0.8252  1.2149
15728TIP3   OH268598   4.784   6.242   1.769  0.0207 -0.2574  0.1308
15728TIP3    H168599   4.767   6.183   1.696 -1.0645 -0.4185  0.4960
15728TIP3    H268600   4.704   6.239   1.822 -0.3651  2.0469 -0.2111
15729TIP3   OH268601   5.690   3.806  11.672  0.6369 -0.1283  0.3263
15729TIP3    H168602   5.608   3.790  11.718  0.1506 -1.4863 -0.9288
15729TIP3    H268603   5.667   3.868  11.603  0.8445  0.1345  0.4949
15730TIP3   OH268604   4.443   1.142  13.850  0.3434 -0.3494  0.4930
15730TIP3    H168605   4.496   1.220  13.869  0.3934 -0.6964  1.8937
15730TIP3    H268606   4.471   1.077  13.915  1.9902 -2.3927 -2.0948
15731TIP3   OH268607   2.508   5.446  12.596  0.0726  0.5416  0.7393
15731TIP3    H168608   2.485   5.356  12.570 -2.0551  1.2987 -0.2480
15731TIP3    H268609   2.450   5.465  12.670  0.0136  1.3138  0.4999
15732TIP3   OH268610   5.755   3.882  14.389 -0.2272 -0.2354 -0.5602
15732TIP3    H168611   5.764   3.925  14.304 -1.1177 -0.0485 -0.5740
15732TIP3    H268612   5.831   3.824  14.395  0.9818  1.2811 -0.5720
15733TIP3   OH268613   0.552   6.758   4.784  0.0112  0.2625 -0.1071
15733TIP3    H168614   0.556   6.842   4.737 -1.7511 -0.9226 -2.6302
15733TIP3    H268615   0.459   6.747   4.805 -0.2115 -1.9763 -1.8431
15734TIP3   OH268616   0.199   2.363  14.862 -0.0181 -0.3815 -0.1412
15734TIP3    H168617   0.261   2.349  14.791  2.0080 -0.4610  1.5395
15734TIP3    H268618   0.161   2.276  14.879 -0.3361 -0.4041 -0.9376
15735TIP3   OH268619   1.265   0.570   3.768  0.3903 -0.3402  0.5780
15735TIP3    H168620   1.278   0.637   3.836  0.4007 -0.1210  0.3614
15735TIP3    H268621   1.294   0.612   3.688 -0.8887 -0.1186  0.2034
15736TIP3   OH268622   1.494   5.520   4.067  0.0805 -0.1575  0.1110
15736TIP3    H168623   1.523   5.549   3.980  0.5636  0.2472  0.4000
15736TIP3    H268624   1.499   5.599   4.121 -1.7104 -0.0342  0.1523
15737TIP3   OH268625   4.331   0.525  15.393 -0.0877 -0.3630  0.0086
15737TIP3    H168626   4.284   0.599  15.356  0.2584  0.6709  1.5201
15737TIP3    H268627   4.391   0.564  15.457  1.1502 -1.8326 -0.1941
15738TIP3   OH268628   5.580   4.724  13.947 -0.6758  0.0645  0.5003
15738TIP3    H168629   5.618   4.695  13.864 -0.0162  1.1997  0.3906
15738TIP3    H268630   5.513   4.788  13.921 -1.4246 -0.5789  0.7894
15739TIP3   OH268631   6.383   0.577  12.130 -0.3100  0.1646  0.4149
15739TIP3    H168632   6.358   0.579  12.223 -1.5115  0.3346  0.1133
15739TIP3    H268633   6.396   0.669  12.107 -0.4351  0.1582  0.3162
15740TIP3   OH268634   6.740   1.517   5.168  0.0986 -0.2354 -0.2803
15740TIP3    H168635   6.691   1.510   5.250 -1.9695  1.2120 -1.3034
15740TIP3    H268636   6.778   1.605   5.171  1.2791 -0.7307 -0.2502
15741TIP3   OH268637   5.838   0.954   4.782  0.3331  0.1499  0.2394
15741TIP3    H168638   5.916   0.922   4.827  0.7758  0.8475 -0.0136
15741TIP3    H268639   5.773   0.886   4.795  0.6779  0.0162  1.3206
15742TIP3   OH268640   2.018   3.299   4.324 -0.3951  0.0493  0.0741
15742TIP3    H168641   2.007   3.204   4.328 -0.2967  0.0086 -0.4684
15742TIP3    H268642   2.093   3.317   4.381 -1.4274 -0.0011  1.4837
15743TIP3   OH268643   1.196   0.747   0.030  0.8316 -0.6009  0.2523
15743TIP3    H168644   1.238   0.661   0.033 -0.7413 -1.4073  0.2103
15743TIP3    H268645   1.110   0.734   0.070  0.8809  1.1642  1.0425
15744TIP3   OH268646   1.311   6.038   4.801 -0.9962  0.2219  0.3977
15744TIP3    H168647   1.243   6.038   4.869  0.2068  1.3086  1.6848
15744TIP3    H268648   1.390   6.068   4.847  0.6619 -2.0912 -0.7604
15745TIP3   OH268649   3.759   0.860  13.147  0.2612  0.6971 -0.3944
15745TIP3    H168650   3.754   0.886  13.239  0.1504 -0.2915 -0.1074
15745TIP3    H268651   3.851   0.871  13.123  0.4040  0.3925  0.0090
15746TIP3   OH268652   3.774   3.463  16.885 -0.0133  0.0005 -0.2121
15746TIP3    H168653   3.801   3.483  16.974  2.5782 -0.6375 -0.7688
15746TIP3    H268654   3.833   3.393  16.857 -2.8959 -2.2103 -1.3388
15747TIP3   OH268655   2.790   2.878   0.889 -0.4322  0.4192 -0.7208
15747TIP3    H168656   2.818   2.956   0.937 -0.1560  0.6693 -1.2727
15747TIP3    H268657   2.780   2.811   0.956 -1.0821  1.0377 -0.1888
15748TIP3   OH268658   2.647   6.324   0.802 -0.3631 -0.5583  0.3205
15748TIP3    H168659   2.580   6.357   0.862 -0.6548 -0.2285 -0.1777
15748TIP3    H268660   2.717   6.292   0.859  2.3553  5.3957  1.0143
15749TIP3   OH268661   6.062   5.321   2.348 -0.4421 -0.1724 -0.0278
15749TIP3    H168662   6.056   5.394   2.409  0.1579 -0.7468  0.7380
15749TIP3    H268663   6.134   5.343   2.290 -0.2782 -0.1435  0.1870
15750TIP3   OH268664   6.211   2.235   5.720  0.0803  0.2302  0.1982
15750TIP3    H168665   6.261   2.153   5.722  1.6137  1.1126  0.1326
15750TIP3    H268666   6.203   2.262   5.811 -1.0419 -0.3227  0.2797
15751TIP3   OH268667   0.284   0.373   2.033  0.0050 -0.1255 -0.2621
15751TIP3    H168668   0.312   0.360   2.124  1.9279  0.4903 -0.7191
15751TIP3    H268669   0.291   0.467   2.019 -0.1628 -0.2294 -1.0794
15752TIP3   OH268670   2.214   5.145   3.600 -0.3030 -0.2244  0.4975
15752TIP3    H168671   2.129   5.106   3.578  1.2804 -2.6141 -2.0897
15752TIP3    H268672   2.243   5.186   3.519  0.9101  0.8251  1.4236
15753TIP3   OH268673   2.618   3.903   2.614  0.4149 -0.5427 -0.1952
15753TIP3    H168674   2.671   3.852   2.552 -0.0473  0.3102 -1.3148
15753TIP3    H268675   2.678   3.970   2.646  0.4365 -0.5127 -0.2984
15754TIP3   OH268676   5.983   4.854   0.688 -0.0271  0.1968 -1.1347
15754TIP3    H168677   5.915   4.870   0.752  1.5107 -0.4188  0.7466
15754TIP3    H268678   5.987   4.759   0.680  0.0544  0.2553 -1.8734
15755TIP3   OH268679   2.446   1.157   3.541  0.4037  0.2183  0.2395
15755TIP3    H168680   2.540   1.172   3.531  0.1681  2.8909  1.3081
15755TIP3    H268681   2.439   1.099   3.616  1.1874 -0.6331 -0.3116
15756TIP3   OH268682   1.251   3.305  12.042 -0.4192 -0.1756 -0.4586
15756TIP3    H168683   1.327   3.248  12.056 -1.5138 -1.2205  1.7664
15756TIP3    H268684   1.184   3.246  12.008 -1.1964  0.0125  0.7075
15757TIP3   OH268685   3.249   4.065   2.911 -0.8765  0.5679 -0.1870
15757TIP3    H168686   3.282   4.131   2.850 -0.0850  1.7264  1.4225
15757TIP3    H268687   3.273   4.097   2.998 -3.1010 -0.3612  0.8689
15758TIP3   OH268688   3.102   4.535   5.455 -0.6932  0.2509 -0.4736
15758TIP3    H168689   3.170   4.468   5.463 -1.1006 -0.0808  0.3822
15758TIP3    H268690   3.020   4.486   5.457 -0.9938  0.7504  0.0245
15759TIP3   OH268691   1.655   3.020  11.195 -0.4959  0.5603 -0.4918
15759TIP3    H168692   1.588   2.998  11.259 -0.4312 -0.6789 -0.8280
15759TIP3    H268693   1.693   2.936  11.169 -0.0064  1.0912 -1.5905
15760TIP3   OH268694   3.289   1.695  12.445 -0.9413 -0.6459  0.0331
15760TIP3    H168695   3.274   1.789  12.438 -1.9613 -0.9153 -3.0393
15760TIP3    H268696   3.208   1.661  12.482 -1.4026 -0.4820 -0.8006
15761TIP3   OH268697   0.912   3.948  16.440 -0.3822 -0.1019  0.0485
15761TIP3    H168698   0.947   3.988  16.520 -0.5972 -1.5345  0.8988
15761TIP3    H268699   0.963   3.868  16.429 -1.8266 -1.0639  0.0277
15762TIP3   OH268700   5.036   3.307   1.321  0.1501  0.2813 -0.4636
15762TIP3    H168701   5.112   3.318   1.378  0.2857  0.0822 -0.6042
15762TIP3    H268702   5.072   3.307   1.232  0.5176 -3.5678 -0.4973
15763TIP3   OH268703   4.287   2.813   0.518  0.1129 -0.3397  0.0146
15763TIP3    H168704   4.314   2.786   0.430 -0.9656 -0.0289 -0.4316
15763TIP3    H268705   4.223   2.883   0.502 -2.4411 -2.2840  0.8942
15764TIP3   OH268706   1.247   1.912  14.694  0.2016 -0.9605  0.5681
15764TIP3    H168707   1.249   1.903  14.599  0.3334 -2.4024  0.6753
15764TIP3    H268708   1.287   1.996  14.712  0.5776 -0.8725 -0.6340
15765TIP3   OH268709   4.902   2.584   5.106 -0.3688 -0.0172  0.2477
15765TIP3    H168710   4.839   2.618   5.044  0.0669  1.7864  0.7255
15765TIP3    H268711   4.912   2.654   5.171 -1.7844 -2.2534  3.1360
15766TIP3   OH268712   3.515   3.399  15.238 -0.0651 -0.4860 -0.2547
15766TIP3    H168713   3.552   3.435  15.319  0.0200 -1.1983  0.0281
15766TIP3    H268714   3.586   3.348  15.200 -0.1538 -0.2765 -0.7049
15767TIP3   OH268715   6.601   3.905   0.382  0.2450 -0.2916 -0.5069
15767TIP3    H168716   6.685   3.951   0.384  0.8052 -1.2871 -0.2124
15767TIP3    H268717   6.624   3.815   0.361 -0.4033 -1.2678  2.4892
15768TIP3   OH268718   3.036   3.849   5.022 -0.5570  0.1175 -0.1468
15768TIP3    H168719   2.964   3.901   4.988 -1.4148 -1.4300 -0.7791
15768TIP3    H268720   3.034   3.864   5.116 -3.1998 -1.6377  0.1700
15769TIP3   OH268721   5.484   2.963   1.685 -0.0453  0.5966  0.2522
15769TIP3    H168722   5.476   2.989   1.777 -0.4040  1.9584 -0.1510
15769TIP3    H268723   5.544   2.887   1.687  4.0868  3.5118  1.1722
15770TIP3   OH268724   4.862   2.560  15.076 -0.1100  0.1134  0.2657
15770TIP3    H168725   4.875   2.474  15.117  0.8309  0.8185  1.5017
15770TIP3    H268726   4.792   2.600  15.128  2.0183  1.5597  2.1827
15771TIP3   OH268727   0.933   1.788   6.564 -0.0308  0.3184  0.0785
15771TIP3    H168728   0.900   1.766   6.476  1.4096 -0.0233 -0.4097
15771TIP3    H268729   0.905   1.878   6.578 -0.0260  0.4864 -0.8750
15772TIP3   OH268730   3.153   5.522  13.390 -0.2772  0.3159  0.4607
15772TIP3    H168731   3.200   5.599  13.358 -0.3890  0.0940 -0.2725
15772TIP3    H268732   3.115   5.483  13.311  0.3156 -0.8577  0.7332
15773TIP3   OH268733   1.463   3.591  12.585  0.0781  0.1737 -0.3018
15773TIP3    H168734   1.482   3.638  12.666  3.4311 -1.5685  0.1209
15773TIP3    H268735   1.511   3.639  12.518 -1.0472  0.4660 -0.9134
15774TIP3   OH268736   2.178   5.585  14.945 -0.0225  0.5244  0.4501
15774TIP3    H168737   2.149   5.498  14.972  0.1114  0.4547  0.3723
15774TIP3    H268738   2.099   5.639  14.946  0.0029  0.5605  1.1314
15775TIP3   OH268739   2.710   1.829  15.245  0.0423 -0.6151  0.2239
15775TIP3    H168740   2.689   1.881  15.323  0.9092 -2.5282  1.8418
15775TIP3    H268741   2.759   1.889  15.189  0.0625  0.6217  1.4891
15776TIP3   OH268742   1.604   3.046   6.586 -0.6464 -0.1171 -0.5053
15776TIP3    H168743   1.694   3.030   6.614 -0.5031  1.4915  0.0499
15776TIP3    H268744   1.552   3.037   6.666 -0.8271  0.1255 -0.5963
15777TIP3   OH268745   2.745   5.558  12.500 -0.2678 -0.1048 -0.4535
15777TIP3    H168746   2.810   5.555  12.571 -0.9318  0.3295  0.1726
15777TIP3    H268747   2.669   5.513  12.535  0.0371 -1.5892 -1.5707
15778TIP3   OH268748   0.988   6.540   4.188 -0.0390  0.0944  0.3048
15778TIP3    H168749   1.007   6.474   4.122 -1.1310  0.8773 -0.8542
15778TIP3    H268750   1.062   6.537   4.248 -0.2755 -2.4672  0.5582
15779TIP3   OH268751   6.798   3.536  11.843 -0.2186 -0.1670  0.0770
15779TIP3    H168752   6.881   3.514  11.885 -1.7107 -0.8548  2.9160
15779TIP3    H268753   6.775   3.458  11.792 -0.6736 -1.3721  2.0181
15780TIP3   OH268754   0.975   2.410   6.258  0.0730  0.1099 -0.3770
15780TIP3    H168755   0.893   2.402   6.209 -0.1432  0.9510 -0.1763
15780TIP3    H268756   0.948   2.415   6.350  0.3545  0.2491 -0.2992
15781TIP3   OH268757   6.363   3.733  13.913  0.1156 -0.9304 -0.2137
15781TIP3    H168758   6.270   3.709  13.912 -0.4459  0.9789  0.6453
15781TIP3    H268759   6.387   3.739  13.821 -1.7982  2.3909 -0.6998
15782TIP3   OH268760   1.623   2.398  14.816 -0.8086 -0.2426  0.2683
15782TIP3    H168761   1.560   2.332  14.784 -1.4429 -0.3044  1.5745
15782TIP3    H268762   1.595   2.479  14.775 -0.9043 -0.5295 -0.2413
15783TIP3   OH268763   2.107   4.293   0.382  0.3583  0.0879 -0.2680
15783TIP3    H168764   2.054   4.221   0.350  0.1422  0.4374 -0.7017
15783TIP3    H268765   2.179   4.300   0.319  1.0432 -0.5080  0.4181
15784TIP3   OH268766   3.094   3.966   4.677 -0.3247  0.2041 -0.6489
15784TIP3    H168767   3.122   4.026   4.746  0.1384  0.2070 -0.8385
15784TIP3    H268768   3.075   4.023   4.603 -0.1960  0.1461 -0.7271
15785TIP3   OH268769   0.764   1.222   2.180  0.2377 -0.2578  0.6553
15785TIP3    H168770   0.729   1.135   2.199  0.1974 -0.1601  1.0328
15785TIP3    H268771   0.686   1.276   2.162  0.2873 -0.4119 -0.0802
15786TIP3   OH268772   4.069   0.693   5.217 -0.0035  0.0206 -0.2682
15786TIP3    H168773   4.047   0.712   5.126 -1.1271 -0.0192 -0.0286
15786TIP3    H268774   4.090   0.600   5.218  0.4165  0.1082 -0.5492
15787TIP3   OH268775   4.647   4.137  13.648 -0.8907 -0.3797 -0.1640
15787TIP3    H168776   4.573   4.096  13.692  0.2378 -0.6485  1.5694
15787TIP3    H268777   4.705   4.063  13.625 -0.3706 -0.0411  0.0387
15788TIP3   OH268778   4.735   2.402   0.987  0.4254  0.0755 -0.4092
15788TIP3    H168779   4.704   2.439   0.904  1.4598  1.2338 -0.3148
15788TIP3    H268780   4.659   2.358   1.023 -0.1872 -0.0222 -1.7357
15789TIP3   OH268781   3.355   1.373   3.770  0.2403 -0.0723  0.4657
15789TIP3    H168782   3.325   1.318   3.842 -0.4449 -0.2944  0.0244
15789TIP3    H268783   3.334   1.463   3.798  0.2321 -0.1339  0.6591
15790TIP3   OH268784   0.049   5.293   4.550  0.1636  0.5907  0.3194
15790TIP3    H168785  -0.026   5.350   4.565  0.9429  2.1369 -1.2067
15790TIP3    H268786   0.012   5.207   4.533 -1.2370  1.2675 -0.1742
15791TIP3   OH268787   1.339   5.040  16.525 -0.3259 -0.0029  0.1595
15791TIP3    H168788   1.293   5.058  16.443  0.2212  0.4225 -0.0593
15791TIP3    H268789   1.340   5.124  16.572 -0.2321 -0.1324  0.3940
15792TIP3   OH268790   5.559   3.390  10.501 -0.1710 -0.0738 -0.4046
15792TIP3    H168791   5.619   3.458  10.531 -0.0508 -0.0125 -0.7792
15792TIP3    H268792   5.608   3.342  10.434  0.3363 -1.5460  0.9467
15793TIP3   OH268793   3.957   3.072   2.063  0.2456 -0.1379 -0.5233
15793TIP3    H168794   3.969   3.166   2.068 -1.8656  0.3088 -2.1973
15793TIP3    H268795   3.994   3.038   2.145  0.9261  2.1298  0.1671
15794TIP3   OH268796   4.746   3.916   0.064  0.1468 -0.0191 -0.1401
15794TIP3    H168797   4.829   3.963   0.061  1.2980 -1.8324  1.4852
15794TIP3    H268798   4.748   3.858  -0.013  1.2313 -1.3400  0.8524
15795TIP3   OH268799   4.970   5.332  14.322 -0.0911 -0.7259  0.0322
15795TIP3    H168800   4.887   5.285  14.311 -1.7692  1.8273  0.9051
15795TIP3    H268801   5.004   5.302  14.406  1.4454 -3.8532 -1.5159
15796TIP3   OH268802   4.864   5.352   6.027  0.1565 -0.2907 -0.0677
15796TIP3    H168803   4.929   5.355   6.096  0.7390  0.3298 -0.6217
15796TIP3    H268804   4.910   5.384   5.949 -1.0651  1.1903 -0.2479
15797TIP3   OH268805   4.091   5.442   0.763  0.1598 -0.7399  0.3229
15797TIP3    H168806   4.092   5.407   0.675 -0.7215 -0.6402  0.2647
15797TIP3    H268807   4.002   5.425   0.795 -0.0565  0.7213  0.5732
15798TIP3   OH268808   2.109   3.366   3.586  0.6071 -0.1310 -0.2292
15798TIP3    H168809   2.051   3.397   3.517  1.1706  1.2383 -0.1145
15798TIP3    H268810   2.065   3.288   3.621  1.8733 -3.1042 -4.3847
15799TIP3   OH268811   1.782   4.397   5.620 -0.1980  0.2714  0.0695
15799TIP3    H168812   1.875   4.374   5.622 -0.8105 -2.4846  2.0411
15799TIP3    H268813   1.761   4.404   5.527  2.3381  3.0009 -0.4442
15800TIP3   OH268814   0.642   5.199   3.906  0.6441 -0.5069 -0.4111
15800TIP3    H168815   0.727   5.221   3.868  0.0657 -1.8864 -2.7060
15800TIP3    H268816   0.601   5.140   3.842 -1.9879 -0.0329  0.6867
15801TIP3   OH268817   5.917   5.090   3.049 -0.2510  0.1116  0.4005
15801TIP3    H168818   5.851   5.160   3.042  0.0498  0.4483  0.8391
15801TIP3    H268819   5.973   5.118   3.121  0.8708  0.2288 -0.5006
15802TIP3   OH268820   2.701   2.295  14.732 -0.1592  0.4039  0.1312
15802TIP3    H168821   2.635   2.337  14.788 -0.0226  0.3211  0.3567
15802TIP3    H268822   2.652   2.262  14.657 -0.3356  0.5684  0.1741
15803TIP3   OH268823   3.501   6.441  10.930  0.3850 -0.0952  0.0264
15803TIP3    H168824   3.552   6.476  10.858  0.6114 -0.9725 -0.2555
15803TIP3    H268825   3.438   6.382  10.889  1.7566 -2.0910  0.6416
15804TIP3   OH268826   2.963   4.074   3.441  0.2129 -0.2917 -0.2919
15804TIP3    H168827   2.988   4.166   3.441 -0.2867 -0.0964  1.7873
15804TIP3    H268828   3.003   4.038   3.362  1.2664  1.4712 -0.6211
15805TIP3   OH268829   4.429   3.225  14.259  0.1834 -0.6628 -0.2002
15805TIP3    H168830   4.438   3.130  14.258  0.3808 -0.6729  1.1835
15805TIP3    H268831   4.497   3.255  14.320 -0.7989  0.2517  0.4713
15806TIP3   OH268832   5.015   3.144   2.190  0.6675  0.9570  0.3681
15806TIP3    H168833   4.969   3.198   2.125 -0.2007 -0.3419 -0.1421
15806TIP3    H268834   5.035   3.062   2.143 -1.5080 -0.7286  2.1484
15807TIP3   OH268835   4.351   6.193  13.651  0.1425 -0.3174 -0.4937
15807TIP3    H168836   4.405   6.136  13.705 -1.7391 -0.3921  1.4591
15807TIP3    H268837   4.268   6.146  13.642 -0.4758  0.8703 -1.2234
15808TIP3   OH268838   5.336   2.063  16.822 -0.5663  0.0511 -0.1949
15808TIP3    H168839   5.353   1.981  16.776  2.5244  0.4521  0.0166
15808TIP3    H268840   5.327   2.037  16.914 -0.0734 -0.1135 -0.1906
15809TIP3   OH268841   5.517   6.033   5.203 -0.1250  0.3216  0.1741
15809TIP3    H168842   5.530   6.123   5.172 -0.4515  0.2111 -0.3065
15809TIP3    H268843   5.491   6.042   5.294  1.9361  0.6079  0.7622
15810TIP3   OH268844   5.730   6.631  12.968 -0.1861 -0.3208  0.8396
15810TIP3    H168845   5.653   6.624  13.024 -1.6884  1.3045 -0.8746
15810TIP3    H268846   5.698   6.604  12.881  0.6432  2.0832 -0.2858
15811TIP3   OH268847   2.982   2.822   5.479 -0.1022 -0.0069  0.3399
15811TIP3    H168848   2.919   2.770   5.529 -0.1239  1.3536  1.8018
15811TIP3    H268849   2.929   2.881   5.426 -0.0790 -1.4455 -1.3827
15812TIP3   OH268850   0.278   3.660  12.686  0.7633 -0.3852  0.0117
15812TIP3    H168851   0.344   3.718  12.724 -0.3019  0.2655  0.9256
15812TIP3    H268852   0.224   3.717  12.632 -0.0206 -0.6076  0.5493
15813TIP3   OH268853   1.524   2.512   3.730 -0.3224 -0.0162 -0.2835
15813TIP3    H168854   1.479   2.473   3.655 -1.6287 -0.0686  0.4966
15813TIP3    H268855   1.513   2.606   3.718 -2.0302 -0.0523  0.6821
15814TIP3   OH268856   2.512   4.768  16.873  0.2610 -0.2945  0.2692
15814TIP3    H168857   2.500   4.673  16.869 -0.7423 -0.1854  0.3715
15814TIP3    H268858   2.425   4.802  16.890  0.6274  0.6484  0.3125
15815TIP3   OH268859   4.303   5.427   3.873  0.4305 -0.0660 -0.5503
15815TIP3    H168860   4.371   5.372   3.833 -0.3844 -1.0278 -0.6512
15815TIP3    H268861   4.339   5.450   3.959  2.7130  2.9575 -2.1165
15816TIP3   OH268862   1.257   2.455  14.420  0.5257  0.1694 -0.2598
15816TIP3    H168863   1.298   2.521  14.364 -0.9325  0.0853 -1.5037
15816TIP3    H268864   1.178   2.430  14.373 -1.0053  0.3694  2.0724
15817TIP3   OH268865   0.850   2.248   1.246  0.8100 -0.0012  0.0047
15817TIP3    H168866   0.774   2.293   1.283  2.0477 -0.4009  3.4052
15817TIP3    H268867   0.920   2.313   1.246  1.6525 -0.8356  1.4927
15818TIP3   OH268868   4.553   6.372   2.668  0.0585  0.5005  0.5854
15818TIP3    H168869   4.494   6.415   2.731 -0.8984  1.0128 -0.6114
15818TIP3    H268870   4.497   6.309   2.623  0.6541  0.3558  0.0454
15819TIP3   OH268871   1.125   4.189   0.119  0.7196  0.2441  0.2172
15819TIP3    H168872   1.060   4.257   0.135  0.9403  0.7106 -0.7843
15819TIP3    H268873   1.076   4.107   0.123  0.0417  0.5959 -0.6125
15820TIP3   OH268874   0.879   3.006  12.686  0.1487 -0.1906 -0.0798
15820TIP3    H168875   0.792   2.982  12.716  0.1116 -0.5323 -0.4474
15820TIP3    H268876   0.904   2.935  12.626  0.2558  0.4230 -0.7840
15821TIP3   OH268877   3.744   0.662  15.607  0.4146 -0.4655  0.5593
15821TIP3    H168878   3.818   0.602  15.615  0.7043 -0.1430  0.3699
15821TIP3    H268879   3.773   0.726  15.541  0.4182  0.3084  1.2940
15822TIP3   OH268880   2.478   2.300   3.564  0.3180  0.0600  0.3018
15822TIP3    H168881   2.442   2.216   3.592  0.2967  0.4560  1.4935
15822TIP3    H268882   2.450   2.309   3.473 -3.4662  0.7788  1.4016
15823TIP3   OH268883   6.245   4.201   5.102 -0.0294 -0.0806 -0.6441
15823TIP3    H168884   6.286   4.211   5.188  0.1484 -0.1782 -0.7164
15823TIP3    H268885   6.317   4.208   5.040 -0.3241  1.2419 -0.8667
15824TIP3   OH268886   3.206   5.694   6.182  0.7202 -0.2145  0.5639
15824TIP3    H168887   3.144   5.767   6.174  0.1144 -0.7524  0.2000
15824TIP3    H268888   3.290   5.731   6.155  0.2723  0.1587 -0.3692
15825TIP3   OH268889   3.190   1.514  16.860  0.4310 -0.2391  0.2121
15825TIP3    H168890   3.188   1.599  16.906 -1.3767 -0.2705  0.2509
15825TIP3    H268891   3.103   1.505  16.822  0.4414 -2.2894  0.5680
15826TIP3   OH268892   1.879   0.304   3.991 -0.0640  0.3140 -0.0002
15826TIP3    H168893   1.858   0.369   4.058 -1.0042  0.2499 -0.2192
15826TIP3    H268894   1.931   0.238   4.038 -0.0249  0.6703  0.4710
15827TIP3   OH268895   1.555   2.836  15.925 -0.2974  0.0580 -0.1333
15827TIP3    H168896   1.464   2.825  15.896 -0.3583 -2.3340  0.7380
15827TIP3    H268897   1.603   2.768  15.878  0.7630  0.2555  0.6386
15828TIP3   OH268898   2.980   2.064  14.555 -0.1975 -0.1647  0.3803
15828TIP3    H168899   3.061   2.014  14.549  0.1527  0.4540 -0.2932
15828TIP3    H268900   2.991   2.135  14.491 -1.3107 -0.1348  0.1922
15829TIP3   OH268901   5.923   5.571   3.993  0.5005 -0.3675 -0.0544
15829TIP3    H168902   5.860   5.624   4.041  0.2881 -0.2907 -0.4124
15829TIP3    H268903   5.890   5.570   3.903  1.5075  0.4708 -0.4652
15830TIP3   OH268904   2.773   1.965  11.148  0.1799  0.1995  0.5966
15830TIP3    H168905   2.837   2.003  11.089  0.1992 -0.0038  0.4894
15830TIP3    H268906   2.715   1.914  11.092  1.5643 -1.9407  0.9986
15831TIP3   OH268907   0.937   6.731  11.375 -0.5732 -0.4753  0.1386
15831TIP3    H168908   0.900   6.705  11.459  1.1005 -1.3783  0.6447
15831TIP3    H268909   0.869   6.709  11.311 -2.2789  1.1329  1.2853
15832TIP3   OH268910   6.584   5.598   0.388  0.3633 -0.4031  0.2478
15832TIP3    H168911   6.523   5.530   0.362  0.6661 -0.5004 -0.2137
15832TIP3    H268912   6.541   5.680   0.365  0.7715 -0.4949 -0.8982
15833TIP3   OH268913   2.038   5.190   2.963  0.5923  0.2786  0.1354
15833TIP3    H168914   1.965   5.188   3.025 -0.0401  0.0070 -0.6044
15833TIP3    H268915   2.084   5.271   2.984  0.7820 -0.1307  1.3966
15834TIP3   OH268916   6.384   1.277  14.037 -0.1133  0.0529  0.1855
15834TIP3    H168917   6.369   1.339  13.966  0.2514  0.2599  0.2887
15834TIP3    H268918   6.370   1.327  14.117  2.1623  0.5743  0.3258
15835TIP3   OH268919   6.440   5.509   2.403 -0.3064  0.2352  0.0795
15835TIP3    H168920   6.511   5.454   2.369 -1.5894 -0.6465 -1.2725
15835TIP3    H268921   6.477   5.548   2.482  0.7475 -2.4368  1.0456
15836TIP3   OH268922   2.460   5.978   2.267  0.3144  0.5735 -0.0910
15836TIP3    H168923   2.387   5.919   2.249 -1.0839  2.5067 -1.1790
15836TIP3    H268924   2.537   5.933   2.232 -0.4556 -1.1859  0.3915
15837TIP3   OH268925   5.566   6.077  10.765 -0.3994 -0.2909  0.8057
15837TIP3    H168926   5.609   5.997  10.795  0.2605 -0.0020  0.6483
15837TIP3    H268927   5.514   6.106  10.841  3.0660  1.7272  2.6840
15838TIP3   OH268928   3.514   1.496   6.071  0.6995 -0.0187 -0.5045
15838TIP3    H168929   3.560   1.575   6.099 -0.3421  0.6821 -0.7105
15838TIP3    H268930   3.422   1.514   6.092  0.1011 -0.1620 -2.7846
15839TIP3   OH268931   4.019   5.769   0.103  0.0430  0.1529  0.3176
15839TIP3    H168932   3.941   5.766   0.047  0.0275 -0.2293  0.3528
15839TIP3    H268933   4.076   5.835   0.063 -0.0971  0.0962  0.0251
15840TIP3   OH268934   2.204   1.062  14.446 -0.2549  0.1551  0.6037
15840TIP3    H168935   2.126   1.026  14.404  1.2685 -0.5785 -1.8768
15840TIP3    H268936   2.184   1.155  14.459 -1.5069 -0.0018 -0.0434
15841TIP3   OH268937   4.698   3.835  11.415  0.1464 -0.2658 -0.7478
15841TIP3    H168938   4.656   3.919  11.435  0.1240 -0.0703 -1.6054
15841TIP3    H268939   4.778   3.835  11.467 -1.4547 -1.1682  1.9235
15842TIP3   OH268940   1.071   0.580  12.241 -0.3441 -0.5386 -0.8248
15842TIP3    H168941   1.080   0.617  12.153 -1.4172 -0.6537 -0.9877
15842TIP3    H268942   1.103   0.490  12.233  0.4013 -0.2827 -0.8771
15843TIP3   OH268943   5.340   5.520   4.061 -0.2018 -0.3901 -0.8158
15843TIP3    H168944   5.291   5.592   4.100  0.1533 -0.2509 -0.6288
15843TIP3    H268945   5.301   5.510   3.973 -0.7567 -0.4703 -0.5676
15844TIP3   OH268946   2.077   2.683  16.971  0.0806  0.4450  0.2430
15844TIP3    H168947   2.171   2.697  16.955  0.0037 -0.1036 -0.7903
15844TIP3    H268948   2.038   2.682  16.883 -0.6129 -1.1924  0.5469
15845TIP3   OH268949   2.956   3.225   2.153 -0.1478  0.1516  0.1441
15845TIP3    H168950   2.964   3.145   2.101  1.1312  0.1561  0.2944
15845TIP3    H268951   2.863   3.231   2.175 -0.7553  0.2145 -2.2176
15846TIP3   OH268952   0.217   4.525   0.393  0.3951  0.4093 -0.5414
15846TIP3    H168953   0.136   4.477   0.376  0.6195 -1.7578  3.3297
15846TIP3    H268954   0.287   4.464   0.366  0.7778  1.2486 -1.5237
15847TIP3   OH268955   0.231   2.941  16.015  0.5163  0.0916 -0.2231
15847TIP3    H168956   0.155   2.910  16.064 -0.3906 -2.5749 -2.9747
15847TIP3    H268957   0.211   3.031  15.993 -0.8760  0.0711  0.8722
15848TIP3   OH268958   6.611   3.905   2.278 -0.4342  0.1074  0.2874
15848TIP3    H168959   6.676   3.889   2.346 -0.3605 -2.0807 -0.2093
15848TIP3    H268960   6.527   3.907   2.324 -0.1759  1.3157  0.7311
15849TIP3   OH268961   6.427   3.590   5.444 -0.7086  0.8348  0.3650
15849TIP3    H168962   6.506   3.536   5.433 -1.7594 -0.6511 -0.2548
15849TIP3    H268963   6.451   3.654   5.510  1.6446  1.6844 -1.1777
15850TIP3   OH268964   2.759   6.465   0.311  0.3494 -0.4443  0.2678
15850TIP3    H168965   2.825   6.397   0.311  1.0563  0.0361  3.9943
15850TIP3    H268966   2.807   6.546   0.296  0.1879 -0.3540  0.2303
15851TIP3   OH268967   0.398   1.447   4.633  0.1745 -0.4221  0.0841
15851TIP3    H168968   0.447   1.397   4.568  0.7255 -0.2407  0.3541
15851TIP3    H268969   0.415   1.539   4.612  1.1514 -0.3643  1.0640
15852TIP3   OH268970   5.549   6.579  10.552 -0.3484  0.3978  0.1343
15852TIP3    H168971   5.629   6.631  10.537  0.5792 -1.1982 -0.6764
15852TIP3    H268972   5.532   6.537  10.469 -1.9151  0.4863  0.3876
15853TIP3   OH268973   5.093   5.869   6.444  0.0134 -0.5279  0.4563
15853TIP3    H168974   5.114   5.960   6.465  2.0321 -0.4136 -1.6625
15853TIP3    H268975   4.999   5.861   6.458 -0.4423  2.2537 -0.5807
15854TIP3   OH268976   3.504   0.088  11.991  0.2481  0.4825 -0.5277
15854TIP3    H168977   3.497   0.017  12.055 -0.5161  1.6589  0.7400
15854TIP3    H268978   3.551   0.049  11.918  2.4520 -0.5609  1.3050
15855TIP3   OH268979   2.992   2.410  13.344  0.5788 -0.1521 -0.2703
15855TIP3    H168980   3.017   2.487  13.394  0.5317 -0.8722  0.9083
15855TIP3    H268981   3.012   2.432  13.253  2.5340  0.4524  0.2733
15856TIP3   OH268982   1.118   5.446   4.939 -0.4826  0.4920 -0.2839
15856TIP3    H168983   1.044   5.402   4.981 -0.1718 -0.7305 -0.9625
15856TIP3    H268984   1.078   5.502   4.872 -0.8904  1.3808  0.6810
15857TIP3   OH268985   4.806   2.528  13.238  0.7086  0.0225 -0.4720
15857TIP3    H168986   4.854   2.446  13.254  0.3467 -0.2635 -0.8429
15857TIP3    H268987   4.861   2.575  13.175  2.4169  1.3930  1.8687
15858TIP3   OH268988   1.023   2.608   2.312 -0.3658  0.1192 -0.1455
15858TIP3    H168989   0.953   2.635   2.253 -2.1848 -0.3235  1.7189
15858TIP3    H268990   1.046   2.520   2.283  1.5975  1.2735 -2.6049
15859TIP3   OH268991   3.010   1.752   2.658 -0.4293 -0.0313 -0.1372
15859TIP3    H168992   2.963   1.742   2.575  0.2673  0.8319 -0.6521
15859TIP3    H268993   3.101   1.729   2.637 -0.4441 -0.8628  0.6474
15860TIP3   OH268994   3.892   4.996   4.495 -0.9044  0.4342  0.0793
15860TIP3    H168995   3.970   5.035   4.535 -0.3830 -0.6300  0.1205
15860TIP3    H268996   3.888   5.035   4.408 -0.3066  0.4774  0.0646
15861TIP3   OH268997   1.862   1.587   3.101 -0.5293 -0.3921 -0.0210
15861TIP3    H168998   1.890   1.638   3.177 -3.7048  0.3774  0.7801
15861TIP3    H268999   1.885   1.497   3.123  1.4379  0.1599  0.3810
15862TIP3   OH269000   6.213   0.591  15.696 -0.2605 -0.1273 -0.3822
15862TIP3    H169001   6.296   0.556  15.727  0.0444 -0.5987 -1.6831
15862TIP3    H269002   6.237   0.666  15.641 -0.6700 -0.3994 -0.9474
15863TIP3   OH269003   1.524   0.595   5.038 -0.1376 -0.4081 -0.0876
15863TIP3    H169004   1.448   0.617   5.091  0.1943  0.3021  0.1037
15863TIP3    H269005   1.599   0.608   5.096  0.0571 -2.9436  0.3504
15864TIP3   OH269006   2.304   3.415   4.139 -0.2644 -0.1023 -0.0609
15864TIP3    H169007   2.387   3.375   4.111  0.9637  0.4887  2.4110
15864TIP3    H269008   2.296   3.392   4.232 -0.2721  3.8470  1.1424
15865TIP3   OH269009   6.167   0.773   2.921 -0.0999 -0.2703 -0.5691
15865TIP3    H169010   6.241   0.833   2.921 -1.3372  1.4819  2.5163
15865TIP3    H269011   6.194   0.701   2.979 -0.5372  0.0106 -0.0121
15866TIP3   OH269012   0.877   4.468   2.018 -0.1842  0.3320 -0.1027
15866TIP3    H169013   0.921   4.469   1.933  2.5900  0.0105  1.2308
15866TIP3    H269014   0.920   4.536   2.069  0.2559 -1.3734  1.9562
15867TIP3   OH269015   2.099   4.887  12.172  0.2815  0.5492 -0.1108
15867TIP3    H169016   2.166   4.824  12.148 -0.8374 -0.4496 -0.6886
15867TIP3    H269017   2.030   4.835  12.213 -0.7678  1.3480 -0.8063
15868TIP3   OH269018   1.541   1.393  13.351 -0.1993  0.0639  0.0878
15868TIP3    H169019   1.578   1.465  13.402 -0.6303  0.3109  0.0604
15868TIP3    H269020   1.617   1.345  13.318  0.0894 -0.2130  1.1081
15869TIP3   OH269021   1.801   4.430   4.667  0.6516  0.0301  0.0106
15869TIP3    H169022   1.789   4.412   4.573 -0.6192  1.3065 -0.1109
15869TIP3    H269023   1.719   4.401   4.707 -0.1161  2.3531  0.2539
15870TIP3   OH269024   5.303   4.264  12.092  0.1642 -0.0070 -0.2516
15870TIP3    H169025   5.254   4.346  12.094 -2.5167 -1.4096 -2.0139
15870TIP3    H269026   5.308   4.241  11.999  3.3228 -0.5426 -0.0584
15871TIP3   OH269027   3.930   4.049   2.230  0.4615  0.2590  0.5169
15871TIP3    H169028   3.964   4.079   2.146  0.1023 -4.2329 -1.5529
15871TIP3    H269029   4.006   4.017   2.277  0.3374 -0.2060  0.4162
15872TIP3   OH269030   4.526   0.077   1.421  0.2821 -0.2579  0.1845
15872TIP3    H169031   4.459   0.132   1.382 -0.6568 -1.0757  0.6081
15872TIP3    H269032   4.598   0.137   1.440  1.2846  0.0552 -3.7168
15873TIP3   OH269033   4.665   2.431   3.596  0.0060 -0.6226 -1.0926
15873TIP3    H169034   4.740   2.375   3.616  0.7710  0.6719 -0.1293
15873TIP3    H269035   4.588   2.379   3.621  0.7829 -0.2799  2.6591
15874TIP3   OH269036   1.839   1.771   4.169 -0.5207 -0.4087 -0.0911
15874TIP3    H169037   1.748   1.794   4.184 -1.5902 -4.2450  0.1725
15874TIP3    H269038   1.883   1.789   4.252 -1.5537 -0.7321  0.5346
15875TIP3   OH269039   1.038   5.418  16.693  0.2795  0.0114 -0.1279
15875TIP3    H169040   0.956   5.447  16.733 -1.3328 -1.9883 -1.7184
15875TIP3    H269041   1.077   5.361  16.759 -0.0712  0.2726  0.3159
15876TIP3   OH269042   3.317   0.355  16.803 -0.1236 -0.6175  0.0993
15876TIP3    H169043   3.332   0.278  16.747  0.7250  0.2703 -0.9474
15876TIP3    H269044   3.405   0.388  16.822 -0.4295 -0.6023  1.5637
15877TIP3   OH269045   2.230   4.945  11.366  0.7977 -0.3071  0.2231
15877TIP3    H169046   2.309   4.892  11.371  0.2865 -1.2818 -1.3659
15877TIP3    H269047   2.217   4.961  11.273 -0.1603  0.9583  0.5379
15878TIP3   OH269048   1.912   1.654  15.792 -0.1375 -0.3433 -0.3258
15878TIP3    H169049   1.956   1.623  15.872  0.6951  0.1512 -0.5714
15878TIP3    H269050   1.983   1.663  15.728 -0.0654  3.0655  0.0419
15879TIP3   OH269051   4.995   0.423   2.546  0.3363 -0.3441 -0.0488
15879TIP3    H169052   4.906   0.390   2.534  0.5447 -0.7115 -0.6073
15879TIP3    H269053   5.005   0.431   2.641 -0.4043  0.0171  0.0084
15880TIP3   OH269054   5.308   1.664  11.332  0.4147  0.0744  0.0704
15880TIP3    H169055   5.342   1.683  11.244 -2.1847  2.5566 -0.5545
15880TIP3    H269056   5.218   1.635  11.317  0.4094 -0.9964  1.8881
15881TIP3   OH269057   4.057   3.459  11.491  0.6977  0.2025  0.2457
15881TIP3    H169058   4.152   3.469  11.484  0.7879 -0.3782  0.5780
15881TIP3    H269059   4.027   3.453  11.401  0.6787  2.8516 -0.0123
15882TIP3   OH269060   6.124   4.682  14.545 -0.5132 -0.2197  0.1336
15882TIP3    H169061   6.040   4.667  14.586 -0.9593  1.1403 -0.2389
15882TIP3    H269062   6.175   4.603  14.563 -1.7412 -0.8990  0.6576
15883TIP3   OH269063   3.764   3.712  15.494 -0.0397 -0.3499 -0.2262
15883TIP3    H169064   3.714   3.783  15.534  0.3826 -0.6315  0.8256
15883TIP3    H269065   3.830   3.756  15.439 -1.9925  0.0337 -2.4329
15884TIP3   OH269066   5.504   1.684   2.990  0.3780 -0.8350 -1.1123
15884TIP3    H169067   5.582   1.738   2.976 -1.6300  2.4611 -0.6345
15884TIP3    H269068   5.458   1.687   2.906 -1.1508  0.7627 -0.2858
15885TIP3   OH269069   2.492   1.436  11.651 -0.3731  0.2918  0.4623
15885TIP3    H169070   2.440   1.456  11.573  0.3603 -1.6522 -0.5928
15885TIP3    H269071   2.429   1.400  11.713 -0.4113 -1.8569 -0.7300
15886TIP3   OH269072   1.040   4.758   0.850  0.0822 -0.1659  0.2075
15886TIP3    H169073   0.999   4.676   0.874  1.2397 -0.4773  1.2427
15886TIP3    H269074   1.085   4.787   0.930 -0.7869  1.7806  0.0457
15887TIP3   OH269075   1.557   1.209  11.365 -0.0887 -0.1569 -0.2046
15887TIP3    H169076   1.546   1.214  11.460 -1.9914 -0.6559 -0.3606
15887TIP3    H269077   1.529   1.295  11.333  0.8848  0.1323 -0.3096
15888TIP3   OH269078   2.096   4.921  16.009  0.0706 -0.3210 -0.3635
15888TIP3    H169079   2.053   5.006  16.015 -0.9405 -0.8137 -0.5393
15888TIP3    H269080   2.100   4.890  16.099 -0.2947 -0.4484 -0.3916
15889TIP3   OH269081   4.036   4.690  11.613  0.5508 -0.0056 -0.0864
15889TIP3    H169082   3.965   4.727  11.665  0.9991 -0.0962  0.6055
15889TIP3    H269083   3.999   4.679  11.526  0.5134  2.4212 -0.4312
15890TIP3   OH269084   0.524   6.697   6.294 -0.2493 -0.1844  0.3109
15890TIP3    H169085   0.524   6.619   6.349  0.5631  0.4265  1.2233
15890TIP3    H269086   0.617   6.712   6.274 -0.2730  1.1575  1.0878
15891TIP3   OH269087   2.052   3.057   1.567 -0.4967  0.2922  0.1737
15891TIP3    H169088   1.969   3.062   1.615 -0.6089  0.5362 -0.0407
15891TIP3    H269089   2.110   3.118   1.613 -0.6741  0.6964 -0.1327
15892TIP3   OH269090   1.855   4.934   3.062 -0.1638 -0.1167 -0.0359
15892TIP3    H169091   1.886   5.008   3.115  0.1214 -0.2621  0.0005
15892TIP3    H269092   1.768   4.914   3.097 -0.7241  0.9345 -0.7841
15893TIP3   OH269093   4.414   3.361   2.352 -0.0082  0.1696  0.2800
15893TIP3    H169094   4.409   3.283   2.406  1.5832 -0.9290 -1.0826
15893TIP3    H269095   4.506   3.368   2.326 -0.1387  2.3739  0.1620
15894TIP3   OH269096   2.396   6.433   4.868  0.0450 -0.2388  0.5177
15894TIP3    H169097   2.373   6.355   4.819  0.1685 -0.2921  0.5421
15894TIP3    H269098   2.361   6.506   4.817  0.4552 -0.2746  0.1845
15895TIP3   OH269099   6.629   4.353  15.361  0.7157  0.1817  0.5483
15895TIP3    H169100   6.708   4.329  15.410  0.2913 -1.6294  0.3887
15895TIP3    H269101   6.626   4.449  15.368  1.2392  0.0901  3.1722
15896TIP3   OH269102   5.012   6.735   1.378  0.2079 -0.5930 -0.2846
15896TIP3    H169103   5.019   6.821   1.421 -1.1869 -0.2738 -0.6368
15896TIP3    H269104   5.009   6.755   1.285  0.3623 -1.0651 -0.3932
15897TIP3   OH269105   4.118   0.080  11.469 -0.1116 -0.4417 -0.3599
15897TIP3    H169106   4.138   0.156  11.413  0.6740  1.0203  1.7659
15897TIP3    H269107   4.202   0.056  11.508 -0.6117 -1.4926  0.0965
15898TIP3   OH269108   1.460   0.135   0.014  0.4288 -0.0668 -0.2525
15898TIP3    H169109   1.478   0.229   0.017 -0.6025  0.1132  0.9721
15898TIP3    H269110   1.537   0.098  -0.030  1.0643  1.2916 -0.3448
15899TIP3   OH269111   6.027   2.557  13.097  0.4999  0.6764 -0.3452
15899TIP3    H169112   6.069   2.523  13.018  0.7586 -0.0353  0.0873
15899TIP3    H269113   6.001   2.479  13.147 -3.0725  0.9991 -1.4283
15900TIP3   OH269114   0.461   4.285  16.643  0.8094 -0.4621 -0.2381
15900TIP3    H169115   0.430   4.265  16.555  0.3744  2.6406 -0.8876
15900TIP3    H269116   0.553   4.262  16.643  0.8907 -0.1768 -1.6281
15901TIP3   OH269117   3.381   3.565  15.090  0.5172 -0.3680  0.5891
15901TIP3    H169118   3.380   3.535  14.999  1.2973 -0.2895  0.5516
15901TIP3    H269119   3.409   3.489  15.140 -1.1502 -0.7973  0.9238
15902TIP3   OH269120   1.533   6.624  13.264 -0.0740  0.2570  0.8282
15902TIP3    H169121   1.553   6.563  13.335 -1.5117 -0.3349  0.7476
15902TIP3    H269122   1.439   6.616  13.251  0.0627  0.8509 -0.7026
15903TIP3   OH269123   1.841   3.594  15.260 -0.9225  0.2513  0.0096
15903TIP3    H169124   1.890   3.551  15.190  0.4198  1.7599 -0.0236
15903TIP3    H269125   1.752   3.603  15.224 -0.3305  0.7708 -1.4292
15904TIP3   OH269126   2.231   4.629   3.361 -0.7383 -0.3996 -0.3777
15904TIP3    H169127   2.292   4.700   3.383 -0.4999  0.0773 -2.4315
15904TIP3    H269128   2.152   4.674   3.333 -2.0215 -1.0146  1.9809
15905TIP3   OH269129   0.952   1.548  12.881  0.7203 -0.0999 -0.0590
15905TIP3    H169130   0.927   1.595  12.961  0.5398 -1.1633  0.5228
15905TIP3    H269131   0.869   1.521  12.842  0.8400 -1.6132  0.6495
15906TIP3   OH269132   0.117   0.187  16.246 -0.3062 -0.4611 -0.1921
15906TIP3    H169133   0.179   0.199  16.319 -0.5152  0.4299 -0.1531
15906TIP3    H269134   0.052   0.256  16.258 -0.3444 -0.3032 -1.2302
15907TIP3   OH269135   6.270   5.406  16.420 -0.9041 -0.2876  0.2755
15907TIP3    H169136   6.267   5.451  16.504 -0.0071 -0.7206  0.5405
15907TIP3    H269137   6.189   5.354  16.418 -0.9683 -0.2118  0.8256
15908TIP3   OH269138   5.302   3.542  15.659  0.7517 -0.0814 -0.2370
15908TIP3    H169139   5.225   3.495  15.624  2.4041 -1.4391 -2.2966
15908TIP3    H269140   5.347   3.477  15.713  2.0228 -0.3212 -1.5241
15909TIP3   OH269141   5.906   0.774  12.029 -0.2969  0.0108  0.5429
15909TIP3    H169142   5.916   0.691  12.076 -2.7180 -1.2297 -0.9338
15909TIP3    H269143   5.933   0.754  11.939  1.6022  1.6000  0.6867
15910TIP3   OH269144   1.754   5.184   1.031  0.0556 -0.5227 -0.5262
15910TIP3    H169145   1.765   5.116   0.964  1.8325 -0.8457  0.0676
15910TIP3    H269146   1.759   5.137   1.114 -3.1414 -0.2800 -0.0691
15911TIP3   OH269147   5.161   2.662  10.969 -0.3989 -0.3678  0.1207
15911TIP3    H169148   5.077   2.707  10.956  1.2812  3.2496  0.3885
15911TIP3    H269149   5.151   2.617  11.053 -2.1762 -0.2440  0.0031
15912TIP3   OH269150   0.308   2.824  11.239 -0.2705  0.4194  0.5785
15912TIP3    H169151   0.214   2.830  11.259 -0.4345  0.2975 -0.1169
15912TIP3    H269152   0.332   2.735  11.265 -0.7055 -0.0731 -0.6405
15913TIP3   OH269153   2.763   3.338  15.511 -0.0182 -0.4017  0.5258
15913TIP3    H169154   2.850   3.298  15.518  0.6556  0.4524 -1.8252
15913TIP3    H269155   2.777   3.417  15.460 -1.7521  1.4420  2.6811
15914TIP3   OH269156   5.417   1.108   3.536 -0.0129  0.1418  0.4451
15914TIP3    H169157   5.335   1.125   3.582 -0.5228 -1.2760  0.0958
15914TIP3    H269158   5.391   1.065   3.455  1.0786 -0.5591  0.4422
15915TIP3   OH269159   4.126   2.825   6.747  0.4052  0.0203 -0.1835
15915TIP3    H169160   4.173   2.861   6.671  1.3345  0.0102  0.3705
15915TIP3    H269161   4.178   2.852   6.822  0.8553 -2.0294  0.3028
15916TIP3   OH269162   5.800   5.105  12.976  0.0452 -0.1563 -0.2195
15916TIP3    H169163   5.885   5.134  12.943 -0.6437  1.6891 -0.4679
15916TIP3    H269164   5.809   5.010  12.983  1.3731 -0.2666 -2.4112
15917TIP3   OH269165   6.782   1.103  12.852 -0.4592 -0.1740 -0.0921
15917TIP3    H169166   6.844   1.158  12.804 -0.6860  1.7012  1.6323
15917TIP3    H269167   6.700   1.112  12.804 -0.0757 -0.4404 -0.8130
15918TIP3   OH269168   3.524   3.044   3.477 -0.6460 -0.5321 -0.1663
15918TIP3    H169169   3.529   3.138   3.460 -1.7103 -0.6902 -1.4988
15918TIP3    H269170   3.451   3.035   3.538 -0.0097 -0.4236  0.6177
15919TIP3   OH269171   6.504   0.197   0.469 -0.3480  0.1272  0.5865
15919TIP3    H169172   6.415   0.204   0.501 -0.2923 -1.0452  1.0393
15919TIP3    H269173   6.559   0.206   0.547 -0.1705 -1.5347  0.6902
15920TIP3   OH269174   6.239   3.332  12.288  0.1388 -0.0902 -0.1334
15920TIP3    H169175   6.296   3.403  12.316  1.4105 -1.4428  0.8305
15920TIP3    H269176   6.297   3.257  12.276 -1.0590 -0.8085 -1.8405
15921TIP3   OH269177   3.553   6.405   2.903  0.0493 -0.9805 -0.5967
15921TIP3    H169178   3.493   6.441   2.838  0.6965 -0.5193 -0.9515
15921TIP3    H269179   3.501   6.341   2.951 -1.1553  0.4094  0.0503
15922TIP3   OH269180   6.818   4.418  12.430 -0.2839 -0.1912  0.4173
15922TIP3    H169181   6.734   4.394  12.391  0.3309 -0.7938 -0.5779
15922TIP3    H269182   6.882   4.400  12.362  0.6470  0.3826  1.1177
15923TIP3   OH269183   5.227   0.693   5.795  0.7269 -0.0067 -0.3763
15923TIP3    H169184   5.314   0.690   5.835  0.7480  2.5787 -0.0992
15923TIP3    H269185   5.168   0.667   5.866  1.1849 -1.5209 -0.4954
15924TIP3   OH269186   2.830   4.360   4.381 -0.1493 -0.5849  0.3356
15924TIP3    H169187   2.805   4.291   4.320 -1.2403  0.3531 -0.3180
15924TIP3    H269188   2.772   4.348   4.456  0.7537 -1.3390  0.9408
15925TIP3   OH269189   4.683   3.726   3.656 -0.0764 -0.0137  0.3373
15925TIP3    H169190   4.717   3.680   3.579 -0.0362  0.0210  0.3346
15925TIP3    H269191   4.601   3.680   3.676 -0.1050 -0.0004  0.2527
15926TIP3   OH269192   4.563   4.960  11.673  0.3760  0.1114  0.3343
15926TIP3    H169193   4.562   4.992  11.583 -0.6545  0.3552  0.4226
15926TIP3    H269194   4.569   5.039  11.727 -1.6860  0.1656  0.5372
15927TIP3   OH269195   0.275   5.554  12.669 -0.0885  0.0529 -0.0478
15927TIP3    H169196   0.241   5.572  12.757 -0.0948  1.6239 -0.3395
15927TIP3    H269197   0.370   5.560  12.678 -0.0734 -0.0904 -0.0998
15928TIP3   OH269198   3.676   5.833  12.019  0.2224  0.2032 -0.0681
15928TIP3    H169199   3.664   5.921  12.055 -0.9236 -0.4251  1.1984
15928TIP3    H269200   3.615   5.830  11.945  0.2764  0.4861 -0.1262
15929TIP3   OH269201   1.245   5.698   1.830  0.0341 -1.0842  0.5078
15929TIP3    H169202   1.331   5.723   1.798  0.4642 -1.6097  1.2259
15929TIP3    H269203   1.195   5.779   1.832  1.0565 -0.4594  1.7402
15930TIP3   OH269204   3.490   0.386   2.904  0.1186 -0.4254  0.4334
15930TIP3    H169205   3.445   0.461   2.945  0.4279  0.5206 -0.8955
15930TIP3    H269206   3.578   0.387   2.942  0.6437  0.8987 -0.7479
15931TIP3   OH269207   3.948   3.074  11.194 -0.5310 -0.1099 -0.0767
15931TIP3    H169208   3.939   3.151  11.138 -0.0453 -0.7777 -1.1115
15931TIP3    H269209   3.991   3.009  11.138 -1.2868 -1.2631  0.6450
15932TIP3   OH269210   4.678   6.269  11.287 -0.5856  0.0836  0.2386
15932TIP3    H169211   4.674   6.363  11.270 -0.5482 -0.2340 -1.7859
15932TIP3    H269212   4.618   6.254  11.360 -0.0562  1.7541  1.0588
15933TIP3   OH269213   4.474   5.263  12.381  0.8378  0.0414  1.0127
15933TIP3    H169214   4.489   5.357  12.368  1.3607  0.0135  1.3501
15933TIP3    H269215   4.396   5.243  12.330 -0.3661  1.0390  2.3849
15934TIP3   OH269216   5.083   1.799   4.277 -0.3918  0.0408 -0.0669
15934TIP3    H169217   5.139   1.739   4.326 -0.9715  0.4822  1.1624
15934TIP3    H269218   5.129   1.813   4.194  0.7884 -0.4036  0.5008
15935TIP3   OH269219   3.118   3.292   0.170 -0.2966  0.2351 -0.1750
15935TIP3    H169220   3.141   3.385   0.162  0.1370  0.2281  0.7805
15935TIP3    H269221   3.187   3.246   0.122 -0.8078  0.4184 -1.1119
15936TIP3   OH269222   5.702   1.778   4.480 -0.1627 -0.2441  0.2873
15936TIP3    H169223   5.734   1.699   4.436  1.7271  1.2338 -1.1187
15936TIP3    H269224   5.763   1.791   4.552  0.1625  0.5020 -0.1197
15937TIP3   OH269225   4.705   6.417   3.190 -0.1151 -0.1467  0.1779
15937TIP3    H169226   4.712   6.321   3.193 -0.8827 -0.3400 -2.0089
15937TIP3    H269227   4.611   6.434   3.198 -0.4837  0.0816 -3.1221
15938TIP3   OH269228   6.736   1.641   4.488  0.1187 -0.0116  0.1676
15938TIP3    H169229   6.644   1.619   4.506 -0.7718  2.5525 -0.8283
15938TIP3    H269230   6.754   1.715   4.546  1.2604  0.1313 -0.3467
15939TIP3   OH269231   5.001   5.451  11.691 -0.7393  0.2720 -0.6423
15939TIP3    H169232   5.052   5.399  11.629 -1.6084 -0.9937 -0.3414
15939TIP3    H269233   5.046   5.438  11.775 -0.7539  0.2963 -0.6312
15940TIP3   OH269234   4.973   3.606  11.327 -0.4816  0.1301 -0.4644
15940TIP3    H169235   5.016   3.626  11.244  2.1268 -2.3741  0.1021
15940TIP3    H269236   4.917   3.531  11.307  0.0403 -0.3853 -0.0487
15941TIP3   OH269237   5.832   3.290   6.175 -0.0351  0.0200  0.2605
15941TIP3    H169238   5.809   3.306   6.267 -0.0464  0.3434  0.2016
15941TIP3    H269239   5.898   3.221   6.179  0.9778  0.9793  0.5981
15942TIP3   OH269240   4.095   3.752  11.933  0.2165  0.8085  0.0889
15942TIP3    H169241   4.102   3.807  11.854  0.0084  1.4257  0.4927
15942TIP3    H269242   4.183   3.719  11.947  0.3155  0.9276 -0.2388
15943TIP3   OH269243   4.865   0.045   6.786  0.0334  0.1629 -0.4416
15943TIP3    H169244   4.792   0.063   6.728  0.3497  0.4804 -0.7437
15943TIP3    H269245   4.942   0.080   6.741  0.3506 -0.0206 -0.0568
15944TIP3   OH269246   0.558   5.271  11.076 -0.0799  0.6312 -0.2901
15944TIP3    H169247   0.514   5.256  10.992  1.0656 -3.3408 -0.3680
15944TIP3    H269248   0.650   5.281  11.053  0.2306 -0.4184  0.4490
15945TIP3   OH269249   5.912   5.318  13.686  0.4629 -0.1312  0.2122
15945TIP3    H169250   5.997   5.312  13.730  1.4830  1.6689 -1.3950
15945TIP3    H269251   5.873   5.398  13.720 -1.4659 -1.7781  2.2224
15946TIP3   OH269252   5.475   3.438   0.151  0.2879 -0.5240 -0.2597
15946TIP3    H169253   5.564   3.458   0.121  0.1898  1.0204  0.3914
15946TIP3    H269254   5.445   3.519   0.192 -0.2028 -1.9998  2.5261
15947TIP3   OH269255   4.508   4.381  14.038 -0.0591  0.6604 -0.1823
15947TIP3    H169256   4.482   4.472  14.028 -0.1662  0.8384  1.4423
15947TIP3    H269257   4.439   4.342  14.091 -1.2866 -1.0214 -2.8153
15948TIP3   OH269258   0.712   2.072  15.848 -0.3937  0.6432  0.2030
15948TIP3    H169259   0.641   2.033  15.899 -0.5074  0.9187  0.2540
15948TIP3    H269260   0.681   2.070  15.758  0.1431 -0.6148  0.0165
15949TIP3   OH269261   1.400   5.490   3.123  0.5018  0.7780 -0.0052
15949TIP3    H169262   1.328   5.535   3.166  1.2887  1.1277  0.9877
15949TIP3    H269263   1.358   5.422   3.071 -0.4984  0.1777  1.5072
15950TIP3   OH269264   4.476   5.182   2.502 -0.3815  0.4097 -0.2902
15950TIP3    H169265   4.498   5.172   2.410 -0.4536  0.4617 -0.3137
15950TIP3    H269266   4.551   5.146   2.550  0.5059  2.0759 -0.3464
15951TIP3   OH269267   1.343   5.720   2.336  0.2552  0.2336 -0.0196
15951TIP3    H169268   1.418   5.688   2.386  0.4528 -0.5814 -0.8043
15951TIP3    H269269   1.379   5.787   2.278  0.3507 -0.0322 -0.2707
15952TIP3   OH269270   6.395   1.855  15.443 -0.3325 -0.4964  0.1251
15952TIP3    H169271   6.311   1.884  15.409 -1.3199 -3.0656  0.1358
15952TIP3    H269272   6.439   1.815  15.367  0.6379  0.2632  0.2646
15953TIP3   OH269273   1.594   5.410  14.217  0.3034  0.5750  0.1146
15953TIP3    H169274   1.635   5.430  14.301 -0.9184  1.2490  0.5805
15953TIP3    H269275   1.667   5.397  14.157  1.1926  0.7179  1.1361
15954TIP3   OH269276   3.090   4.410   4.458 -1.1065 -0.6551  0.0707
15954TIP3    H169277   3.007   4.428   4.415 -1.3626 -1.2056  0.3294
15954TIP3    H269278   3.098   4.479   4.524 -0.2774  0.7408 -1.4206
15955TIP3   OH269279   5.890   4.129   0.904  0.4406 -0.0211  0.2095
15955TIP3    H169280   5.867   4.109   0.995 -0.9321  0.8561  0.0924
15955TIP3    H269281   5.977   4.091   0.892 -0.0806 -1.6817  1.3501
15956TIP3   OH269282   5.087   5.098  12.972 -0.3053 -0.0915  0.5072
15956TIP3    H169283   5.049   5.186  12.975  0.8840  0.4155  2.3719
15956TIP3    H269284   5.013   5.040  12.953 -1.5625  1.0779  1.6666
15957TIP3   OH269285   6.170   4.056   5.605 -0.4693 -0.4207  0.6152
15957TIP3    H169286   6.134   4.060   5.517  0.2529 -0.4136  0.3110
15957TIP3    H269287   6.172   4.147   5.635 -0.1113 -0.3527  0.3866
15958TIP3   OH269288   1.623   4.432   5.833  0.1381  0.9251  0.3930
15958TIP3    H169289   1.692   4.426   5.766  0.0874 -0.4002  0.4497
15958TIP3    H269290   1.560   4.495   5.797 -0.7880 -1.0464 -1.6418
15959TIP3   OH269291   0.629   3.473  13.363 -0.4743  0.3382  0.3497
15959TIP3    H169292   0.682   3.445  13.289 -0.4528  1.5059 -0.0906
15959TIP3    H269293   0.638   3.402  13.427  0.3970 -0.1692 -0.3186
15960TIP3   OH269294   3.418   4.311  12.270  0.2581  0.6754  0.3047
15960TIP3    H169295   3.512   4.316  12.254  0.2814  1.2885  0.5893
15960TIP3    H269296   3.396   4.219  12.259  1.1057  0.3186  1.4208
15961TIP3   OH269297   0.452   4.283   2.604 -0.0685 -0.0552  0.2697
15961TIP3    H169298   0.371   4.334   2.615  0.7046  1.0741  0.9201
15961TIP3    H269299   0.508   4.339   2.550 -0.1198 -1.3252 -1.1685
15962TIP3   OH269300   3.055   2.577  16.530 -0.3146 -0.0377 -0.2492
15962TIP3    H169301   3.112   2.578  16.454  0.4014 -0.0430  0.2800
15962TIP3    H269302   3.112   2.599  16.604 -0.2000 -3.3481  0.8221
15963TIP3   OH269303   5.899   2.258  14.096  0.2918  0.1496  0.0631
15963TIP3    H169304   5.806   2.268  14.115  0.0817  0.6312 -1.1348
15963TIP3    H269305   5.943   2.312  14.162 -0.1521 -1.3685  1.6685
15964TIP3   OH269306   0.453   3.156  12.310  0.6290  0.7556 -0.6796
15964TIP3    H169307   0.467   3.116  12.395 -2.6157  0.4515 -0.1777
15964TIP3    H269308   0.503   3.102  12.249 -0.0372 -1.3401  0.5662
15965TIP3   OH269309   5.012   5.334   0.726  0.0411  0.1962  0.0415
15965TIP3    H169310   4.922   5.317   0.755  0.1063  0.4578  0.4032
15965TIP3    H269311   5.032   5.421   0.760 -0.0328  0.6989 -1.1706
15966TIP3   OH269312   2.272   5.927  16.247  0.2924  0.5160 -0.3253
15966TIP3    H169313   2.335   5.963  16.184  0.6199  1.0093  0.2783
15966TIP3    H269314   2.279   5.983  16.323 -1.0929  0.7359 -0.3371
15967TIP3   OH269315   2.691   6.612   2.940  0.5070  0.1363  0.1836
15967TIP3    H169316   2.661   6.524   2.963 -1.5429  0.9322  0.8727
15967TIP3    H269317   2.732   6.645   3.020 -1.7604  0.9478  1.1099
15968TIP3   OH269318   2.639   5.348   0.510  0.2574  0.3976  0.5336
15968TIP3    H169319   2.550   5.339   0.475 -0.2698 -0.5508  1.9721
15968TIP3    H269320   2.682   5.265   0.487  0.4654  0.4856  0.6033
15969TIP3   OH269321   2.993   5.384   3.017 -0.2256 -0.1970  0.4513
15969TIP3    H169322   3.040   5.378   3.100  0.6006 -1.8632 -0.0900
15969TIP3    H269323   2.920   5.322   3.026  0.3205 -0.9746 -0.3209
15970TIP3   OH269324   6.109   6.053  11.486  0.5735  0.9867 -0.2362
15970TIP3    H169325   6.035   6.048  11.546  1.5898 -0.3711  0.9899
15970TIP3    H269326   6.072   6.086  11.404 -1.8329 -1.5914 -0.3445
15971TIP3   OH269327   5.026   3.691   1.761  0.6154 -0.4282  0.5886
15971TIP3    H169328   5.032   3.728   1.849  0.8022 -1.7346  1.1496
15971TIP3    H269329   5.111   3.709   1.722  0.4028  0.4888  0.5294
15972TIP3   OH269330   4.454   5.077   4.060 -0.4203 -0.3860 -0.1368
15972TIP3    H169331   4.507   5.079   3.979 -0.2322  1.3963  0.0060
15972TIP3    H269332   4.381   5.018   4.039  0.0582 -0.5817 -1.3322
15973TIP3   OH269333   0.597   6.465   1.123  0.1721  0.6571 -0.5248
15973TIP3    H169334   0.532   6.420   1.176 -0.4377  0.6781 -1.2399
15973TIP3    H269335   0.551   6.540   1.087  0.4504  0.4075 -1.4262
15974TIP3   OH269336   0.273   3.619   3.376 -0.0139 -0.9885 -0.7007
15974TIP3    H169337   0.310   3.555   3.316  3.5578 -1.1475  1.3667
15974TIP3    H269338   0.349   3.656   3.421 -2.1562  2.2944  0.6070
15975TIP3   OH269339   3.455   4.763   2.778  0.4944 -0.4189  0.0070
15975TIP3    H169340   3.526   4.812   2.819  0.5872 -0.9589  0.5008
15975TIP3    H269341   3.407   4.829   2.727  0.2191  0.3275  1.1883
15976TIP3   OH269342   0.587   5.673  13.476  0.3107 -0.1034  0.1118
15976TIP3    H169343   0.543   5.596  13.511  1.1316 -0.8695 -0.4916
15976TIP3    H269344   0.516   5.732  13.451 -0.3119  0.2130  2.4137
15977TIP3   OH269345   1.017   3.699  14.580 -0.0736 -0.0780  0.2696
15977TIP3    H169346   0.975   3.654  14.654  0.4272  0.2510  0.7615
15977TIP3    H269347   0.993   3.791  14.592 -1.7676 -0.2670 -1.1746
15978TIP3   OH269348   3.544   1.457  13.596 -0.3605 -0.0757 -0.2769
15978TIP3    H169349   3.457   1.455  13.554 -0.6988 -0.0436  0.4106
15978TIP3    H269350   3.605   1.436  13.525 -1.1179 -2.5252 -0.2781
15979TIP3   OH269351   3.804   1.384   5.672 -0.5020 -0.2762 -0.0348
15979TIP3    H169352   3.798   1.307   5.729  0.5655 -0.4459 -0.1396
15979TIP3    H269353   3.896   1.408   5.673 -1.0269  1.9214  1.1796
15980TIP3   OH269354   6.089   6.493   5.201 -0.0775  0.1275 -0.0237
15980TIP3    H169355   6.127   6.407   5.184  0.1111  0.3554 -0.8379
15980TIP3    H269356   6.040   6.513   5.121 -0.9846  0.3258  0.5702
15981TIP3   OH269357   6.018   4.255   0.580  0.3850  0.8790  0.1087
15981TIP3    H169358   6.072   4.251   0.659  0.0210  1.3813  0.3910
15981TIP3    H269359   6.055   4.188   0.522 -0.3123 -0.6311  1.3287
15982TIP3   OH269360   0.224   3.196   1.597  0.1509  0.1053 -0.0013
15982TIP3    H169361   0.231   3.135   1.523  1.5769 -0.6561  0.7190
15982TIP3    H269362   0.255   3.279   1.563  0.8875 -0.2622 -0.2489
15983TIP3   OH269363   4.906   4.747   4.112  0.3033  0.3272 -0.3974
15983TIP3    H169364   4.956   4.666   4.117 -2.3598 -1.5902 -2.1999
15983TIP3    H269365   4.838   4.738   4.179  0.2905  1.3471 -0.2543
15984TIP3   OH269366   1.085   1.627   2.902  0.3444 -0.2101  0.1310
15984TIP3    H169367   1.074   1.574   2.980 -0.2766 -1.7859 -0.9836
15984TIP3    H269368   1.053   1.572   2.830 -2.6703  2.5045 -0.8517
15985TIP3   OH269369   1.679   5.978  14.341  0.1980  0.2045  0.1009
15985TIP3    H169370   1.745   6.040  14.371 -0.3958  0.8677  0.0539
15985TIP3    H269371   1.656   6.006  14.253 -0.9200  0.6516  0.5052
15986TIP3   OH269372   3.982   5.093  15.030 -0.4255 -0.2900 -0.5303
15986TIP3    H169373   4.044   5.044  15.084 -1.0082  1.6763  2.0955
15986TIP3    H269374   4.025   5.177  15.014 -1.1494 -0.0597 -1.3779
15987TIP3   OH269375   3.020   6.601  14.105 -0.1062 -0.1334  0.1075
15987TIP3    H169376   2.971   6.673  14.145 -2.6433 -0.3468 -2.3496
15987TIP3    H269377   2.969   6.522  14.127 -0.0776 -0.5567 -1.2588
15988TIP3   OH269378   3.135   5.783  14.730 -0.0862 -0.1875 -0.1967
15988TIP3    H169379   3.057   5.802  14.782  0.8145 -1.5836  1.7640
15988TIP3    H269380   3.194   5.856  14.748  0.3274 -0.7977  1.0271
15989TIP3   OH269381   3.245   4.035   1.729 -0.3611 -0.1499 -0.1949
15989TIP3    H169382   3.277   3.950   1.698  0.9436  0.3577 -0.3177
15989TIP3    H269383   3.282   4.098   1.667  0.2874  0.6690  0.9895
15990TIP3   OH269384   0.349   0.526   4.597 -0.2042  0.5904  0.1754
15990TIP3    H169385   0.443   0.510   4.604 -0.1005  0.5561 -1.0820
15990TIP3    H269386   0.318   0.459   4.537 -1.3211 -0.3650  1.7637
15991TIP3   OH269387   0.221   1.490  13.693 -0.5143 -0.0091 -0.0479
15991TIP3    H169388   0.144   1.441  13.665 -1.0151  1.7688 -2.0748
15991TIP3    H269389   0.194   1.532  13.775 -1.8179  0.7057 -0.8002
15992TIP3   OH269390   3.955   2.562  13.614 -0.5025  0.4402  0.2112
15992TIP3    H169391   3.870   2.588  13.648 -1.0739  1.7035 -1.9430
15992TIP3    H269392   3.939   2.479  13.570 -0.0125 -0.6106  1.9183
15993TIP3   OH269393   5.699   0.114   3.313 -0.9763 -0.4427 -0.2796
15993TIP3    H169394   5.666   0.024   3.316 -0.4901 -0.6046  1.1963
15993TIP3    H269395   5.734   0.129   3.401  1.2508  0.3411 -1.2426
15994TIP3   OH269396   6.626   0.260   5.248 -0.2903 -0.5211 -0.0283
15994TIP3    H169397   6.632   0.330   5.183  0.3985  1.7689  2.3064
15994TIP3    H269398   6.701   0.204   5.229  0.4571  0.6332 -0.6646
15995TIP3   OH269399   2.923   5.886   1.167  0.3974  0.1432  0.3025
15995TIP3    H169400   2.903   5.852   1.255  2.3204 -0.6679  0.4725
15995TIP3    H269401   2.837   5.903   1.128 -0.5915 -1.8999  1.4029
15996TIP3   OH269402   2.714   1.415   5.015  0.2835 -0.8037  0.6878
15996TIP3    H169403   2.650   1.352   5.050 -0.7865  0.0393  0.3264
15996TIP3    H269404   2.702   1.409   4.920  0.7754 -0.6505  0.6155
15997TIP3   OH269405   1.870   5.040   4.665 -0.1004 -0.6267 -0.0713
15997TIP3    H169406   1.892   5.119   4.714  0.1655  0.1611 -1.4255
15997TIP3    H269407   1.776   5.047   4.648 -0.1764 -0.8589  0.2437
15998TIP3   OH269408   6.446   5.649   4.526  0.3928 -0.0320  0.4707
15998TIP3    H169409   6.415   5.727   4.479  1.0225 -0.6645 -1.0622
15998TIP3    H269410   6.402   5.576   4.483  1.4239 -0.6768  0.4868
15999TIP3   OH269411   2.584   2.954   1.489  0.1701 -0.2325  0.0084
15999TIP3    H169412   2.537   2.916   1.414 -0.2708  0.2718  0.0207
15999TIP3    H269413   2.662   2.994   1.450  1.0393 -1.7807  0.0904
16000TIP3   OH269414   5.333   3.249  16.714 -0.1395 -0.6679 -0.6160
16000TIP3    H169415   5.390   3.175  16.693  0.1739 -0.4429 -0.5680
16000TIP3    H269416   5.390   3.310  16.761 -0.7428 -1.0175  0.6012
16001TIP3   OH269417   4.354   4.695   2.605 -0.3140  0.0176 -0.8522
16001TIP3    H169418   4.392   4.612   2.577  0.2860 -0.4406  1.1542
16001TIP3    H269419   4.276   4.670   2.654 -1.4365  0.7913 -2.1813
16002TIP3   OH269420   0.176   0.493   0.742  0.5779  0.3232 -0.2602
16002TIP3    H169421   0.190   0.445   0.823  1.6784  0.5533 -0.3026
16002TIP3    H269422   0.131   0.573   0.769 -1.0389 -0.5717 -0.1595
16003TIP3   OH269423   4.944   4.857   3.529  0.5039  0.3728  0.6497
16003TIP3    H169424   5.009   4.904   3.477  0.2595  1.6107  1.4063
16003TIP3    H269425   4.995   4.799   3.585  1.1675  2.5220  2.4272
16004TIP3   OH269426   0.265   4.915   2.547  0.4454  0.2997 -0.5904
16004TIP3    H169427   0.329   4.974   2.507  2.4316 -0.1126  1.7482
16004TIP3    H269428   0.195   4.973   2.577 -0.0666  0.8292 -2.6296
16005TIP3   OH269429   1.036   0.119   3.645 -1.0474  0.2557 -0.4799
16005TIP3    H169430   0.979   0.094   3.717 -1.1760 -2.3295 -1.3535
16005TIP3    H269431   1.002   0.203   3.615 -2.1341  0.4930  1.2639
16006TIP3   OH269432   1.145   1.645   1.035  0.1985 -0.0780  0.1168
16006TIP3    H169433   1.185   1.719   1.081  2.7450 -0.5957 -1.0670
16006TIP3    H269434   1.106   1.683   0.957 -1.7862  0.4440  1.3026
16007TIP3   OH269435   2.738   1.548   5.259 -0.8760 -0.1242 -0.5120
16007TIP3    H169436   2.810   1.609   5.248 -1.9398  1.5819  1.3211
16007TIP3    H269437   2.716   1.520   5.170  0.2727  1.4363 -1.3238
16008TIP3   OH269438   4.844   0.227  17.076  0.0009  0.1065 -0.3590
16008TIP3    H169439   4.880   0.307  17.036 -0.5684  1.1815  1.1759
16008TIP3    H269440   4.910   0.200  17.139 -0.8106  0.7104  0.7683
16009TIP3   OH269441   0.181   2.083  14.873  0.3068 -0.0645 -0.5305
16009TIP3    H169442   0.260   2.030  14.863 -0.5063 -1.3152 -0.5247
16009TIP3    H269443   0.168   2.088  14.968  0.4449  0.2488 -0.5272
16010TIP3   OH269444   1.577   1.862   2.247  0.3502 -0.5794 -0.3310
16010TIP3    H169445   1.546   1.772   2.237 -0.9670 -0.3764  1.3578
16010TIP3    H269446   1.583   1.896   2.158 -0.8062 -1.8178 -0.9168
16011TIP3   OH269447   5.702   5.007   4.675 -0.4202  0.4176  0.1853
16011TIP3    H169448   5.642   5.015   4.601  0.3102  0.9273 -0.3537
16011TIP3    H269449   5.661   4.941   4.732 -1.2021  0.3481 -0.4496
16012TIP3   OH269450   5.586   1.415   1.736 -0.2249  0.0925 -0.0817
16012TIP3    H169451   5.613   1.470   1.662 -1.1011  1.0490  0.2829
16012TIP3    H269452   5.499   1.383   1.711 -1.1896  1.6577  1.1592
16013TIP3   OH269453   2.676   2.990   5.940 -0.2036  0.4080 -0.0444
16013TIP3    H169454   2.733   3.033   6.004 -1.3224 -0.2648  1.4632
16013TIP3    H269455   2.592   2.982   5.984 -0.2905 -2.6045 -0.5233
16014TIP3   OH269456   4.913   5.944   4.233 -0.0747  0.0346 -0.3092
16014TIP3    H169457   4.944   5.933   4.143 -1.3274  1.0917 -0.9105
16014TIP3    H269458   4.887   6.036   4.238 -0.4731 -0.1278  0.9977
16015TIP3   OH269459   3.681   4.484   0.907  0.2059 -0.0435  0.2077
16015TIP3    H169460   3.628   4.410   0.935  0.9538 -0.9160 -0.5932
16015TIP3    H269461   3.634   4.522   0.833 -0.6768  0.9227  1.2307
16016TIP3   OH269462   3.581   5.095  14.818  0.8607 -0.5568 -0.5139
16016TIP3    H169463   3.659   5.132  14.778  0.2120  2.2975  0.5892
16016TIP3    H269464   3.609   5.066  14.904  0.5639  1.5584  0.3508
16017TIP3   OH269465   4.404   6.209  15.703 -0.0270 -0.1986  0.2692
16017TIP3    H169466   4.332   6.229  15.762  0.0490  0.7526  0.0661
16017TIP3    H269467   4.365   6.210  15.616  0.2901  0.7517  0.1203
16018TIP3   OH269468   3.019   3.155   3.520 -0.1427 -0.0227 -0.2414
16018TIP3    H169469   3.107   3.125   3.543 -1.1584 -2.3879  0.8388
16018TIP3    H269470   2.976   3.173   3.603 -0.3053  2.5616 -0.7902
16019TIP3   OH269471   0.208   5.695   2.681 -0.0997 -0.2702 -0.7880
16019TIP3    H169472   0.281   5.646   2.720  0.3368 -0.4090 -1.7671
16019TIP3    H269473   0.239   5.785   2.678 -0.0354 -0.3009 -1.0482
16020TIP3   OH269474   2.325   0.904   0.092  0.3830  0.0987  0.4383
16020TIP3    H169475   2.258   0.955   0.047 -0.2935 -1.3043 -0.2161
16020TIP3    H269476   2.358   0.962   0.161 -1.0468  1.0550  0.3519
16021TIP3   OH269477   2.710   2.300   1.856 -0.3647 -0.1360 -0.2734
16021TIP3    H169478   2.803   2.291   1.875  0.0466  1.2605 -1.4411
16021TIP3    H269479   2.706   2.318   1.762 -1.8448 -0.4263 -0.2987
16022TIP3   OH269480   6.410   3.492   0.839 -0.0481  0.2382 -0.1604
16022TIP3    H169481   6.368   3.498   0.753  0.6478 -0.1458 -0.5359
16022TIP3    H269482   6.338   3.494   0.902 -0.5514  0.6792 -0.7488
16023TIP3   OH269483   6.084   2.371  17.039  0.4155  0.2369  0.8293
16023TIP3    H169484   6.033   2.373  16.958  0.7379 -0.4901  0.6010
16023TIP3    H269485   6.060   2.288  17.081  0.5997  0.3928  1.2508
16024TIP3   OH269486   3.151   5.366  14.594 -0.3903  0.6272  0.0961
16024TIP3    H169487   3.227   5.419  14.572  0.1164  0.6226  1.7020
16024TIP3    H269488   3.104   5.355  14.512  0.5569  1.8764 -0.6330
16025TIP3   OH269489   5.321   5.447   2.068  0.0475 -0.4370 -0.7926
16025TIP3    H169490   5.292   5.508   2.000 -0.7506 -1.6154 -1.5498
16025TIP3    H269491   5.395   5.400   2.029  0.2916 -0.3537 -0.4338
16026TIP3   OH269492   3.008   4.168   1.517  0.3947 -0.6568 -0.3823
16026TIP3    H169493   3.102   4.181   1.508  0.4920 -1.8857 -1.4142
16026TIP3    H269494   2.999   4.084   1.562 -0.2264 -0.2318  0.3243
16027TIP3   OH269495   2.688   6.720   5.786  0.7450 -0.1046  0.4196
16027TIP3    H169496   2.637   6.792   5.748  0.9687 -0.0357  0.2472
16027TIP3    H269497   2.777   6.735   5.754  0.2544 -2.2511 -2.3763
16028TIP3   OH269498   2.575   4.057  15.384 -0.1983  0.6559 -0.3759
16028TIP3    H169499   2.636   4.100  15.324 -2.4170  2.6870 -1.3883
16028TIP3    H269500   2.628   3.996  15.434  2.2941  1.0306 -2.3813
16029TIP3   OH269501   1.524   1.944   5.921 -0.6987  0.9256 -0.5471
16029TIP3    H169502   1.529   2.024   5.973  0.0641  0.5049  0.0380
16029TIP3    H269503   1.544   1.873   5.983 -1.8056  0.2316 -0.9465
16030TIP3   OH269504   2.022   0.983  11.850 -0.2250 -0.2084 -0.1292
16030TIP3    H169505   1.968   1.044  11.900  0.8261  1.2258 -0.6688
16030TIP3    H269506   2.107   0.984  11.894  0.4860  0.5015 -1.4214
16031TIP3   OH269507   3.675   5.654   4.395  0.1365  0.0566  0.0128
16031TIP3    H169508   3.694   5.590   4.326 -0.7742  0.6344 -0.7881
16031TIP3    H269509   3.651   5.734   4.349  1.7619  1.1739  1.0003
16032TIP3   OH269510   3.755   6.725   0.042  0.1896 -0.6245  0.1987
16032TIP3    H169511   3.661   6.739   0.039  0.1657 -0.5588  0.9966
16032TIP3    H269512   3.770   6.680   0.125  0.5129 -3.5768 -1.3483
16033TIP3   OH269513   2.175   6.223  14.451 -0.4060 -0.1662  0.8739
16033TIP3    H169514   2.254   6.277  14.452 -0.2023 -0.4701  1.6566
16033TIP3    H269515   2.200   6.143  14.496 -0.3620 -1.4578 -1.3054
16034TIP3   OH269516   4.659   6.285   4.582  0.1186  0.3970 -0.2386
16034TIP3    H169517   4.580   6.295   4.635  1.5008  4.4505  1.4044
16034TIP3    H269518   4.660   6.361   4.524  2.1972 -0.2066 -1.1073
16035TIP3   OH269519   0.497   3.282   1.902  0.0877 -0.1009 -0.5671
16035TIP3    H169520   0.482   3.325   1.987  0.4718 -1.3860  0.1861
16035TIP3    H269521   0.430   3.213   1.899  0.5319 -0.5171 -0.9844
16036TIP3   OH269522   6.133   4.089  10.781 -0.7493  0.1367  0.4739
16036TIP3    H169523   6.068   4.065  10.715  1.4885  0.3900 -1.9954
16036TIP3    H269524   6.086   4.148  10.840 -2.6494  0.7073 -1.4583
16037TIP3   OH269525   3.282   5.586   3.006  0.1600  0.8891 -0.7472
16037TIP3    H169526   3.358   5.641   3.022 -0.4676  1.2634  1.1338
16037TIP3    H269527   3.318   5.497   3.001  0.6447  0.9547  1.0643
16038TIP3   OH269528   5.164   2.850   4.309  0.4402 -0.5612  0.1411
16038TIP3    H169529   5.220   2.923   4.338 -1.1423  0.4362  0.7896
16038TIP3    H269530   5.117   2.885   4.233  1.4612 -1.7669 -1.1012
16039TIP3   OH269531   6.758   2.052   2.792  0.9376  0.1911 -0.0363
16039TIP3    H169532   6.850   2.034   2.813  0.8980  0.1300  0.0896
16039TIP3    H269533   6.739   2.134   2.837  0.9598  0.2589 -0.1496
16040TIP3   OH269534   3.428   0.970   3.819  0.4567 -0.8866 -0.3215
16040TIP3    H169535   3.459   1.033   3.754 -1.1306  0.4590  0.1754
16040TIP3    H269536   3.423   1.019   3.900 -2.7948 -0.9620 -0.3300
16041TIP3   OH269537   1.617   3.087   4.903 -0.0282  0.1276 -0.0110
16041TIP3    H169538   1.601   3.116   4.993 -2.3845 -2.2148  0.4503
16041TIP3    H269539   1.711   3.072   4.900  0.0845 -0.0407  2.1945
16042TIP3   OH269540   2.442   2.195  14.785  0.7475 -0.0250  0.3229
16042TIP3    H169541   2.458   2.107  14.751  1.3745  0.4351 -0.6100
16042TIP3    H269542   2.487   2.196  14.870  1.2782 -0.4145  0.0557
16043TIP3   OH269543   1.964   0.870  11.315  0.6188 -0.0168 -0.0614
16043TIP3    H169544   1.875   0.905  11.317  1.2105  1.5317  1.6881
16043TIP3    H269545   2.013   0.926  11.374  2.6612 -1.1680 -0.5767
16044TIP3   OH269546   2.282   3.940  15.592  0.2112 -0.2341  0.3406
16044TIP3    H169547   2.246   3.852  15.586  0.4654 -0.3245  0.1449
16044TIP3    H269548   2.340   3.938  15.667 -0.0602 -0.1327  0.5557
16045TIP3   OH269549   1.292   0.501  13.389 -0.4701 -0.2878 -0.5171
16045TIP3    H169550   1.304   0.434  13.321  2.1268  0.1025 -0.5437
16045TIP3    H269551   1.244   0.571  13.345 -0.3448 -0.7641 -1.4486
16046TIP3   OH269552   4.832   5.201  10.704 -0.8728  0.7153 -0.3059
16046TIP3    H169553   4.747   5.194  10.747 -1.2388 -0.2700 -1.1518
16046TIP3    H269554   4.893   5.156  10.763 -1.4458 -1.0028 -0.9677
16047TIP3   OH269555   4.960   2.546  16.114 -0.0437 -0.1511  0.4535
16047TIP3    H169556   4.878   2.527  16.160  0.5696 -2.3117  0.7490
16047TIP3    H269557   4.977   2.469  16.060  2.3459 -0.2849  1.2463
16048TIP3   OH269558   0.893   2.955   0.186 -0.2387  0.1559  0.2193
16048TIP3    H169559   0.929   2.974   0.273 -2.2451  1.5288  0.8138
16048TIP3    H269560   0.843   2.874   0.198  0.0434 -0.0337  0.1466
16049TIP3   OH269561   5.769   0.073  12.900  0.1815  0.0690 -0.2986
16049TIP3    H169562   5.805   0.085  12.812 -0.8431 -1.4071 -0.9597
16049TIP3    H269563   5.764  -0.022  12.912  0.1290  0.2385  1.2959
16050TIP3   OH269564   2.036   0.798   0.279  0.3993  0.0769  0.1983
16050TIP3    H169565   2.112   0.740   0.270  1.1168  0.7952  1.4249
16050TIP3    H269566   2.038   0.826   0.370 -1.1105  0.4432  0.1439
16051TIP3   OH269567   1.883   5.689  16.598 -0.1960  0.5275  0.8089
16051TIP3    H169568   1.932   5.613  16.629 -1.9852 -1.2843 -0.5187
16051TIP3    H269569   1.932   5.720  16.522 -1.5328 -2.0194 -1.2680
16052TIP3   OH269570   6.758   2.325   2.883 -0.4366 -0.0783  0.3077
16052TIP3    H169571   6.701   2.386   2.837  0.2838  0.3774  0.0089
16052TIP3    H269572   6.844   2.365   2.880  0.1469 -1.3059 -0.2799
16053TIP3   OH269573   2.218   0.157   1.656 -1.1559 -0.5532 -0.3908
16053TIP3    H169574   2.163   0.236   1.658  0.9435  0.9941 -0.1205
16053TIP3    H269575   2.168   0.095   1.603 -1.7120  1.9644 -3.1246
16054TIP3   OH269576   2.806   3.209  14.905  0.4698  0.0249  0.2994
16054TIP3    H169577   2.752   3.173  14.976 -0.4303  1.1345  0.2227
16054TIP3    H269578   2.781   3.159  14.828  0.5456 -0.3695  0.5260
16055TIP3   OH269579   0.412   2.564   6.077  0.3179 -0.0988 -0.0443
16055TIP3    H169580   0.414   2.613   5.995 -0.7155 -0.0914 -0.0706
16055TIP3    H269581   0.468   2.615   6.136  0.5668  0.2271 -0.5523
16056TIP3   OH269582   4.278   3.287   3.871  0.2719  0.5222 -0.4834
16056TIP3    H169583   4.189   3.258   3.892  0.7383 -1.9255 -1.4704
16056TIP3    H269584   4.270   3.330   3.786 -0.3355  2.8812  0.6958
16057TIP3   OH269585   3.845   4.081  17.072 -0.3290 -0.6294  0.5049
16057TIP3    H169586   3.841   3.992  17.108 -1.6805 -0.5538  0.6018
16057TIP3    H269587   3.807   4.072  16.984 -1.3837  0.0049  0.8746
16058TIP3   OH269588   5.524   6.309  12.311 -1.2934 -0.4156 -0.0549
16058TIP3    H169589   5.439   6.296  12.268 -1.0255  0.0331 -0.7267
16058TIP3    H269590   5.579   6.238  12.277 -1.1322 -0.1667 -0.3084
16059TIP3   OH269591   0.920   2.409  16.206  0.4605 -0.2861 -0.1091
16059TIP3    H169592   0.966   2.326  16.222  4.4463  1.5317 -0.9713
16059TIP3    H269593   0.864   2.390  16.131  1.3686 -2.1577 -0.3889
16060TIP3   OH269594   0.239   2.102   3.982  0.6988 -0.1618  0.3719
16060TIP3    H169595   0.210   2.101   3.891  1.4151 -0.0397  0.1381
16060TIP3    H269596   0.315   2.159   3.983  0.8544 -0.3672  1.0032
16061TIP3   OH269597   0.383   1.394   5.622  0.2420  0.2463 -0.3764
16061TIP3    H169598   0.424   1.441   5.695  1.6228 -1.3045 -0.0906
16061TIP3    H269599   0.364   1.462   5.558  2.1729  1.2301  0.0155
16062TIP3   OH269600   3.888   4.650   2.841 -0.3438  0.2398  0.1211
16062TIP3    H169601   3.868   4.733   2.884  1.8903  0.2360  1.3041
16062TIP3    H269602   3.804   4.604   2.839 -1.2244  1.7054  1.2955
16063TIP3   OH269603   5.240   2.969   4.910  0.3353  0.0964  0.0878
16063TIP3    H169604   5.226   3.001   4.821  1.5575  1.1346  0.2379
16063TIP3    H269605   5.237   2.874   4.903  1.2320  0.1490 -1.2100
16064TIP3   OH269606   4.643   0.887   0.804 -0.2818 -0.1909 -0.5259
16064TIP3    H169607   4.711   0.934   0.756 -1.1899  0.4468 -1.2051
16064TIP3    H269608   4.654   0.917   0.895  0.3072 -0.0533 -0.6378
16065TIP3   OH269609   0.838   6.799   3.802  0.3310 -0.3763 -0.4510
16065TIP3    H169610   0.905   6.730   3.810  1.2857  0.5622 -0.0561
16065TIP3    H269611   0.756   6.755   3.824  0.9581 -1.3271  0.0912
16066TIP3   OH269612   3.546   5.725   0.312 -0.2096  0.0064  0.2587
16066TIP3    H169613   3.639   5.729   0.293 -0.1442 -0.3810  0.4789
16066TIP3    H269614   3.518   5.641   0.276 -0.3918 -0.0529  0.5353
16067TIP3   OH269615   6.380   0.907   4.509  0.6258  0.4345 -0.3015
16067TIP3    H169616   6.436   0.833   4.532  0.3807  0.6659  1.1649
16067TIP3    H269617   6.347   0.939   4.593 -2.1181  0.0033 -1.0999
16068TIP3   OH269618   4.708   3.288   2.288 -0.2066  0.4190 -0.2120
16068TIP3    H169619   4.763   3.242   2.225 -2.6595  0.2846 -2.4585
16068TIP3    H269620   4.704   3.230   2.364  0.8379 -0.6172 -0.9209
16069TIP3   OH269621   4.259   3.832   0.248  0.3359 -0.0926  0.8522
16069TIP3    H169622   4.340   3.877   0.225 -0.3560  0.6129 -0.2859
16069TIP3    H269623   4.268   3.814   0.342  2.3460 -1.1925  0.5041
16070TIP3   OH269624   5.110   2.402  14.802 -0.1725  0.4372 -0.1421
16070TIP3    H169625   5.058   2.416  14.723  0.3862 -2.0064 -1.0336
16070TIP3    H269626   5.184   2.462  14.792 -1.2555  1.7957 -0.3127
16071TIP3   OH269627   4.336   0.210  13.419 -0.8626 -0.2120 -0.2840
16071TIP3    H169628   4.296   0.149  13.357 -0.1083 -0.3765 -0.6264
16071TIP3    H269629   4.375   0.278  13.364  0.7826 -0.9473 -0.0776
16072TIP3   OH269630   4.248   3.724   4.460 -0.3148 -0.0449 -0.1277
16072TIP3    H169631   4.185   3.684   4.401  0.6113 -0.4828 -0.8457
16072TIP3    H269632   4.197   3.788   4.510 -1.4369 -0.8188 -0.2570
16073TIP3   OH269633   1.217   5.809   3.358 -0.3556 -0.2210  0.2024
16073TIP3    H169634   1.192   5.738   3.299  3.0963 -2.4439  1.1366
16073TIP3    H269635   1.244   5.765   3.438 -1.1501  2.4501  2.0609
16074TIP3   OH269636   2.852   0.083   1.205  0.5446 -0.1008  0.0897
16074TIP3    H169637   2.820   0.145   1.139 -0.0859 -0.0198  0.4649
16074TIP3    H269638   2.789   0.089   1.276  2.3504  1.4454  1.6763
16075TIP3   OH269639   2.322   0.930   3.356  0.0123  0.0720 -0.3652
16075TIP3    H169640   2.316   1.025   3.368 -0.2241 -0.0445  0.4723
16075TIP3    H269641   2.323   0.918   3.261  2.1285  1.0373 -0.5290
16076TIP3   OH269642   1.854   1.006   4.621  0.1112 -0.4297  0.0084
16076TIP3    H169643   1.764   1.032   4.600  0.4338  1.2377  0.5907
16076TIP3    H269644   1.873   0.935   4.559 -1.5439 -0.7072 -0.2231
16077TIP3   OH269645   2.498   0.432  15.269  0.5633  0.1643 -0.4028
16077TIP3    H169646   2.592   0.415  15.259  0.6390 -0.4618  1.1296
16077TIP3    H269647   2.493   0.524  15.296  0.7166  0.2546 -0.6776
16078TIP3   OH269648   6.581   6.145   4.100 -0.3342  0.1254 -0.0794
16078TIP3    H169649   6.583   6.050   4.092  0.3205  0.1550 -0.3352
16078TIP3    H269650   6.597   6.177   4.011 -2.0553  0.4840 -0.2964
16079TIP3   OH269651   3.248   0.059   3.086  0.3424 -0.1590 -1.0802
16079TIP3    H169652   3.192  -0.017   3.070  1.2369 -0.6250 -2.0499
16079TIP3    H269653   3.262   0.058   3.181 -1.0218 -0.2086 -0.8562
16080TIP3   OH269654   6.806   4.075   0.459  0.1292 -0.6092  0.0603
16080TIP3    H169655   6.744   4.032   0.518 -0.3683  1.6168  1.2711
16080TIP3    H269656   6.883   4.018   0.458 -1.2039 -2.4911 -0.0038
16081TIP3   OH269657   0.793   2.713   2.624  0.5513  0.3617  0.7251
16081TIP3    H169658   0.731   2.643   2.645 -0.2759  0.4913 -1.1058
16081TIP3    H269659   0.879   2.671   2.624  0.3438 -0.0956  2.0477
16082TIP3   OH269660   1.725   0.718  16.027 -0.3082 -0.3496  0.6597
16082TIP3    H169661   1.793   0.698  16.091  1.0849 -0.5663 -0.8282
16082TIP3    H269662   1.702   0.809  16.045  1.1343  0.0627  0.5632
16083TIP3   OH269663   3.785   5.072  15.272 -0.0470  0.0716  0.5458
16083TIP3    H169664   3.732   5.069  15.352 -0.3096 -0.7625  0.3532
16083TIP3    H269665   3.869   5.107  15.301 -0.4422  0.6775  1.0011
16084TIP3   OH269666   2.176   3.119  13.087 -0.0689 -0.2245  0.8079
16084TIP3    H169667   2.259   3.076  13.066 -0.1153 -1.3035  2.5991
16084TIP3    H269668   2.119   3.101  13.013  1.2751  0.5467 -0.4649
16085TIP3   OH269669   6.437   3.270   6.150 -0.2634 -0.4726 -0.4074
16085TIP3    H169670   6.480   3.355   6.155  1.2852 -1.2068 -0.5602
16085TIP3    H269671   6.432   3.239   6.240  1.3278 -1.2059 -0.5349
16086TIP3   OH269672   3.893   3.928   4.078 -0.3431  0.0235  0.0789
16086TIP3    H169673   3.825   3.873   4.117 -0.2141 -1.1960 -1.3405
16086TIP3    H269674   3.890   3.908   3.985  1.8886  0.0150 -0.0484
16087TIP3   OH269675   6.551   1.221   3.571  0.2692 -0.3023 -0.3242
16087TIP3    H169676   6.603   1.162   3.626 -0.0609 -0.5947 -0.3186
16087TIP3    H269677   6.498   1.271   3.634  2.5392  2.0147 -0.1151
16088TIP3   OH269678   6.746   2.843   0.956  0.0050  0.3960  0.0385
16088TIP3    H169679   6.669   2.801   0.919  0.1528  1.3716 -1.4642
16088TIP3    H269680   6.713   2.926   0.992  0.6406  1.9969 -2.8050
16089TIP3   OH269681   2.396   6.631  12.324 -0.1832  0.2639 -0.5891
16089TIP3    H169682   2.409   6.617  12.418 -1.6268  1.5816 -0.1559
16089TIP3    H269683   2.306   6.664  12.317  0.0898  0.7075 -2.3873
16090TIP3   OH269684   4.086   6.307   0.800  0.2774 -0.1317  0.5406
16090TIP3    H169685   4.037   6.280   0.878  1.7528  0.2062  1.6205
16090TIP3    H269686   4.019   6.311   0.731 -0.6604 -2.9021  1.1419
16091TIP3   OH269687   1.202   1.272  14.838  0.0204  0.6007  0.4237
16091TIP3    H169688   1.225   1.246  14.927 -0.8699 -1.2991  0.1359
16091TIP3    H269689   1.280   1.251  14.786 -0.1813 -0.1739  0.4306
16092TIP3   OH269690   1.469   2.679   4.532  0.3450  0.4928  0.3218
16092TIP3    H169691   1.393   2.735   4.545 -1.6436 -2.0966  0.6979
16092TIP3    H269692   1.496   2.695   4.442  0.1570  2.3389  0.5624
16093TIP3   OH269693   2.842   5.888   1.900 -0.0187 -0.1114  0.0738
16093TIP3    H169694   2.852   5.835   1.979  1.8253 -0.9631 -0.6942
16093TIP3    H269695   2.839   5.979   1.932  2.6698 -0.2908  1.0503
16094TIP3   OH269696   5.753   6.558   2.071  0.1122 -0.4118 -0.1704
16094TIP3    H169697   5.771   6.635   2.018  1.0103  0.2330  1.0076
16094TIP3    H269698   5.786   6.485   2.020 -0.4572  0.0140 -1.1653
16095TIP3   OH269699   1.673   0.151   3.420 -0.4915  0.1331  0.0165
16095TIP3    H169700   1.748   0.131   3.475 -0.4397 -1.0945 -0.4873
16095TIP3    H269701   1.708   0.157   3.331 -0.9932 -0.6046 -0.2440
16096TIP3   OH269702   0.526   3.062  15.034  0.5285 -0.4131 -0.0374
16096TIP3    H169703   0.450   3.038  14.981 -0.1146  0.5252  0.4253
16096TIP3    H269704   0.596   3.077  14.971 -0.0828  0.1825 -0.5805
16097TIP3   OH269705   2.520   0.633   0.371 -0.1564  0.3960 -0.2443
16097TIP3    H169706   2.516   0.585   0.454 -0.4502  0.3205 -0.3017
16097TIP3    H269707   2.590   0.698   0.384  2.8512 -2.3612 -1.3908
16098TIP3   OH269708   6.429   5.632   5.785 -0.1804 -0.0673  0.3147
16098TIP3    H169709   6.458   5.718   5.816  2.3135 -0.3203 -1.0571
16098TIP3    H269710   6.404   5.647   5.694  0.0990 -0.7450  0.1203
16099TIP3   OH269711   3.738   5.341  14.808  0.0978 -0.1234 -0.7391
16099TIP3    H169712   3.671   5.409  14.817 -0.6884 -0.8389 -0.9879
16099TIP3    H269713   3.733   5.314  14.717 -2.3510 -3.1610  0.1112
16100TIP3   OH269714   2.071   6.313   5.044 -0.2952  0.0228 -0.1592
16100TIP3    H169715   2.151   6.339   5.090 -0.5742  0.2167  0.2264
16100TIP3    H269716   2.083   6.220   5.026 -0.3201 -0.1395  0.6114
16101TIP3   OH269717   2.260   0.570   1.481  0.2604 -0.5867  0.1225
16101TIP3    H169718   2.213   0.604   1.404  0.6540  0.0185  0.1425
16101TIP3    H269719   2.193   0.526   1.533  0.1275 -1.7502 -0.9761
16102TIP3   OH269720   6.110   2.906  11.919  0.2109  0.0765  0.2055
16102TIP3    H169721   6.073   2.948  11.842  1.8092 -2.0429 -1.8420
16102TIP3    H269722   6.081   2.815  11.913  0.8415 -0.2750  1.8260
16103TIP3   OH269723   1.757   6.500  14.179 -0.0500 -0.0336 -0.0562
16103TIP3    H169724   1.815   6.423  14.175 -0.7529 -0.5612 -0.1964
16103TIP3    H269725   1.696   6.480  14.249 -0.8968 -0.0739 -0.7905
16104TIP3   OH269726   0.455   3.838   3.732  0.2625  0.0573  0.1370
16104TIP3    H169727   0.458   3.796   3.818 -0.3591 -1.4754 -0.5417
16104TIP3    H269728   0.445   3.931   3.751 -1.4817 -0.3924  1.7469
16105TIP3   OH269729   2.020   3.807  16.648 -0.0978  0.0891 -0.1256
16105TIP3    H169730   2.048   3.869  16.715  1.2676 -0.8611  0.2316
16105TIP3    H269731   1.999   3.860  16.572  1.0397  0.9872  0.1732
16106TIP3   OH269732   1.840   1.265  11.029  0.1237  0.2117  0.5852
16106TIP3    H169733   1.863   1.196  10.967  0.6810  1.4204 -0.5861
16106TIP3    H269734   1.763   1.230  11.075  1.2171 -1.7780  1.0542
16107TIP3   OH269735   2.741   0.200   3.457  0.1549 -0.7034 -0.1722
16107TIP3    H169736   2.813   0.231   3.401  0.0960 -1.7852 -0.8942
16107TIP3    H269737   2.662   0.218   3.406  0.0896 -1.5456 -0.3934
16108TIP3   OH269738   1.924   1.610   1.103 -0.9939 -0.7463  0.2724
16108TIP3    H169739   2.008   1.593   1.146 -0.0035 -1.1814 -1.7180
16108TIP3    H269740   1.871   1.533   1.123 -0.1591 -1.4565 -0.1632
16109TIP3   OH269741   3.922   5.937   3.100  0.3966 -0.6539  0.1356
16109TIP3    H169742   4.010   5.954   3.067  0.5871 -1.0941  0.4204
16109TIP3    H269743   3.918   5.843   3.113  0.0537 -0.5792  0.6095
16110TIP3   OH269744   0.970   5.588   6.011 -0.3789  0.5855  0.4856
16110TIP3    H169745   1.003   5.647   5.943  0.3711 -2.1222 -1.7081
16110TIP3    H269746   0.953   5.506   5.964 -1.9301 -0.7693  3.2298
16111TIP3   OH269747   5.300   0.180  13.974  0.2974  0.6991  0.2337
16111TIP3    H169748   5.222   0.224  14.007  0.3208  1.7855 -1.0673
16111TIP3    H269749   5.297   0.193  13.879  0.7946 -1.3496 -0.1093
16112TIP3   OH269750   2.216   3.179  15.981 -0.2717  0.7255  0.1197
16112TIP3    H169751   2.143   3.151  16.036 -0.1875  0.8660  0.3054
16112TIP3    H269752   2.220   3.113  15.911  0.9230 -0.6478  1.4153
16113TIP3   OH269753   2.064   2.272  12.229 -0.3579  0.3987 -0.6907
16113TIP3    H169754   2.097   2.331  12.161 -0.2643  0.6147 -0.4580
16113TIP3    H269755   2.138   2.260  12.288 -0.3394 -0.0491 -0.8025
16114TIP3   OH269756   2.223   2.656  12.600 -0.0137 -0.3736  0.4486
16114TIP3    H169757   2.203   2.572  12.560 -0.8015  0.3497 -0.7518
16114TIP3    H269758   2.269   2.705  12.531  0.3329  0.2156  1.0847
16115TIP3   OH269759   4.221   0.724   0.148 -0.7661  0.2627  0.2068
16115TIP3    H169760   4.169   0.733   0.227  0.3639  2.8798  0.7378
16115TIP3    H269761   4.240   0.630   0.142 -3.1695 -0.3815  1.4584
16116TIP3   OH269762   5.300   2.266  14.114 -0.2538 -0.4306 -0.8777
16116TIP3    H169763   5.291   2.322  14.036 -1.7662 -1.8229 -1.7549
16116TIP3    H269764   5.351   2.319  14.175 -1.1188  1.6822 -1.8781
16117TIP3   OH269765   4.511   1.590   5.194  0.1859  0.2312 -0.0914
16117TIP3    H169766   4.506   1.659   5.128  0.5882 -0.9203 -1.3778
16117TIP3    H269767   4.585   1.615   5.249  2.3730 -0.6595 -2.4089
16118TIP3   OH269768   1.024   1.305   3.297 -0.6364 -0.8446  0.1197
16118TIP3    H169769   1.103   1.344   3.335 -1.9734  0.8980  1.2891
16118TIP3    H269770   1.025   1.214   3.327  2.0954 -1.5939 -1.8848
16119TIP3   OH269771   0.075   4.281  16.291  0.7499  0.1032  0.0751
16119TIP3    H169772   0.073   4.290  16.386  0.0055  0.0089  0.0729
16119TIP3    H269773   0.124   4.201  16.275 -0.3361 -0.6481  0.4392
16120TIP3   OH269774   2.275   5.078  13.681 -0.8552  0.4617 -0.5327
16120TIP3    H169775   2.180   5.060  13.679 -0.7732  0.0557 -1.2133
16120TIP3    H269776   2.297   5.099  13.590 -0.0920 -0.6046 -0.6169
16121TIP3   OH269777   3.451   0.181   1.755 -0.2982 -0.9532  0.8293
16121TIP3    H169778   3.455   0.127   1.676  1.3951 -0.7329  0.7224
16121TIP3    H269779   3.490   0.125   1.823  1.6798  0.1233  0.6770
16122TIP3   OH269780   3.767   1.518   0.649 -0.0300 -0.3693 -0.6869
16122TIP3    H169781   3.743   1.603   0.612 -0.2164 -0.3460 -0.5165
16122TIP3    H269782   3.854   1.531   0.686 -1.2359  0.6192  2.0605
16123TIP3   OH269783   5.199   5.700  11.327  0.0202 -0.1362  0.4554
16123TIP3    H169784   5.275   5.755  11.343  0.3596 -0.3059 -0.4947
16123TIP3    H269785   5.155   5.741  11.252 -0.8045 -0.0706  0.9571
16124TIP3   OH269786   0.149   1.419   5.426 -0.2950  0.1537 -0.1238
16124TIP3    H169787   0.075   1.434   5.485 -0.3102  2.1030 -0.5918
16124TIP3    H269788   0.202   1.498   5.433  1.1193 -0.6966 -0.7390
16125TIP3   OH269789   0.030   0.719  13.754  0.0833  0.6927 -0.0020
16125TIP3    H169790  -0.023   0.640  13.764 -0.4761  1.0540 -0.0634
16125TIP3    H269791   0.074   0.730  13.839  1.8983 -0.8924 -0.6660
16126TIP3   OH269792   2.601   6.435   3.184  0.4096  0.1526 -0.6019
16126TIP3    H169793   2.680   6.460   3.231  0.6847  1.4882 -1.7393
16126TIP3    H269794   2.529   6.467   3.239  0.6547 -0.4569  0.0917
16127TIP3   OH269795   0.149   5.250  13.302  0.2935 -0.1131 -0.1284
16127TIP3    H169796   0.223   5.293  13.344  0.6582 -0.4131 -0.4476
16127TIP3    H269797   0.078   5.253  13.367  0.2661  1.0783 -0.2026
16128TIP3   OH269798   5.175   0.395  15.891 -0.3551  0.0157 -0.4441
16128TIP3    H169799   5.127   0.348  15.823 -0.9545 -0.1314  0.0754
16128TIP3    H269800   5.198   0.327  15.955 -1.8931  0.5075  0.7023
16129TIP3   OH269801   6.092   2.258   4.265  0.1457 -0.2317  0.2074
16129TIP3    H169802   6.146   2.215   4.199  0.3136  0.0443  0.1629
16129TIP3    H269803   6.154   2.300   4.324 -0.0042 -0.4657  0.5370
16130TIP3   OH269804   1.090   0.174  11.858 -0.0177  0.1461 -0.1472
16130TIP3    H169805   1.140   0.160  11.938 -0.4552 -0.0634  0.0935
16130TIP3    H269806   1.083   0.086  11.818 -1.3623 -0.0732  0.5259
16131TIP3   OH269807   2.721   5.050  15.679 -0.2260 -0.3538  0.5795
16131TIP3    H169808   2.694   5.074  15.590 -2.2212 -0.1207  1.2036
16131TIP3    H269809   2.679   5.115  15.735 -0.1937 -1.3539  1.8036
16132TIP3   OH269810   4.521   5.530  12.415 -0.2421 -0.0011 -0.7170
16132TIP3    H169811   4.519   5.505  12.508  1.8633 -0.1810 -0.6834
16132TIP3    H269812   4.488   5.620  12.414 -1.4593 -0.4174  0.0310
16133TIP3   OH269813   6.185   0.758  16.955  0.1727  0.1776  0.2519
16133TIP3    H169814   6.093   0.760  16.981 -0.7140 -0.1721 -2.5254
16133TIP3    H269815   6.199   0.670  16.920  1.4990  0.3105  0.3829
16134TIP3   OH269816   4.832   6.422  14.311  0.2832 -0.2187  0.1164
16134TIP3    H169817   4.857   6.498  14.258 -1.5186  0.9371  0.8110
16134TIP3    H269818   4.883   6.432  14.391 -0.1755  0.4866  0.3377
16135TIP3   OH269819   3.915   1.055  14.341 -0.2763  0.0434  0.2418
16135TIP3    H169820   3.831   1.018  14.315 -0.4451 -1.5115  2.5870
16135TIP3    H269821   3.974   1.036  14.268 -1.7810  0.6063 -1.1723
16136TIP3   OH269822   0.353   6.772  11.823 -0.1739 -0.2354  0.5472
16136TIP3    H169823   0.305   6.854  11.818  0.2931  0.1982  2.3530
16136TIP3    H269824   0.396   6.774  11.909  2.1671 -1.0953 -0.5168
16137TIP3   OH269825   4.080   4.045   4.864 -0.1123  0.0796  0.5135
16137TIP3    H169826   4.117   4.117   4.812 -0.7897  0.7271  0.9117
16137TIP3    H269827   3.995   4.028   4.825  0.1646 -0.7213  0.2398
16138TIP3   OH269828   2.152   5.288  13.317  0.4563  0.2005  0.8526
16138TIP3    H169829   2.231   5.240  13.342  1.6110 -0.1610 -2.8527
16138TIP3    H269830   2.080   5.229  13.339  1.5314 -1.3007  0.5233
16139TIP3   OH269831   2.559   5.300  13.752  0.0170 -0.2945  0.7111
16139TIP3    H169832   2.554   5.395  13.762  1.3593 -0.0327 -0.6654
16139TIP3    H269833   2.644   5.285  13.709  2.0151 -2.4869  4.7952
16140TIP3   OH269834   0.089   2.444   2.301  0.0748 -0.0219 -0.3035
16140TIP3    H169835   0.107   2.527   2.257  0.4815  0.0212 -0.0633
16140TIP3    H269836  -0.005   2.432   2.294 -0.0030  0.5353 -0.2074
16141TIP3   OH269837   5.759   4.201   4.917 -0.1249 -0.1566 -0.1054
16141TIP3    H169838   5.694   4.133   4.899 -1.0851  0.5420  0.5613
16141TIP3    H269839   5.727   4.278   4.869 -0.1728  0.3797  0.7508
16142TIP3   OH269840   4.261   0.701  10.888 -0.0912 -0.6566 -0.2243
16142TIP3    H169841   4.255   0.668  10.977  0.5392 -0.0945  0.0413
16142TIP3    H269842   4.171   0.701  10.856 -0.1408 -2.3892 -0.1723
16143TIP3   OH269843   2.697   1.442   4.433  0.2870 -0.1521 -0.4444
16143TIP3    H169844   2.675   1.528   4.396  1.3798 -1.0073 -3.4449
16143TIP3    H269845   2.778   1.457   4.482 -0.8316  0.9132  1.1739
16144TIP3   OH269846   2.036   5.088  14.140  0.2012 -0.6812  0.8344
16144TIP3    H169847   2.011   5.008  14.094 -0.0740  0.1929 -0.6068
16144TIP3    H269848   2.110   5.123  14.089 -0.6098  0.7140  0.5602
16145TIP3   OH269849   0.136   4.017   5.624 -0.1691 -0.1252  1.0053
16145TIP3    H169850   0.091   3.933   5.637  1.1320 -1.1063 -0.4544
16145TIP3    H269851   0.117   4.039   5.533  0.0905  0.8187  1.1746
16146TIP3   OH269852   2.666   5.739  12.155 -0.1706  0.0860 -0.1345
16146TIP3    H169853   2.681   5.645  12.156  1.5844  0.3328  0.1885
16146TIP3    H269854   2.667   5.763  12.062 -1.5848 -0.3211 -0.2771
16147TIP3   OH269855   3.676   5.606   0.888 -0.1467  0.6482  0.1836
16147TIP3    H169856   3.712   5.645   0.809 -0.0533  1.5305  0.6429
16147TIP3    H269857   3.664   5.680   0.948  0.7958 -0.1214  1.3861
16148TIP3   OH269858   2.963   5.979  11.442 -0.3828 -0.0786  0.8247
16148TIP3    H169859   2.962   6.048  11.508 -2.9399  1.1205 -0.3408
16148TIP3    H269860   2.964   6.025  11.358 -3.1046 -1.3082  0.0027
16149TIP3   OH269861   0.574   6.104  14.624  0.2555  0.1843  0.2773
16149TIP3    H169862   0.659   6.065  14.647  2.2045  3.0384 -1.4281
16149TIP3    H269863   0.557   6.167  14.694  0.1264  0.4281  0.0268
16150TIP3   OH269864   5.097   5.661   3.856  0.0936 -0.8944  0.3035
16150TIP3    H169865   5.164   5.592   3.854 -0.4846 -1.6007  2.4621
16150TIP3    H269866   5.043   5.640   3.932 -1.4144  0.7709 -0.2299
16151TIP3   OH269867   2.390   6.289  13.061 -0.0009  0.1081 -0.2640
16151TIP3    H169868   2.323   6.288  13.130  1.2477 -1.6914  1.0147
16151TIP3    H269869   2.452   6.357  13.088  1.2651 -1.5661  1.2745
16152TIP3   OH269870   4.413   1.582  14.716 -0.1152 -0.5175  0.3736
16152TIP3    H169871   4.416   1.593  14.621 -0.0903 -0.8327  0.3356
16152TIP3    H269872   4.429   1.488  14.729  0.4709 -0.3726  0.7199
16153TIP3   OH269873   1.850   2.925  14.713  0.2884 -0.1187 -0.4036
16153TIP3    H169874   1.851   2.884  14.800  0.9064  0.3652 -0.1673
16153TIP3    H269875   1.827   2.855  14.653  0.3958 -0.5858  0.0928
16154TIP3   OH269876   4.780   6.439   2.308 -0.5987 -0.4695  0.0533
16154TIP3    H169877   4.842   6.509   2.287 -1.3240  0.1163 -0.1858
16154TIP3    H269878   4.779   6.436   2.404  1.7009 -2.2302  0.1203
16155TIP3   OH269879   3.679   5.767   5.790 -0.0063 -0.0070 -0.3006
16155TIP3    H169880   3.715   5.725   5.713  0.5511 -0.4926  0.2216
16155TIP3    H269881   3.585   5.774   5.772  0.5538  3.7452 -2.8799
16156TIP3   OH269882   3.565   1.110   0.960  0.3375  0.5332  0.2553
16156TIP3    H169883   3.599   1.037   0.908 -1.2195  0.5583 -0.8829
16156TIP3    H269884   3.570   1.185   0.902 -3.4834  0.1540 -0.8612
16157TIP3   OH269885   3.992   0.386  13.944 -0.2342 -0.0645  0.2617
16157TIP3    H169886   3.959   0.321  13.882  0.5893 -1.5959  1.3783
16157TIP3    H269887   4.023   0.458  13.889  0.1222 -1.2180 -1.0830
16158TIP3   OH269888   5.865   3.284  12.553  0.1225  0.2791 -0.0900
16158TIP3    H169889   5.860   3.307  12.460 -2.6198 -0.4068 -0.1881
16158TIP3    H269890   5.864   3.188  12.553  0.6457  0.2684  0.6389
16159TIP3   OH269891   3.736   3.853   3.476 -0.4370 -0.1171 -0.6701
16159TIP3    H169892   3.784   3.791   3.421 -0.4955  0.4491 -1.3725
16159TIP3    H269893   3.741   3.936   3.428 -0.1888  0.4704  0.3555
16160TIP3   OH269894   2.238   0.204  11.271  0.0895  0.0683 -0.6721
16160TIP3    H169895   2.257   0.114  11.301  0.9423  0.8461  1.3641
16160TIP3    H269896   2.301   0.258  11.320  0.9267  1.6252 -3.3052
16161TIP3   OH269897   1.435   5.909  16.788 -0.6050 -0.2005 -0.0949
16161TIP3    H169898   1.527   5.890  16.766 -0.4257  1.9565 -1.5052
16161TIP3    H269899   1.386   5.882  16.711 -1.2601 -1.6446  0.7781
16162TIP3   OH269900   4.392   1.484  13.138  0.5341 -0.4215  0.1569
16162TIP3    H169901   4.317   1.424  13.131  0.2752 -0.0027 -0.9333
16162TIP3    H269902   4.469   1.428  13.136  0.2963 -0.7192 -0.9907
16163TIP3   OH269903   0.297   5.540  17.060  0.1157  0.4654  0.2453
16163TIP3    H169904   0.312   5.498  17.144  0.9251  0.9933  0.3711
16163TIP3    H269905   0.213   5.586  17.071 -0.4740 -0.5904  0.2987
16164TIP3   OH269906   5.896   2.865  10.653 -0.2799 -0.2836  0.4411
16164TIP3    H169907   5.916   2.958  10.664  0.9022 -0.6377  1.6506
16164TIP3    H269908   5.804   2.862  10.630 -0.1835  1.2157 -0.2669
16165TIP3   OH269909   1.129   1.201   5.183 -0.1742 -0.4120 -0.3720
16165TIP3    H169910   1.222   1.183   5.193 -0.6486 -2.3536  1.3660
16165TIP3    H269911   1.089   1.114   5.176 -2.0667  0.2395  1.3488
16166TIP3   OH269912   2.975   6.763  16.050 -0.3070  0.3253  0.4367
16166TIP3    H169913   3.024   6.743  16.130  0.8031  3.6480  0.7356
16166TIP3    H269914   2.912   6.831  16.077 -1.0814  0.2864 -1.1593
16167TIP3   OH269915   0.396   4.532  14.064  0.7784 -0.3519 -0.3197
16167TIP3    H169916   0.476   4.578  14.039  0.5956 -1.1305 -2.6680
16167TIP3    H269917   0.402   4.522  14.159  3.0373  0.3781 -0.3226
16168TIP3   OH269918   0.127   4.192   2.387  0.3470  0.1915 -0.6534
16168TIP3    H169919   0.125   4.279   2.429  1.0096  0.8593 -1.9422
16168TIP3    H269920   0.111   4.131   2.459  0.3204  1.3490  0.3703
16169TIP3   OH269921   6.650   6.503  11.790 -0.1012 -0.2273 -0.0072
16169TIP3    H169922   6.709   6.579  11.785 -2.5419  1.7754 -0.2443
16169TIP3    H269923   6.678   6.457  11.869  1.8144  0.5634 -0.1596
16170TIP3   OH269924   5.867   1.742  11.475 -0.2554  0.2062  0.0632
16170TIP3    H169925   5.771   1.738  11.470 -0.2545  0.9709 -0.8257
16170TIP3    H269926   5.895   1.653  11.453 -0.7110  0.5083 -1.8928
16171TIP3   OH269927   0.774   3.941  11.934 -0.0994 -0.4325  0.1340
16171TIP3    H169928   0.844   3.916  11.995 -0.3894 -0.1313  0.5951
16171TIP3    H269929   0.701   3.884  11.957 -0.2719 -0.1883  0.2024
16172TIP3   OH269930   2.158   5.378  15.891  0.0991  0.0326  0.7561
16172TIP3    H169931   2.247   5.344  15.887 -0.4849 -1.4847 -0.1937
16172TIP3    H269932   2.168   5.473  15.885  1.6744 -0.0674  1.4307
16173TIP3   OH269933   6.790   4.373  13.806  0.0477 -0.3010  0.0904
16173TIP3    H169934   6.819   4.463  13.817  0.3038 -0.4826  1.0736
16173TIP3    H269935   6.844   4.323  13.868  0.4887 -1.2470 -1.0171
16174TIP3   OH269936   5.517   2.661  14.510 -0.1952 -0.0702 -0.1980
16174TIP3    H169937   5.478   2.685  14.425  1.7751  1.1577 -0.8228
16174TIP3    H269938   5.479   2.724  14.572 -1.3056 -0.6849 -0.2361
16175TIP3   OH269939   2.399   1.710  13.963  0.2761 -0.5275  0.4626
16175TIP3    H169940   2.309   1.679  13.955  0.5551 -1.0383 -0.9782
16175TIP3    H269941   2.390   1.805  13.974 -0.4657 -0.6952  1.4252
16176TIP3   OH269942   2.075   0.399   6.073 -0.2569 -0.2624 -0.2431
16176TIP3    H169943   2.076   0.384   6.167 -0.2444  2.1011  0.1927
16176TIP3    H269944   2.080   0.494   6.064  0.7165 -0.4730 -2.6578
16177TIP3   OH269945   3.943   1.997  14.722  0.0506 -0.6802  0.6233
16177TIP3    H169946   3.886   1.931  14.762 -0.3383 -0.4816  0.3938
16177TIP3    H269947   3.928   1.988  14.628 -1.2032  0.7990  0.6403
16178TIP3   OH269948   0.910   2.976  14.048 -0.0968  0.0841 -0.6441
16178TIP3    H169949   0.866   3.025  14.117 -1.1842  1.0118 -1.9377
16178TIP3    H269950   0.906   2.885  14.077 -1.1268  0.3736  0.2083
16179TIP3   OH269951   1.714   5.501   1.621  0.6109  0.1227 -0.4205
16179TIP3    H169952   1.696   5.525   1.711 -1.2019  0.8490 -0.9234
16179TIP3    H269953   1.755   5.414   1.626 -0.3500 -0.2703  1.0531
16180TIP3   OH269954   3.342   6.472   4.254  0.3449  0.4019 -0.1097
16180TIP3    H169955   3.296   6.545   4.212 -0.0657 -1.0026 -2.2631
16180TIP3    H269956   3.278   6.401   4.257  0.1056  0.5627  3.7107
16181TIP3   OH269957   6.713   4.257  16.086 -0.5206  0.5723  0.2443
16181TIP3    H169958   6.673   4.179  16.126 -1.2054  1.3481  1.1012
16181TIP3    H269959   6.790   4.274  16.141 -0.6179  0.7604  0.3208
16182TIP3   OH269960   0.785   1.468  16.000  0.9467  0.3263 -0.3629
16182TIP3    H169961   0.839   1.542  16.027 -0.6485  1.3083  0.2608
16182TIP3    H269962   0.697   1.492  16.026 -0.1876 -0.2647 -3.3024
16183TIP3   OH269963   4.035   4.056   3.455 -0.2706  0.7984 -0.3648
16183TIP3    H169964   4.076   4.081   3.538  1.2326  0.0233 -0.8495
16183TIP3    H269965   3.999   4.139   3.421  0.2293  1.3600  0.4340
16184TIP3   OH269966   5.193   2.702  14.652  0.4370  0.6011 -0.4328
16184TIP3    H169967   5.114   2.730  14.698 -0.3053 -0.4386 -1.0148
16184TIP3    H269968   5.194   2.753  14.571 -0.1582 -0.0380 -0.8540
16185TIP3   OH269969   4.118   3.880  12.743 -0.3541 -0.2886  0.8970
16185TIP3    H169970   4.198   3.863  12.694 -0.3802 -1.0651  1.1170
16185TIP3    H269971   4.092   3.968  12.716  1.6912  0.8660  2.3203
16186TIP3   OH269972   4.294   3.687   2.496  0.4236 -0.3716  0.7843
16186TIP3    H169973   4.310   3.638   2.576  3.2834 -1.4232 -0.2707
16186TIP3    H269974   4.235   3.631   2.445  0.7869 -1.0245  1.0598
16187TIP3   OH269975   0.635   6.435   4.036  0.3311 -0.2743  0.2470
16187TIP3    H169976   0.646   6.519   3.990 -1.8121  0.5199  1.0487
16187TIP3    H269977   0.660   6.453   4.126  3.1332 -1.4603 -0.1844
16188TIP3   OH269978   0.804   4.339  12.156 -0.1774 -0.4400  1.0037
16188TIP3    H169979   0.756   4.319  12.075 -0.2805 -1.5774  1.3285
16188TIP3    H269980   0.896   4.347  12.128 -0.3282  0.0568  0.6421
16189TIP3   OH269981   6.814   4.457  14.217  0.2514  0.0279  0.3213
16189TIP3    H169982   6.895   4.415  14.245 -0.3326 -0.7909  0.7981
16189TIP3    H269983   6.772   4.392  14.161  0.1529  0.6466 -0.3441
16190TIP3   OH269984   6.440   6.441  16.470  0.2812 -0.0768  0.3581
16190TIP3    H169985   6.457   6.378  16.540 -0.4978 -1.1239 -0.3609
16190TIP3    H269986   6.398   6.515  16.515 -0.3947 -0.8185  0.9851
16191TIP3   OH269987   2.019   3.279   2.702 -0.3438 -0.0271 -0.2093
16191TIP3    H169988   2.035   3.299   2.795  0.8615 -3.4958  0.4647
16191TIP3    H269989   2.106   3.281   2.662 -0.8065  0.9993 -1.1969
16192TIP3   OH269990   6.285   1.667  16.672  0.0735 -0.2117  0.4119
16192TIP3    H169991   6.334   1.736  16.717  0.9109 -0.8128  0.4325
16192TIP3    H269992   6.347   1.595  16.662 -0.3679 -0.4427 -0.8907
16193TIP3   OH269993   2.990   6.036   5.494 -0.5012 -0.3161 -0.0689
16193TIP3    H169994   3.046   5.983   5.550 -2.2920  0.0985  2.2741
16193TIP3    H269995   2.914   5.981   5.476 -0.8630  0.2868 -0.4430
16194TIP3   OH269996   2.211   2.119  14.882  0.0102 -1.0401 -0.5586
16194TIP3    H169997   2.295   2.145  14.844  0.8020 -0.9046  1.1623
16194TIP3    H269998   2.232   2.045  14.939 -0.8459 -0.4719  0.5604
16195TIP3   OH269999   5.812   3.192  13.121 -1.1281 -0.0475 -0.3913
16195TIP3    H170000   5.740   3.246  13.088  0.1050  0.7763 -1.9044
16195TIP3    H270001   5.849   3.151  13.042 -0.5431 -1.2155  0.4656
16196TIP3   OH270002   4.302   2.004   2.621 -0.1515  0.1657  0.2436
16196TIP3    H170003   4.235   1.951   2.578  0.0121  0.5475 -0.4961
16196TIP3    H270004   4.373   2.009   2.557  0.2321  0.4729  0.6897
16197TIP3   OH270005   6.816   3.350  15.103 -0.3430 -0.6621  0.3576
16197TIP3    H170006   6.819   3.386  15.014 -2.5570  0.0630  0.5040
16197TIP3    H270007   6.895   3.382  15.145  0.6723 -0.9005 -1.3016
16198TIP3   OH270008   4.971   5.619   0.806 -0.2142 -0.3928 -0.5910
16198TIP3    H170009   4.990   5.692   0.865 -0.6271 -1.4779  0.9458
16198TIP3    H270010   4.997   5.651   0.719 -0.7741  1.7074 -0.0341
16199TIP3   OH270011   2.136   4.865   1.898  0.0081  0.3721  0.2314
16199TIP3    H170012   2.230   4.881   1.892  0.4362 -1.9552  0.0518
16199TIP3    H270013   2.103   4.885   1.810  0.9284 -1.9147 -0.7163
16200TIP3   OH270014   1.413   2.899   2.960  0.2341  0.2384  0.0639
16200TIP3    H170015   1.370   2.971   2.914  0.1874 -0.5376 -1.1572
16200TIP3    H270016   1.501   2.894   2.921 -0.3014 -1.3772 -1.0681
16201TIP3   OH270017   4.988   5.564   4.857 -0.4126 -0.4624 -0.2373
16201TIP3    H170018   5.000   5.472   4.833  0.7446 -0.3979  0.0156
16201TIP3    H270019   4.894   5.572   4.875 -0.5890 -1.5040 -0.6068
16202TIP3   OH270020   2.246   4.809  15.617  0.2908 -0.1353  0.0067
16202TIP3    H170021   2.151   4.809  15.603  0.1987 -0.2605  0.6120
16202TIP3    H270022   2.261   4.738  15.680  0.6009  0.8859  1.1189
16203TIP3   OH270023   5.026   4.842  13.468  0.3153  0.0213  0.5385
16203TIP3    H170024   5.105   4.841  13.414  0.6408  2.6819  0.7930
16203TIP3    H270025   4.954   4.858  13.406 -0.0883 -2.4043  0.3061
16204TIP3   OH270026   2.686   4.890  13.205  0.2568 -0.3381  0.1350
16204TIP3    H170027   2.693   4.817  13.267  0.2155 -0.8398 -0.4358
16204TIP3    H270028   2.758   4.876  13.143  0.6552  0.4870  0.4054
16205TIP3   OH270029   4.665   5.018  13.951  0.3173  0.1707 -0.7684
16205TIP3    H170030   4.720   4.944  13.926 -1.0053 -0.6578 -1.2729
16205TIP3    H270031   4.605   4.983  14.016  0.4739  1.1174 -0.0873
16206TIP3   OH270032   1.245   0.847  15.909  0.2661 -0.1391  0.3124
16206TIP3    H170033   1.242   0.756  15.880  0.3742 -0.9609  2.6694
16206TIP3    H270034   1.320   0.885  15.863 -0.2306 -1.0029 -1.2710
16207TIP3   OH270035   0.962   3.283  12.688  0.0967  0.8296 -0.5570
16207TIP3    H170036   0.953   3.191  12.711  1.1311  1.1153  1.1887
16207TIP3    H270037   1.007   3.283  12.604 -1.3284 -0.2398 -1.3700
16208TIP3   OH270038   2.945   5.823   0.112 -0.2666 -0.2784  0.2563
16208TIP3    H170039   3.013   5.888   0.098  1.3274 -1.8014  0.5059
16208TIP3    H270040   2.921   5.832   0.204 -0.3702  0.2195  0.1834
16209TIP3   OH270041   2.438   6.344  12.264 -0.1686  0.1752 -0.0439
16209TIP3    H170042   2.530   6.343  12.236 -0.1886  0.1233 -0.1073
16209TIP3    H270043   2.433   6.418  12.325 -0.1564  0.3727 -0.2809
16210TIP3   OH270044   1.687   5.583   1.878 -0.2680  0.5102  0.4963
16210TIP3    H170045   1.601   5.542   1.875  1.1426 -2.6335 -0.5383
16210TIP3    H270046   1.722   5.563   1.965  0.5647 -0.9436 -0.1332
16211TIP3   OH270047   5.525   3.386   3.526 -0.0154 -0.3264 -0.0748
16211TIP3    H170048   5.552   3.478   3.520  1.1362 -0.6867 -0.7898
16211TIP3    H270049   5.479   3.370   3.444  0.7896 -0.6841 -0.4663
16212TIP3   OH270050   4.937   0.535   3.684  0.5379 -0.1268  0.0676
16212TIP3    H170051   4.998   0.547   3.756 -2.5128  0.5787  2.7419
16212TIP3    H270052   4.984   0.480   3.622  3.7234  0.1254  2.0411
16213TIP3   OH270053   4.286   4.364   5.115 -0.3907  0.0203  0.0239
16213TIP3    H170054   4.259   4.442   5.164 -1.2852  0.8349 -1.6615
16213TIP3    H270055   4.317   4.399   5.031  0.2732 -1.3830 -0.3466
16214TIP3   OH270056   6.400   1.898   2.698  0.1208 -0.7478  0.0129
16214TIP3    H170057   6.316   1.857   2.678 -0.0656  0.3956 -1.7668
16214TIP3    H270058   6.380   1.964   2.764 -0.8742  1.0162 -1.9248
16215TIP3   OH270059   1.826   4.837   4.069 -0.4950  0.1671 -0.1620
16215TIP3    H170060   1.862   4.885   4.143 -0.2787 -1.1643  0.6222
16215TIP3    H270061   1.793   4.905   4.010 -0.8387  1.2550  1.2301
16216TIP3   OH270062   2.351   2.766   2.114 -0.2782  0.6331 -0.0993
16216TIP3    H170063   2.342   2.860   2.131  1.0332  0.4342  1.9520
16216TIP3    H270064   2.300   2.725   2.184 -0.3425 -0.2120 -0.6351
16217TIP3   OH270065   1.225   2.711   1.207 -0.2877  0.3372 -0.0968
16217TIP3    H170066   1.247   2.754   1.124  3.5244  0.0998  0.6078
16217TIP3    H270067   1.279   2.633   1.209 -1.7611 -0.7217  1.8135
16218TIP3   OH270068   2.072   6.393  14.727 -0.5829  0.5762  0.1636
16218TIP3    H170069   2.000   6.436  14.772 -1.4450  0.0034 -0.6363
16218TIP3    H270070   2.031   6.320  14.680  1.0462 -2.6209  3.2014
16219TIP3   OH270071   5.241   5.755  17.064  0.0509 -0.6104  0.4150
16219TIP3    H170072   5.150   5.779  17.080  0.2772 -0.5514  1.7352
16219TIP3    H270073   5.273   5.820  17.001 -0.6551 -0.2996  0.3715
16220TIP3   OH270074   2.776   4.183   5.745  0.3071 -0.1019 -0.3442
16220TIP3    H170075   2.787   4.210   5.836  0.8818 -1.1533 -0.0934
16220TIP3    H270076   2.865   4.180   5.710  0.1035  0.1140 -0.8909
16221TIP3   OH270077   4.224   5.041  16.417  0.0123  0.4344 -0.0335
16221TIP3    H170078   4.262   5.105  16.356 -0.7901  0.8827 -0.0833
16221TIP3    H270079   4.232   5.083  16.503 -0.6513  0.6820 -0.0852
16222TIP3   OH270080   0.025   4.976  11.788 -0.2715 -0.6330  0.5778
16222TIP3    H170081   0.037   4.891  11.831 -0.2728 -0.6240  0.5961
16222TIP3    H270082   0.115   5.006  11.770 -0.2030  0.1648  2.1199
16223TIP3   OH270083   5.521   1.615  12.393  0.5833 -0.0464 -0.3667
16223TIP3    H170084   5.497   1.648  12.307  0.8110  1.4866  0.1315
16223TIP3    H270085   5.614   1.595  12.387  0.5768 -0.0339 -0.4992
16224TIP3   OH270086   0.546   3.803  11.192 -0.9373 -0.0697 -0.2241
16224TIP3    H170087   0.544   3.823  11.099 -1.3679 -1.0922 -0.4489
16224TIP3    H270088   0.471   3.745  11.206 -0.2798 -0.7628  0.5522
16225TIP3   OH270089   5.085   6.245  16.669 -0.0065  0.1733  0.4563
16225TIP3    H170090   5.018   6.294  16.716 -0.0184  0.6030 -0.0058
16225TIP3    H270091   5.114   6.179  16.732  0.3288  1.0451  1.2479
16226TIP3   OH270092   3.723   5.980   1.679 -0.0483  0.2605 -0.6574
16226TIP3    H170093   3.652   5.920   1.700  0.0059  0.8112  1.2578
16226TIP3    H270094   3.679   6.061   1.652 -0.2759  1.1201  1.9845
16227TIP3   OH270095   6.443   2.825  11.733 -0.1298  0.1343  0.0304
16227TIP3    H170096   6.458   2.731  11.728  0.6810  0.2526  0.1415
16227TIP3    H270097   6.348   2.834  11.736 -0.5565 -0.4975 -4.4846
16228TIP3   OH270098   1.754   6.572   2.559 -0.2221 -0.1657 -0.1915
16228TIP3    H170099   1.704   6.493   2.538  0.4250 -0.2726 -1.4462
16228TIP3    H270100   1.755   6.621   2.477  0.6586  0.4296  0.1698
16229TIP3   OH270101   1.067   4.133   3.939  0.2606  0.4041 -0.2775
16229TIP3    H170102   1.108   4.070   3.999  1.0574  2.2787  1.2451
16229TIP3    H270103   1.112   4.118   3.855 -0.2379 -1.6480 -0.2368
16230TIP3   OH270104   4.113   2.974  10.947  0.4638  0.6022  0.3078
16230TIP3    H170105   4.205   2.995  10.932  0.2022  1.4378 -0.1881
16230TIP3    H270106   4.071   2.987  10.862  0.0191 -0.5295  0.3462
16231TIP3   OH270107   3.769   1.149   3.613 -0.2066 -0.3532 -0.0643
16231TIP3    H170108   3.685   1.108   3.630 -1.2802  1.6759 -0.1083
16231TIP3    H270109   3.776   1.218   3.679 -0.3781  1.9244 -2.2473
16232TIP3   OH270110   3.532   1.450   2.226  0.1396  0.3774 -0.1754
16232TIP3    H170111   3.471   1.390   2.269  0.4775 -0.9601 -1.4591
16232TIP3    H270112   3.556   1.513   2.294 -2.4536  0.8273  0.4265
16233TIP3   OH270113   1.623   1.367  14.362 -0.2785  0.0817  0.8060
16233TIP3    H170114   1.565   1.313  14.309 -0.5186  0.2075  0.9370
16233TIP3    H270115   1.641   1.443  14.307  1.4904 -0.9278 -0.0985
16234TIP3   OH270116   3.652   3.612   4.518  0.1231  0.5510  0.6631
16234TIP3    H170117   3.585   3.602   4.585 -0.1403 -1.0228  0.2058
16234TIP3    H270118   3.618   3.563   4.443  0.9970  1.1950 -0.1856
16235TIP3   OH270119   5.644   0.952   1.626  0.0185 -0.2479  0.1543
16235TIP3    H170120   5.580   1.010   1.584 -0.4109  0.1906  1.3841
16235TIP3    H270121   5.697   0.919   1.553 -1.7959 -0.8844 -0.9441
16236TIP3   OH270122   6.591   6.346   5.541  0.3722 -0.0367  0.1746
16236TIP3    H170123   6.521   6.288   5.571 -1.2446  0.6110 -2.0783
16236TIP3    H270124   6.634   6.375   5.622 -1.0879 -1.5002  1.5663
16237TIP3   OH270125   6.813   5.942   1.974  0.4813  0.0602 -0.1331
16237TIP3    H170126   6.820   5.920   1.881 -0.1819 -1.6757  0.1889
16237TIP3    H270127   6.881   6.008   1.988 -0.7836  1.9286 -2.2663
16238TIP3   OH270128   6.142   5.717   3.653 -0.5459 -0.3458  0.3169
16238TIP3    H170129   6.213   5.689   3.710  1.1483  0.4781 -1.3093
16238TIP3    H270130   6.177   5.711   3.564 -1.8104  1.8868 -0.4297
16239TIP3   OH270131   0.619   0.883  14.754  0.1585  0.1206 -0.0528
16239TIP3    H170132   0.545   0.923  14.800 -1.2798 -2.4524  0.1232
16239TIP3    H270133   0.618   0.922  14.667 -1.3150  0.3122  0.0199
16240TIP3   OH270134   6.792   3.962  15.580  0.2723  0.1032 -0.1112
16240TIP3    H170135   6.799   4.047  15.624 -0.4872 -0.4404  1.1194
16240TIP3    H270136   6.757   3.982  15.493  0.5300  1.0825  0.0032
16241TIP3   OH270137   5.959   1.313  12.000 -0.2695 -0.8856  0.5215
16241TIP3    H170138   6.020   1.365  11.947 -2.3853  0.8773 -0.3624
16241TIP3    H270139   5.914   1.258  11.937 -1.1177 -0.5488  0.8225
16242TIP3   OH270140   3.708   6.702   5.352  0.3613 -0.2510 -0.9211
16242TIP3    H170141   3.734   6.612   5.329  1.1250 -0.0313 -0.9537
16242TIP3    H270142   3.616   6.708   5.326  0.7088 -0.5688 -2.3062
16243TIP3   OH270143   3.475   5.232   1.663 -0.2288 -0.2747  0.1247
16243TIP3    H170144   3.433   5.146   1.661  1.2897 -1.0441 -0.1966
16243TIP3    H270145   3.426   5.281   1.730 -1.0051 -1.4343  0.4438
16244TIP3   OH270146   5.973   3.886   1.648 -0.5325  0.0390  0.3628
16244TIP3    H170147   5.957   3.935   1.567  0.6274 -0.0255  0.0755
16244TIP3    H270148   5.896   3.830   1.657 -0.3033 -0.5782 -1.1770
16245TIP3   OH270149   3.267   4.600  11.234  0.4431 -0.0781 -0.1470
16245TIP3    H170150   3.345   4.571  11.187  0.5988  1.1383 -0.6921
16245TIP3    H270151   3.200   4.608  11.166 -0.4903 -2.0953  0.4665
16246TIP3   OH270152   2.585   0.649   1.802  0.0229 -0.3290  0.4666
16246TIP3    H170153   2.629   0.632   1.719 -0.5450 -1.4914  0.3848
16246TIP3    H270154   2.559   0.563   1.833 -1.5322  0.2556  0.8766
16247TIP3   OH270155   2.735   2.667  13.241  0.3757 -0.3738 -0.1342
16247TIP3    H170156   2.745   2.682  13.335 -0.6554 -1.8586  0.2437
16247TIP3    H270157   2.693   2.746  13.208 -0.0752 -0.2079  0.8166
16248TIP3   OH270158   5.110   6.800  14.904  0.1552 -0.3238 -0.1431
16248TIP3    H170159   5.141   6.805  14.994 -1.3170  1.8929  0.3346
16248TIP3    H270160   5.026   6.753  14.910 -0.4263  0.6767 -0.1652
16249TIP3   OH270161   4.508   5.761   4.777 -0.1640 -0.7914  0.1445
16249TIP3    H170162   4.564   5.688   4.804  0.2471 -0.5475 -0.0331
16249TIP3    H270163   4.553   5.798   4.701 -0.6939 -0.7369 -0.1469
16250TIP3   OH270164   3.317   0.116  14.026 -0.0725 -0.4382  0.3668
16250TIP3    H170165   3.298   0.054  14.097 -0.9520 -0.6664 -0.0508
16250TIP3    H270166   3.404   0.091  13.996  0.6094  0.1080  1.8104
16251TIP3   OH270167   3.344   2.426   4.937 -0.2796 -0.1633 -0.3514
16251TIP3    H170168   3.380   2.441   5.024 -1.7388 -0.2980  0.3139
16251TIP3    H270169   3.403   2.362   4.897  0.4546 -0.0361  0.5015
16252TIP3   OH270170   6.008   1.635   4.799 -0.0101 -0.2411  0.4000
16252TIP3    H170171   6.104   1.627   4.799  0.0923  0.6972  1.4398
16252TIP3    H270172   5.977   1.551   4.832  0.5913  0.3141  2.5392
16253TIP3   OH270173   5.938   0.214  16.771  0.2216 -0.7186  0.4780
16253TIP3    H170174   5.889   0.158  16.831 -0.6847  0.8131  1.2055
16253TIP3    H270175   5.871   0.259  16.720  0.8339  1.0578  1.1604
16254TIP3   OH270176   1.651   3.454  14.567  0.6045  0.1725 -0.2299
16254TIP3    H170177   1.709   3.526  14.593  0.5503  0.3180 -0.5180
16254TIP3    H270178   1.666   3.443  14.474  0.1065  0.2636 -0.3225
16255TIP3   OH270179   5.441   0.983   6.217  0.4808 -0.2649  0.4088
16255TIP3    H170180   5.465   1.022   6.301  1.0056 -0.1835  0.2256
16255TIP3    H270181   5.477   0.894   6.220  0.3673 -0.3144  0.3303
16256TIP3   OH270182   5.598   4.923  13.240  0.0856  0.0579  0.2727
16256TIP3    H170183   5.670   4.971  13.280 -2.2289  3.6273  0.6324
16256TIP3    H270184   5.544   4.894  13.314 -1.6030  2.2824  0.0078
16257TIP3   OH270185   5.918   2.325   5.863  0.0067  1.0159  0.4031
16257TIP3    H170186   5.919   2.323   5.958 -1.5013  1.4534  0.4665
16257TIP3    H270187   5.990   2.268   5.836  1.6861  2.3893  1.7791
16258TIP3   OH270188   2.090   5.732  11.919 -0.2232 -1.2228  0.4038
16258TIP3    H170189   2.005   5.693  11.896  0.0296 -1.2947 -0.4512
16258TIP3    H270190   2.141   5.728  11.838  0.1418  0.0201  0.5492
16259TIP3   OH270191   6.788   6.154  13.920  0.2533  0.2760  0.6314
16259TIP3    H170192   6.825   6.104  13.993  0.6468 -1.2161 -0.5176
16259TIP3    H270193   6.805   6.099  13.844  1.8799  2.7408 -0.9564
16260TIP3   OH270194   5.974   0.997  11.726  0.3274 -0.1019 -0.1284
16260TIP3    H170195   5.901   1.048  11.760  0.7774  0.2588  0.3240
16260TIP3    H270196   5.944   0.963  11.642  0.1933  1.3329 -0.6926
16261TIP3   OH270197   0.506   6.489   5.420 -0.1600  0.1838  0.1652
16261TIP3    H170198   0.564   6.463   5.349  0.2620  1.2623  0.0876
16261TIP3    H270199   0.428   6.524   5.376 -0.5387 -0.5224  0.2609
16262TIP3   OH270200   6.596   1.434  11.178 -0.2041 -0.1935 -0.0745
16262TIP3    H170201   6.612   1.383  11.099  0.8986 -1.4335  0.9199
16262TIP3    H270202   6.502   1.454  11.175 -0.7801 -2.6669 -0.2871
16263TIP3   OH270203   2.391   1.097   5.362  0.5586 -0.0747  0.2570
16263TIP3    H170204   2.381   1.130   5.451  0.9371 -0.1412  0.3247
16263TIP3    H270205   2.329   1.149   5.310  1.7320  1.3206  0.2084
16264TIP3   OH270206   0.864   4.237  15.334  0.3701  0.1056  0.1591
16264TIP3    H170207   0.868   4.240  15.238  0.1208 -3.8051 -0.1166
16264TIP3    H270208   0.806   4.310  15.357 -1.0042  0.0955 -2.8124
16265TIP3   OH270209   1.543   1.233  16.304 -0.9737 -0.3992 -0.2488
16265TIP3    H170210   1.610   1.271  16.247 -0.9920 -2.5238 -1.8008
16265TIP3    H270211   1.475   1.301  16.309  0.8175  1.4272  0.6109
16266TIP3   OH270212   2.116   5.005  12.808  0.2403 -0.1475 -0.6168
16266TIP3    H170213   2.151   5.057  12.880 -0.1747 -0.2715 -0.3173
16266TIP3    H270214   2.188   4.947  12.783  0.2663 -0.3758 -0.0350
16267TIP3   OH270215   1.272   1.680  11.256  0.2353  0.5735 -0.4111
16267TIP3    H170216   1.360   1.709  11.280  0.5958  0.2895 -1.3420
16267TIP3    H270217   1.214   1.738  11.305  0.9427  1.2314 -0.3260
16268TIP3   OH270218   6.272   5.399   2.188 -0.1634  0.7803  0.4655
16268TIP3    H170219   6.329   5.326   2.165  1.4279  1.8773  0.8446
16268TIP3    H270220   6.325   5.455   2.244 -1.3049  2.3122  0.0679
16269TIP3   OH270221   0.865   4.548  14.349 -0.3285  0.1544 -0.6730
16269TIP3    H170222   0.895   4.520  14.262  1.6449 -1.2240  0.3722
16269TIP3    H270223   0.822   4.632  14.333 -2.1178 -1.1247 -3.2959
16270TIP3   OH270224   2.473   4.722   1.188  0.5105 -0.3931  0.0188
16270TIP3    H170225   2.414   4.798   1.184  0.5650 -0.2695  1.1331
16270TIP3    H270226   2.556   4.754   1.153  0.2451 -0.2302 -0.4670
16271TIP3   OH270227   6.779   1.609  13.111 -0.4653 -0.2963  0.5920
16271TIP3    H170228   6.867   1.629  13.080  0.2965 -0.1396  2.6941
16271TIP3    H270229   6.760   1.523  13.074  0.6090 -0.3885  0.2148
16272TIP3   OH270230   5.275   4.505   4.889  0.7949  0.3204 -0.0612
16272TIP3    H170231   5.280   4.583   4.944 -0.5891 -0.3770  1.1305
16272TIP3    H270232   5.264   4.539   4.801 -0.3898  1.4964  0.4981
16273TIP3   OH270233   5.766   3.822   4.494  0.0667 -0.0623  0.0418
16273TIP3    H170234   5.847   3.871   4.483 -0.2148  0.7641  1.4029
16273TIP3    H270235   5.704   3.865   4.435  0.1675  0.4116  0.2765
16274TIP3   OH270236   5.223   3.161  11.583  0.0604  0.1474 -0.3710
16274TIP3    H170237   5.244   3.206  11.501  0.4295  2.2412  0.7872
16274TIP3    H270238   5.301   3.109  11.603 -0.4841 -1.3364 -1.8932
16275TIP3   OH270239   4.750   5.226   3.381  0.3362  0.4064  0.3302
16275TIP3    H170240   4.737   5.178   3.300  3.6686 -0.0620 -0.0855
16275TIP3    H270241   4.817   5.291   3.360  1.3600  0.2344  2.6644
16276TIP3   OH270242   6.811   3.505   0.115 -0.1766  0.0912 -0.0748
16276TIP3    H170243   6.853   3.587   0.140  0.4365  0.2749 -1.6136
16276TIP3    H270244   6.863   3.437   0.159 -1.6295  0.5101  2.5277
16277TIP3   OH270245   1.478   1.682  13.686  0.0447 -0.0951  0.2935
16277TIP3    H170246   1.492   1.736  13.764  0.3951  2.2036 -1.2741
16277TIP3    H270247   1.391   1.645  13.697 -0.5776  1.5247  1.0178
16278TIP3   OH270248   4.729   4.244   4.797  0.1538  0.3186 -0.3545
16278TIP3    H170249   4.753   4.282   4.882 -0.7852 -0.7827  0.4372
16278TIP3    H270250   4.640   4.212   4.809 -0.1082  0.3941 -1.8671
16279TIP3   OH270251   5.045   6.539  15.838 -0.2451  0.7692 -0.6351
16279TIP3    H170252   5.089   6.620  15.811 -0.8085  0.7909 -1.5389
16279TIP3    H270253   4.960   6.542  15.793  0.0140 -0.6547 -1.2646
16280TIP3   OH270254   0.618   2.510  14.634 -0.2521  0.0937 -0.3358
16280TIP3    H170255   0.666   2.428  14.642  1.4224  1.0173 -0.6327
16280TIP3    H270256   0.643   2.546  14.549 -2.2781  0.1364 -0.9775
16281TIP3   OH270257   5.807   4.886  16.216 -0.3763  0.5669 -0.0220
16281TIP3    H170258   5.863   4.811  16.232  0.9449  1.7019  0.8659
16281TIP3    H270259   5.757   4.863  16.137 -1.1110 -1.8267  1.0614
16282TIP3   OH270260   6.812   0.677   2.961  0.6512  0.1349 -0.5089
16282TIP3    H170261   6.801   0.582   2.968 -0.8709  0.3663  0.9847
16282TIP3    H270262   6.873   0.699   3.031 -0.3738  0.4207  0.3247
16283TIP3   OH270263   5.066   1.227  10.687  0.4886 -0.1502  0.4213
16283TIP3    H170264   5.123   1.217  10.611  4.0107 -0.0700  2.8410
16283TIP3    H270265   5.060   1.138  10.723 -0.2103  0.0069  0.7022
16284TIP3   OH270266   0.572   5.391  13.285 -0.4212  0.4278 -0.3863
16284TIP3    H170267   0.478   5.373  13.293 -0.6233  1.5463 -0.0801
16284TIP3    H270268   0.589   5.383  13.191 -1.0369  1.1577 -0.5721
16285TIP3   OH270269   5.685   3.144   5.708 -0.0586  0.1853  0.6760
16285TIP3    H170270   5.631   3.216   5.741 -1.5630 -0.3792 -0.3953
16285TIP3    H270271   5.621   3.081   5.674  1.2245 -1.4225  1.1109
16286TIP3   OH270272   0.702   2.126   2.777  0.1421  0.2164  0.0687
16286TIP3    H170273   0.720   2.218   2.797 -0.0169  0.3819 -0.5176
16286TIP3    H270274   0.787   2.082   2.787  0.1901  0.4042  0.4807
16287TIP3   OH270275   4.184   1.696  10.895  0.0283 -0.6000 -0.1338
16287TIP3    H170276   4.224   1.628  10.841 -0.0556 -0.7847  0.0355
16287TIP3    H270277   4.117   1.735  10.838 -0.1442 -0.8771 -0.1212
16288TIP3   OH270278   3.338   3.454   4.474  0.3029  0.2209 -0.0794
16288TIP3    H170279   3.369   3.474   4.563  1.6054 -0.7956 -0.2767
16288TIP3    H270280   3.277   3.382   4.485  0.8386 -0.2338 -0.0445
16289TIP3   OH270281   2.390   6.497   1.805 -0.0885  0.1192  0.7684
16289TIP3    H170282   2.340   6.493   1.723  0.5358  2.2610  0.2249
16289TIP3    H270283   2.481   6.485   1.778  0.0727  0.3741  1.1928
16290TIP3   OH270284   2.247   4.032   6.475 -0.0181 -0.1393 -0.4704
16290TIP3    H170285   2.289   3.974   6.539  1.1948  1.0705 -0.1260
16290TIP3    H270286   2.228   4.112   6.523 -1.0029  0.0378 -1.1192
16291TIP3   OH270287   4.482   0.153   3.452  0.3822 -0.0576 -0.0314
16291TIP3    H170288   4.391   0.156   3.424  0.7906  0.3438 -1.3977
16291TIP3    H270289   4.522   0.086   3.397  0.6955 -1.0332  1.3157
16292TIP3   OH270290   1.475   4.577  10.914  0.0474 -0.0081  0.7784
16292TIP3    H170291   1.442   4.495  10.879  0.4693  1.0068 -2.2632
16292TIP3    H270292   1.569   4.563  10.926  0.9510  1.0213 -3.5377
16293TIP3   OH270293   0.459   3.449  10.838  0.4972  0.1806  0.1716
16293TIP3    H170294   0.494   3.422  10.753 -0.8391 -1.6322  0.1447
16293TIP3    H270295   0.487   3.540  10.847  0.3160  0.5675 -2.3855
16294TIP3   OH270296   4.444   4.738   1.938 -0.8045  0.0095 -0.0697
16294TIP3    H170297   4.491   4.681   1.999 -0.4118  0.9038  0.4953
16294TIP3    H270298   4.407   4.807   1.994 -0.4251  0.8505 -0.8310
16295TIP3   OH270299   1.022   3.232  13.850 -0.3019 -0.6829  0.0909
16295TIP3    H170300   1.037   3.225  13.944 -0.8252 -2.6066  0.0762
16295TIP3    H270301   1.109   3.225  13.810  0.1782  2.1711  0.4396
16296TIP3   OH270302   4.681   1.920  15.113 -0.0605 -0.4874  1.0224
16296TIP3    H170303   4.636   1.835  15.118  0.4301 -0.6989  2.0068
16296TIP3    H270304   4.616   1.983  15.143 -0.7994 -0.3496 -0.7580
16297TIP3   OH270305   5.547   5.208  15.830  0.6291  0.3615 -0.4534
16297TIP3    H170306   5.638   5.234  15.818  0.3255  1.0862 -1.2230
16297TIP3    H270307   5.548   5.155  15.910  1.7305  0.2995 -0.4963
16298TIP3   OH270308   3.051   0.253   3.347 -0.4589  0.3691  0.2016
16298TIP3    H170309   3.058   0.238   3.442 -0.2016 -0.4066  0.0690
16298TIP3    H270310   3.139   0.280   3.321 -0.2623 -0.4070  0.0282
16299TIP3   OH270311   1.320   3.405   0.144  0.0414 -0.6564  0.5952
16299TIP3    H170312   1.336   3.473   0.079 -0.7621  1.4254  2.4734
16299TIP3    H270313   1.370   3.431   0.220 -0.7262 -1.8832  1.5643
16300TIP3   OH270314   5.931   1.615   3.968  0.2582  0.4251 -0.0533
16300TIP3    H170315   6.011   1.651   4.008 -1.2723  0.4050  3.4479
16300TIP3    H270316   5.948   1.521   3.961  0.6292  0.4476  0.4586
16301TIP3   OH270317   1.407   1.500   5.832  0.1684 -0.1134 -1.0227
16301TIP3    H170318   1.463   1.487   5.909 -1.8097  1.5147  0.8405
16301TIP3    H270319   1.433   1.586   5.797 -0.2383  0.0394 -0.9584
16302TIP3   OH270320   1.359   5.157  14.284  0.1711 -0.1462 -0.0019
16302TIP3    H170321   1.399   5.209  14.214  0.4801  0.7827  0.8425
16302TIP3    H270322   1.376   5.207  14.363 -2.1970  0.0185  0.4839
16303TIP3   OH270323   3.253   6.047  16.086  0.4416  0.3554 -0.2636
16303TIP3    H170324   3.175   6.091  16.121  0.0388 -0.6600  0.1420
16303TIP3    H270325   3.219   5.984  16.023  0.9147 -0.1793  0.0036
16304TIP3   OH270326   6.440   2.687   2.613  0.0067 -0.1019  0.0214
16304TIP3    H170327   6.415   2.761   2.669  0.0981  0.8529 -1.1674
16304TIP3    H270328   6.358   2.662   2.571  0.1125 -0.2143 -0.1151
16305TIP3   OH270329   5.460   0.760  14.644  0.6162 -0.0194 -0.0356
16305TIP3    H170330   5.427   0.808  14.568  1.6096  0.8905  0.0911
16305TIP3    H270331   5.441   0.669  14.624  0.2053  0.2690 -1.0452
16306TIP3   OH270332   1.342   0.921  14.863 -0.5794 -0.4410  0.4073
16306TIP3    H170333   1.380   0.959  14.942  1.5228  0.1456 -0.7913
16306TIP3    H270334   1.349   0.827  14.875  0.3974 -0.3479  0.6584
16307TIP3   OH270335   2.151   5.604  10.438 -0.4223 -0.1133 -0.5520
16307TIP3    H170336   2.090   5.638  10.504 -0.3057 -0.7039 -0.1351
16307TIP3    H270337   2.236   5.603  10.481 -0.4172 -0.9090 -0.5563
16308TIP3   OH270338   1.477   0.473   4.785  0.0557 -0.1549  0.2345
16308TIP3    H170339   1.394   0.519   4.768  1.1372  2.0533  0.6280
16308TIP3    H270340   1.521   0.527   4.851  2.4187 -0.4957 -0.9787
16309TIP3   OH270341   5.335   0.958  11.713  0.1643  0.2328 -0.3149
16309TIP3    H170342   5.336   1.015  11.636  1.2040  1.0018  0.2426
16309TIP3    H270343   5.246   0.966  11.748 -0.1716  0.2518 -1.1568
16310TIP3   OH270344   0.119   1.817   3.308 -0.0468 -0.5549 -0.8471
16310TIP3    H170345   0.077   1.888   3.356  0.3514 -0.2360 -0.9657
16310TIP3    H270346   0.206   1.851   3.286  0.1823 -1.1147 -0.8193
16311TIP3   OH270347   0.017   0.708  16.260  0.1414  0.0014  0.1486
16311TIP3    H170348   0.049   0.659  16.336 -1.4504 -1.8516 -0.2922
16311TIP3    H270349   0.075   0.684  16.189 -0.1845 -0.7020  0.1091
16312TIP3   OH270350   3.745   1.574  15.621 -0.3051  0.2411  0.0520
16312TIP3    H170351   3.792   1.595  15.702  0.5720  1.7582 -0.7869
16312TIP3    H270352   3.665   1.532  15.649  0.9813 -1.3114  1.6134
16313TIP3   OH270353   3.362   2.528  11.064  0.3445  0.3902  0.3252
16313TIP3    H170354   3.331   2.532  10.974  0.3377 -3.1468  0.0399
16313TIP3    H270355   3.450   2.566  11.062  0.3119  0.4152 -1.1327
16314TIP3   OH270356   5.445   6.455   0.109  0.5909  0.7125  0.0125
16314TIP3    H170357   5.369   6.439   0.053 -0.6582 -0.3038  1.9021
16314TIP3    H270358   5.408   6.496   0.188  1.9743 -0.0042  1.0642
16315TIP3   OH270359   3.511   1.607  14.087 -0.0214  0.1030 -0.2688
16315TIP3    H170360   3.462   1.621  14.168  0.4500  1.5535 -0.2100
16315TIP3    H270361   3.590   1.560  14.114 -1.3359 -2.3585 -0.3760
16316TIP3   OH270362   5.064   2.706   3.923  0.1528 -0.2808 -0.6267
16316TIP3    H170363   5.045   2.760   3.847  0.7415 -0.2131 -0.7286
16316TIP3    H270364   5.005   2.631   3.916  0.6469 -0.5954 -1.4859
16317TIP3   OH270365   3.099   0.172   0.608  0.1677 -0.5424 -0.5876
16317TIP3    H170366   3.137   0.192   0.694 -1.9120 -0.3455  0.3546
16317TIP3    H270367   3.150   0.224   0.546  0.1507  1.2672  0.8437
16318TIP3   OH270368   3.810   4.314  12.908  0.4711 -0.1658 -0.1484
16318TIP3    H170369   3.823   4.409  12.901 -0.9811  0.0267 -0.4841
16318TIP3    H270370   3.890   4.282  12.949  0.1327  1.4848  1.9779
16319TIP3   OH270371   2.067   3.964   0.885  0.1383 -0.0984  0.8011
16319TIP3    H170372   2.074   3.914   0.966 -1.9792 -1.4811  0.2261
16319TIP3    H270373   2.002   3.916   0.833 -0.5925  2.2255 -0.5833
16320TIP3   OH270374   1.859   6.252   0.642  0.0470  0.2263  0.6935
16320TIP3    H170375   1.778   6.288   0.678 -0.2031  0.3820 -0.0081
16320TIP3    H270376   1.890   6.319   0.581 -0.8977 -1.0560 -1.3210
16321TIP3   OH270377   4.176   1.446  16.575 -0.1522  0.0650  0.1827
16321TIP3    H170378   4.161   1.382  16.644 -1.4315  1.0389  0.8580
16321TIP3    H270379   4.182   1.530  16.621 -3.7719  1.1225 -0.9825
16322TIP3   OH270380   6.614   5.038   4.104 -0.9232  0.4809  0.2270
16322TIP3    H170381   6.534   5.033   4.050 -0.9967  1.9795  0.1743
16322TIP3    H270382   6.596   4.979   4.177 -1.8866  0.4281 -0.0304
16323TIP3   OH270383   2.444   6.804  11.620  0.1366  0.0151  0.3137
16323TIP3    H170384   2.537   6.787  11.630  0.2288  0.8811  1.0290
16323TIP3    H270385   2.420   6.853  11.699 -0.8718  0.0083  0.0229
16324TIP3   OH270386   1.471   3.305  16.419 -0.0735  0.0804 -0.4862
16324TIP3    H170387   1.532   3.240  16.386 -1.8323 -0.8387 -2.1058
16324TIP3    H270388   1.517   3.388  16.409  1.0295 -0.6059 -1.3791
16325TIP3   OH270389   0.566   1.180   4.221  0.0052  0.1716 -0.1132
16325TIP3    H170390   0.565   1.100   4.169  1.0878 -0.3226  0.5742
16325TIP3    H270391   0.575   1.251   4.157  0.1928 -0.3404 -0.6603
16326TIP3   OH270392   1.781   3.395  16.085  0.2557  0.4755  0.3660
16326TIP3    H170393   1.865   3.433  16.109  0.5946  1.4169 -2.0402
16326TIP3    H270394   1.756   3.441  16.005 -1.4732 -1.3582 -0.2251
16327TIP3   OH270395   1.106   4.084  16.251  0.0946  0.0049 -0.2267
16327TIP3    H170396   1.081   4.040  16.332  2.6237 -1.5187 -0.1670
16327TIP3    H270397   1.122   4.013  16.189  2.3625  0.8754 -0.7430
16328TIP3   OH270398   5.714   4.128  13.888 -0.4399  0.2813  0.4041
16328TIP3    H170399   5.625   4.164  13.888 -0.0588  1.3077  1.6375
16328TIP3    H270400   5.731   4.107  13.797 -1.7978  0.4374  0.0864
16329TIP3   OH270401   0.382   1.955  14.706  0.3477  0.2608 -0.0732
16329TIP3    H170402   0.309   1.963  14.645  0.8362  1.2062 -0.5688
16329TIP3    H270403   0.355   1.887  14.767 -1.5275  1.4473  0.5376
16330TIP3   OH270404   3.267   1.176   0.893 -0.7277  0.2172 -0.6371
16330TIP3    H170405   3.315   1.187   0.975  0.2573  0.4212 -1.2223
16330TIP3    H270406   3.204   1.107   0.911  0.1646 -0.4496 -0.0053
16331TIP3   OH270407   1.179   2.125   2.892  0.5579  0.0051 -0.0259
16331TIP3    H170408   1.218   2.162   2.813  1.0078  0.8539  0.5726
16331TIP3    H270409   1.121   2.194   2.924 -0.1044 -0.5811  0.0359
16332TIP3   OH270410   3.725   5.703  12.437  0.5660 -0.1663 -0.7365
16332TIP3    H170411   3.815   5.698  12.405  0.6324 -0.6419 -0.4849
16332TIP3    H270412   3.707   5.616  12.472  0.5413  0.3488  0.6168
16333TIP3   OH270413   5.314   0.708   0.879  0.1286 -0.1463 -0.4308
16333TIP3    H170414   5.383   0.770   0.855  1.7526 -2.0000 -0.8041
16333TIP3    H270415   5.327   0.633   0.820 -1.1822 -1.2393  0.5923
16334TIP3   OH270416   3.275   2.020   0.288 -0.0432  0.0122 -0.5591
16334TIP3    H170417   3.283   2.086   0.356  0.7002 -1.3529  0.7152
16334TIP3    H270418   3.339   1.953   0.311  0.5657 -0.2879 -2.8656
16335TIP3   OH270419   5.062   0.954   4.449 -0.4629 -0.2997  0.8300
16335TIP3    H170420   5.114   0.879   4.420 -0.4492 -0.4340  1.1959
16335TIP3    H270421   5.085   0.965   4.541 -1.0567 -0.3456  0.9912
16336TIP3   OH270422   1.428   6.127   6.071 -0.0259  0.1748 -0.7745
16336TIP3    H170423   1.500   6.119   6.133 -2.0634  0.9607  1.8962
16336TIP3    H270424   1.402   6.037   6.051  0.0216 -0.1015  0.3574
16337TIP3   OH270425   6.536   0.708  16.753  0.2543 -0.4180  0.1646
16337TIP3    H170426   6.592   0.633  16.735  0.7526  0.1547 -0.7301
16337TIP3    H270427   6.522   0.749  16.667 -0.3665  0.2595  0.5776
16338TIP3   OH270428   6.484   6.412  16.892  0.7323  0.3395 -0.0020
16338TIP3    H170429   6.423   6.471  16.848 -0.2448 -1.3132 -0.9675
16338TIP3    H270430   6.438   6.384  16.971  1.2037  0.8581  0.4674
16339TIP3   OH270431   3.562   4.347   2.999 -0.1756  0.0057 -0.1116
16339TIP3    H170432   3.569   4.255   2.971  1.4011  0.0670 -0.0207
16339TIP3    H270433   3.586   4.397   2.921  0.9954  0.2598  0.3814
16340TIP3   OH270434   1.211   0.717  15.209  0.1868  0.8162 -0.5226
16340TIP3    H170435   1.160   0.796  15.195 -1.8614 -0.4116 -0.3824
16340TIP3    H270436   1.170   0.675  15.284  3.0887  1.0277  1.3493
16341TIP3   OH270437   0.969   1.117  16.118  0.0880  0.0762 -0.1551
16341TIP3    H170438   0.883   1.146  16.086 -1.7789 -1.8792  2.6515
16341TIP3    H270439   0.981   1.030  16.080  0.4535  0.0080  0.1098
16342TIP3   OH270440   4.948   1.537   4.746  0.1344  0.1185 -0.6660
16342TIP3    H170441   4.891   1.589   4.803 -1.9540 -0.3218 -2.2302
16342TIP3    H270442   4.930   1.446   4.771  2.4019 -0.0115  0.7951
16343TIP3   OH270443   1.062   5.922  16.081  0.1158  0.5622 -0.0686
16343TIP3    H170444   1.151   5.956  16.090  1.1173 -1.6026 -0.9354
16343TIP3    H270445   1.025   5.929  16.169  2.1443 -0.9113  1.0059
16344TIP3   OH270446   4.067   6.667  15.079  0.3655  0.1901  0.2464
16344TIP3    H170447   4.090   6.717  15.157 -0.1274  0.2961  0.3310
16344TIP3    H270448   3.976   6.691  15.062  0.5243  0.3024 -0.4644
16345TIP3   OH270449   2.043   2.061   4.241 -0.0548 -0.1635 -0.2636
16345TIP3    H170450   1.981   2.125   4.275  1.2493  1.0720 -0.1602
16345TIP3    H270451   2.039   1.988   4.304  1.2552  1.4587  1.8471
16346TIP3   OH270452   3.353   0.608   4.685 -0.2943  0.2187 -0.7335
16346TIP3    H170453   3.380   0.689   4.643  0.6217 -0.1085 -0.8138
16346TIP3    H270454   3.367   0.540   4.618  0.8960 -0.2652 -0.0376
16347TIP3   OH270455   0.147   0.446   4.229 -0.3393 -1.1788 -0.1271
16347TIP3    H170456   0.132   0.365   4.278 -2.3107 -0.4245  0.5957
16347TIP3    H270457   0.061   0.471   4.196  0.1061  0.9509  0.1821
16348TIP3   OH270458   3.056   4.932   4.618  0.2411  0.1584  0.3270
16348TIP3    H170459   2.969   4.932   4.657 -0.2498  0.3712 -0.7208
16348TIP3    H270460   3.080   5.024   4.612  1.1948  0.0580  1.9572
16349TIP3   OH270461   2.197   5.675  11.387 -0.4428  0.2478  0.5463
16349TIP3    H170462   2.227   5.745  11.328 -0.9484  0.8271  0.9571
16349TIP3    H270463   2.264   5.608  11.380 -0.3296  0.4468 -0.4371
16350TIP3   OH270464   3.486   6.170  16.291 -0.2305  0.3069  0.3455
16350TIP3    H170465   3.462   6.256  16.256 -0.8013  0.4568  1.0672
16350TIP3    H270466   3.459   6.108  16.223 -1.0540  0.6100  0.3724
16351TIP3   OH270467   3.220   1.320   4.526  0.0884  0.0852  0.4561
16351TIP3    H170468   3.141   1.370   4.548  0.7509  0.7312  1.4505
16351TIP3    H270469   3.253   1.288   4.611  0.6747 -0.5152  0.0144
16352TIP3   OH270470   1.060   4.586   4.614 -0.4349 -0.1492 -0.6245
16352TIP3    H170471   1.113   4.648   4.665 -2.8865  1.9165 -0.3875
16352TIP3    H270472   1.107   4.577   4.532 -0.8554  3.7147 -1.4938
16353TIP3   OH270473   2.810   2.619   5.587 -1.0128 -0.4309  0.0305
16353TIP3    H170474   2.778   2.529   5.595 -3.1566 -0.0122 -2.4779
16353TIP3    H270475   2.755   2.669   5.648 -0.2221 -0.7092  0.9877
16354TIP3   OH270476   1.265   2.022   0.981 -0.3011  0.2472  0.1630
16354TIP3    H170477   1.351   2.027   0.939 -0.9816  1.8139 -1.1470
16354TIP3    H270478   1.271   1.947   1.040  0.9053 -1.6941 -2.2826
16355TIP3   OH270479   6.736   4.924   0.530 -1.0711 -0.1612 -0.3587
16355TIP3    H170480   6.813   4.869   0.546 -0.8618  0.8927  2.8069
16355TIP3    H270481   6.758   4.973   0.451  2.1170  1.0286  1.1061
16356TIP3   OH270482   6.194   1.103  14.371 -0.0425 -0.2744  0.0353
16356TIP3    H170483   6.243   1.172  14.415 -1.7552  1.6075 -0.8644
16356TIP3    H270484   6.140   1.064  14.440  0.6355 -0.4726  0.4666
16357TIP3   OH270485   2.170   2.046  16.201 -0.2821 -0.1049 -0.0573
16357TIP3    H170486   2.217   2.061  16.284  0.9070 -0.7930 -0.5882
16357TIP3    H270487   2.176   2.130  16.156  0.2668 -0.1184 -0.0224
16358TIP3   OH270488   6.474   4.546  12.637 -0.2235 -0.7740  0.5356
16358TIP3    H170489   6.501   4.601  12.710 -0.2867  0.2923 -0.2227
16358TIP3    H270490   6.420   4.603  12.583 -0.1815 -1.5416 -0.3390
16359TIP3   OH270491   4.387   3.119  11.431 -0.4670 -0.3937  0.1015
16359TIP3    H170492   4.358   3.057  11.365 -2.2820  1.4218 -0.9292
16359TIP3    H270493   4.404   3.200  11.383  0.8557  0.2355  1.5215
16360TIP3   OH270494   6.329   5.695   5.534  0.4157 -0.5774 -0.0725
16360TIP3    H170495   6.252   5.727   5.486  1.5174 -0.5927 -1.9780
16360TIP3    H270496   6.397   5.686   5.466  2.4472  0.5102  1.6835
16361TIP3   OH270497   5.072   1.323   1.504  0.7008  0.1404  0.9581
16361TIP3    H170498   5.004   1.380   1.540  0.8769  0.5685  0.6271
16361TIP3    H270499   5.027   1.241   1.485 -0.1863  1.0304 -1.0414
16362TIP3   OH270500   2.175   0.288  15.557  0.0015  0.5292  0.6097
16362TIP3    H170501   2.238   0.359  15.548 -1.2141  1.3939 -2.1917
16362TIP3    H270502   2.228   0.208  15.550  0.9840  1.2134 -0.1487
16363TIP3   OH270503   1.294   4.415  15.802 -0.4581 -0.0373  0.0699
16363TIP3    H170504   1.376   4.388  15.844 -0.7695  0.2797  0.9014
16363TIP3    H270505   1.258   4.334  15.765 -0.1984 -0.3338  0.4556
16364TIP3   OH270506   1.209   2.691  14.601  0.3133  0.1731 -0.7227
16364TIP3    H170507   1.194   2.610  14.553  0.2224  0.1690 -0.6875
16364TIP3    H270508   1.300   2.713  14.582  0.3563  0.0319 -0.6850
16365TIP3   OH270509   6.694   0.796   0.006 -0.0625 -0.3870  0.4335
16365TIP3    H170510   6.622   0.734   0.017  1.0033 -1.4637  1.7367
16365TIP3    H270511   6.750   0.781   0.082  0.7252  1.5460  0.2992
16366TIP3   OH270512   4.363   5.507   5.817  0.4414 -0.2676 -0.4055
16366TIP3    H170513   4.358   5.596   5.852 -0.0475  0.1883 -1.5692
16366TIP3    H270514   4.428   5.463   5.872 -1.1292  0.0160  1.8331
16367TIP3   OH270515   0.594   3.217  13.556  0.3862  0.1475 -0.1991
16367TIP3    H170516   0.605   3.289  13.619 -0.4562  0.0929  0.0140
16367TIP3    H270517   0.684   3.189  13.537  0.6864 -1.6609  3.0831
16368TIP3   OH270518   1.973   5.533  11.253 -0.1238  0.0817  0.1000
16368TIP3    H170519   2.009   5.598  11.314  0.6097 -0.3178  0.0928
16368TIP3    H270520   2.022   5.547  11.172  0.9996 -1.3664  0.4896
16369TIP3   OH270521   4.249   4.221   4.651  0.5176 -0.5953 -0.1810
16369TIP3    H170522   4.191   4.254   4.582  1.5366 -0.5291 -1.0356
16369TIP3    H270523   4.272   4.299   4.702 -1.8793 -0.9324  1.5763
16370TIP3   OH270524   3.823   4.882  16.030  0.2828 -0.0223 -0.0064
16370TIP3    H170525   3.870   4.837  16.100  0.6800  1.6584  0.8723
16370TIP3    H270526   3.771   4.949  16.075  1.1726  1.6501 -1.3579
16371TIP3   OH270527   5.762   1.510   2.249  0.6608 -0.0837 -0.1361
16371TIP3    H170528   5.732   1.419   2.255  1.6963 -0.4887 -0.8782
16371TIP3    H270529   5.684   1.560   2.227  0.1845 -0.8655 -0.2452
16372TIP3   OH270530   4.331   2.563  14.448  0.0074  0.5071  0.1059
16372TIP3    H170531   4.409   2.547  14.394 -0.1244  0.0118  0.0581
16372TIP3    H270532   4.278   2.484  14.437 -0.5947  0.9212 -0.0163
16373TIP3   OH270533   4.441   5.820  10.838 -0.4663 -0.4302 -0.4117
16373TIP3    H170534   4.362   5.871  10.854  0.8534  1.3033  0.8392
16373TIP3    H270535   4.464   5.839  10.747  0.1166  1.4080  0.0970
16374TIP3   OH270536   3.089   6.370   3.994 -0.7508  0.3773  0.5357
16374TIP3    H170537   3.175   6.332   4.012  0.0340  0.3188 -2.5929
16374TIP3    H270538   3.074   6.432   4.065  1.8702  0.3299  1.2235
16375TIP3   OH270539   1.382   3.753  10.415  0.6633 -0.1596 -0.2866
16375TIP3    H170540   1.340   3.685  10.469  0.1830 -0.8392 -1.4908
16375TIP3    H270541   1.475   3.731  10.418  0.5081 -0.8927 -0.6848
16376TIP3   OH270542   2.332   0.646   4.641  0.5110  0.4177  0.2265
16376TIP3    H170543   2.383   0.610   4.713  1.4556  1.0739 -0.0983
16376TIP3    H270544   2.297   0.728   4.675  1.7799  1.2245 -0.3658
16377TIP3   OH270545   3.293   1.259   1.464  0.2101 -0.2863  0.2316
16377TIP3    H170546   3.198   1.255   1.451  0.3006 -0.2267 -0.4411
16377TIP3    H270547   3.330   1.267   1.376  0.8747 -0.9297  0.4424
16378TIP3   OH270548   3.466   4.604  16.556 -0.3295  0.0479  0.2151
16378TIP3    H170549   3.448   4.665  16.485  1.1166 -0.4117 -0.6062
16378TIP3    H270550   3.446   4.652  16.636  1.7340  2.0074 -0.3471
16379TIP3   OH270551   5.025   6.236   3.432 -1.0794  0.2323  0.2018
16379TIP3    H170552   4.980   6.304   3.482  0.0469  2.6464 -1.8654
16379TIP3    H270553   5.010   6.258   3.341  1.0478 -1.0902 -0.5502
16380TIP3   OH270554   5.278   3.308   0.017  0.5416 -0.1882  0.0866
16380TIP3    H170555   5.353   3.332   0.072  0.5954  1.9226 -0.7959
16380TIP3    H270556   5.300   3.222  -0.018  2.2033  0.0668  0.4295
16381TIP3   OH270557   0.137   0.087   4.570  0.4813  0.4491  0.5209
16381TIP3    H170558   0.167   0.004   4.532  1.1606  0.9513 -0.0701
16381TIP3    H270559   0.057   0.108   4.523 -0.4008 -0.4833  1.5355
16382TIP3   OH270560   0.839   3.899  11.160  0.6978  0.2463 -0.9018
16382TIP3    H170561   0.848   3.980  11.110  0.3864  1.8804  1.4841
16382TIP3    H270562   0.746   3.896  11.183  1.2912  1.2873  2.0876
16383TIP3   OH270563   3.195   2.629  12.601 -0.3646 -0.4220 -0.1639
16383TIP3    H170564   3.244   2.691  12.654  2.0707  0.0516 -2.7092
16383TIP3    H270565   3.111   2.672  12.584  0.7754  1.6686 -0.8225
16384TIP3   OH270566   1.246   2.477   5.156  0.0625  0.3086 -0.1948
16384TIP3    H170567   1.258   2.529   5.076  2.0860  1.1291  0.5827
16384TIP3    H270568   1.258   2.539   5.228  3.7393 -1.3031  0.7954
16385TIP3   OH270569   3.626   3.345   1.976 -0.1908 -0.2636 -0.3639
16385TIP3    H170570   3.583   3.372   2.057  0.3555 -0.4057 -0.0248
16385TIP3    H270571   3.628   3.249   1.980 -0.0925 -0.2686 -0.5121
16386TIP3   OH270572   4.263   0.007  13.236 -0.1266  0.5778 -0.5589
16386TIP3    H170573   4.251  -0.069  13.293  1.8701 -1.4898 -2.6899
16386TIP3    H270574   4.233  -0.022  13.150 -0.7071  2.7630 -1.1810
16387TIP3   OH270575   0.254   4.778  16.648 -0.1958 -0.4073  0.1255
16387TIP3    H170576   0.226   4.821  16.729  1.4154  0.1233  0.4500
16387TIP3    H270577   0.330   4.726  16.674  1.4822  1.1897 -1.3240
16388TIP3   OH270578   4.084   0.571   4.889 -0.6145 -0.5239  1.0358
16388TIP3    H170579   4.173   0.538   4.894 -0.6828 -0.8117  0.4875
16388TIP3    H270580   4.090   0.661   4.919 -0.0425 -0.3772  0.5060
16389TIP3   OH270581   2.808   4.645   4.714 -0.1641 -0.1394  0.1642
16389TIP3    H170582   2.818   4.711   4.783 -1.9414 -0.0001  0.3351
16389TIP3    H270583   2.893   4.602   4.709  0.5165  1.0356  1.2248
16390TIP3   OH270584   0.177   5.647  16.337 -0.4302 -0.4433 -0.2520
16390TIP3    H170585   0.231   5.633  16.415 -0.1179  0.4137 -0.3098
16390TIP3    H270586   0.227   5.608  16.266  0.3493  0.7545 -0.3805
16391TIP3   OH270587   1.931   6.062   4.295  0.3883 -0.0323 -0.1443
16391TIP3    H170588   1.931   6.154   4.319 -0.4764 -0.2988  0.9841
16391TIP3    H270589   1.855   6.052   4.237  0.5528 -0.0009 -0.3616
16392TIP3   OH270590   1.268   0.460   2.305 -0.3386 -0.4275  0.4191
16392TIP3    H170591   1.200   0.450   2.372 -0.9048  2.3283  0.3427
16392TIP3    H270592   1.235   0.528   2.247  0.9356 -1.5201 -1.7217
16393TIP3   OH270593   1.705   0.904  13.268 -0.4451  0.1136  0.0606
16393TIP3    H170594   1.611   0.899  13.251 -0.4358  0.6829 -0.1658
16393TIP3    H270595   1.714   0.880  13.360 -0.5501 -2.5004 -0.5181
16394TIP3   OH270596   0.171   0.900   1.916  0.3042 -0.7085 -0.1669
16394TIP3    H170597   0.192   0.981   1.963  2.8144 -1.2856 -0.1458
16394TIP3    H270598   0.075   0.895   1.918  0.1801  0.6667  2.5383
16395TIP3   OH270599   4.569   1.384   6.118 -0.2829 -0.5280 -0.2679
16395TIP3    H170600   4.592   1.291   6.109  3.0525 -0.1870  2.5587
16395TIP3    H270601   4.560   1.397   6.213 -3.3736  1.5751 -0.7246
16396TIP3   OH270602   3.600   3.023   3.041 -0.0502 -0.0351 -0.3247
16396TIP3    H170603   3.645   3.088   2.987 -0.6359  0.4154 -0.2837
16396TIP3    H270604   3.512   3.017   3.003 -0.5908  0.5588  0.7770
16397TIP3   OH270605   5.152   1.439   2.147  0.7236 -0.4103  0.1372
16397TIP3    H170606   5.220   1.458   2.083  1.5019 -1.3484  0.6542
16397TIP3    H270607   5.162   1.345   2.165 -2.8967 -1.4798 -2.3266
16398TIP3   OH270608   6.631   6.117  10.706  0.9508 -0.7057 -0.2148
16398TIP3    H170609   6.578   6.189  10.740 -0.1881 -0.4478 -2.3547
16398TIP3    H270610   6.685   6.089  10.781 -1.3861 -0.2360  1.7678
16399TIP3   OH270611   5.026   4.726   4.824  0.4631 -0.1352  0.1281
16399TIP3    H170612   4.984   4.642   4.807 -2.3103  1.3441 -1.0823
16399TIP3    H270613   4.986   4.757   4.905 -0.7159  1.2084 -0.9205
16400TIP3   OH270614   0.573   4.576   0.207  0.9216  0.0641 -0.1634
16400TIP3    H170615   0.584   4.568   0.112  0.1081  2.5979 -0.5463
16400TIP3    H270616   0.517   4.502   0.230  2.2233 -1.3911 -1.3798
16401TIP3   OH270617   1.376   0.162   4.777 -0.3218 -0.0570 -0.5377
16401TIP3    H170618   1.392   0.244   4.823 -2.3743 -0.5829  1.3416
16401TIP3    H270619   1.325   0.187   4.700 -0.2415  0.5238 -0.4032
16402TIP3   OH270620   1.301   3.287   3.103 -0.0352  0.3496  0.0972
16402TIP3    H170621   1.383   3.239   3.100 -0.1512  0.1145  0.5216
16402TIP3    H270622   1.301   3.342   3.025  0.5764  0.4385  0.1615
16403TIP3   OH270623   2.957   2.140   3.858  0.0325 -0.1858  0.3805
16403TIP3    H170624   2.926   2.220   3.816  0.9003 -0.0588 -0.0519
16403TIP3    H270625   2.903   2.070   3.821  0.1876  0.0391 -0.2830
16404TIP3   OH270626   3.951   6.800   6.422  0.4257  0.1103 -0.0681
16404TIP3    H170627   3.871   6.835   6.461  0.3368  0.6380 -0.7032
16404TIP3    H270628   4.020   6.858   6.451  0.8808 -1.2622  1.8151
16405TIP3   OH270629   5.231   0.785  12.768  0.0183 -0.2224 -0.1216
16405TIP3    H170630   5.141   0.755  12.779 -0.0726 -0.1533 -0.6586
16405TIP3    H270631   5.283   0.704  12.759  0.0119 -0.2616  0.1828
16406TIP3   OH270632   3.280   2.721   5.204  0.0145 -0.6787  0.0244
16406TIP3    H170633   3.351   2.784   5.195 -1.3391  1.2034  1.5525
16406TIP3    H270634   3.215   2.748   5.140  0.1231 -1.6348 -0.5140
16407TIP3   OH270635   3.458   1.560  12.167  0.1470  0.0881  0.1913
16407TIP3    H170636   3.454   1.485  12.227 -0.9417 -0.7232 -0.8509
16407TIP3    H270637   3.529   1.537  12.106  1.3263  0.9610  1.1968
16408TIP3   OH270638   2.183   3.582   6.096  0.5981  0.2719 -0.5021
16408TIP3    H170639   2.212   3.637   6.169 -0.7822  0.8858 -0.3763
16408TIP3    H270640   2.089   3.572   6.110  0.7175 -1.7239 -0.8104
16409TIP3   OH270641   1.515   3.457  13.949 -0.6253 -0.4307 -0.4845
16409TIP3    H170642   1.541   3.407  13.872 -0.9064  0.3368 -1.0845
16409TIP3    H270643   1.485   3.542  13.915  0.9230  0.6058  0.5720
16410TIP3   OH270644   4.242   6.593   3.957  0.6171 -0.1395 -0.2961
16410TIP3    H170645   4.321   6.583   4.010  0.5207  0.5387 -0.0199
16410TIP3    H270646   4.268   6.649   3.885  0.6711 -0.8271 -0.8254
16411TIP3   OH270647   2.966   4.062   2.849 -0.0098 -0.1115  0.4157
16411TIP3    H170648   2.985   4.001   2.777 -0.6210  2.2784 -1.9401
16411TIP3    H270649   3.049   4.068   2.897  0.4827 -1.6522 -0.1698
16412TIP3   OH270650   5.607   0.990   0.590 -0.0910  0.1308  0.0585
16412TIP3    H170651   5.584   0.971   0.499  0.8809  0.7365 -0.3330
16412TIP3    H270652   5.655   1.073   0.585  0.8006 -0.3054  1.0069
16413TIP3   OH270653   4.741   1.178   2.207  0.6568 -0.4414  0.6039
16413TIP3    H170654   4.771   1.219   2.288 -1.2293  0.6635  0.8080
16413TIP3    H270655   4.757   1.243   2.139 -1.4324  0.3445  0.7730
16414TIP3   OH270656   2.821   1.137   3.602  0.0486 -0.0555 -0.4697
16414TIP3    H170657   2.883   1.196   3.645  0.1249 -1.5650  1.6561
16414TIP3    H270658   2.735   1.175   3.619  0.2148  0.5064 -0.8840
16415TIP3   OH270659   3.874   6.331   0.584 -0.2908  0.1577 -0.3135
16415TIP3    H170660   3.871   6.235   0.582 -0.8768  0.1383  0.6288
16415TIP3    H270661   3.833   6.354   0.668 -0.7766  1.2557 -0.8339
16416TIP3   OH270662   2.871   2.091  14.790  0.3020  0.2034  0.3532
16416TIP3    H170663   2.910   2.072  14.705  2.0925  1.0896  0.9402
16416TIP3    H270664   2.801   2.153  14.771  0.3782  0.0307 -0.5179
16417TIP3   OH270665   0.054   3.475  16.716  0.5253 -0.0300 -0.4979
16417TIP3    H170666   0.107   3.400  16.689  0.7780 -0.1565  0.3192
16417TIP3    H270667   0.114   3.531  16.765  0.0934  0.2025 -0.2251
16418TIP3   OH270668   6.149   4.186   1.057  0.3862 -0.1578 -0.3372
16418TIP3    H170669   6.171   4.126   1.128 -2.0136  0.5548  1.1259
16418TIP3    H270670   6.199   4.265   1.077  0.9278 -0.4966 -0.3385
16419TIP3   OH270671   4.290   6.283   2.412  0.3312  0.2726  0.4552
16419TIP3    H170672   4.332   6.260   2.495 -0.5648  0.6897  1.0384
16419TIP3    H270673   4.362   6.308   2.355  0.9141  0.6586  1.3340
16420TIP3   OH270674   3.455   4.072  14.695  0.0172  0.0478 -0.3230
16420TIP3    H170675   3.489   4.086  14.783  1.1453  1.2525 -0.9252
16420TIP3    H270676   3.360   4.077  14.705  0.1524  0.8338  0.7200
16421TIP3   OH270677   6.069   1.044  16.012 -0.2408  0.8023 -0.2766
16421TIP3    H170678   6.024   1.088  15.940 -2.3837  0.9206  1.0482
16421TIP3    H270679   6.025   0.959  16.019  1.2999 -0.0385 -0.3608
16422TIP3   OH270680   2.696   0.311   4.764 -0.6645  0.1545 -0.4756
16422TIP3    H170681   2.790   0.309   4.783 -0.3495  0.0605 -1.9213
16422TIP3    H270682   2.683   0.391   4.713 -0.5416 -1.8311 -3.9356
16423TIP3   OH270683   4.256   1.788   1.452  0.5750 -0.2172  0.1955
16423TIP3    H170684   4.194   1.786   1.379 -0.3345  0.6404  0.9218
16423TIP3    H270685   4.212   1.744   1.524  0.8510  0.2914  0.6850
16424TIP3   OH270686   0.543   6.366   3.370  0.4360  0.1602 -0.4262
16424TIP3    H170687   0.626   6.342   3.411  0.4575 -1.1629 -1.1844
16424TIP3    H270688   0.491   6.403   3.442  0.9853 -0.7800  0.4997
16425TIP3   OH270689   4.863   3.577   0.596 -0.4040 -0.2856  0.1729
16425TIP3    H170690   4.899   3.595   0.683 -1.0129  0.1928  0.3257
16425TIP3    H270691   4.933   3.529   0.551 -0.5666 -1.6767  1.3539
16426TIP3   OH270692   4.045   4.860   3.969 -0.4007 -0.2180 -0.1276
16426TIP3    H170693   3.995   4.935   4.000 -0.4581 -0.2190 -0.2190
16426TIP3    H270694   4.063   4.879   3.877  1.4343  0.7133  0.3654
16427TIP3   OH270695   3.284   0.373   3.267 -0.1212  0.6733 -0.6778
16427TIP3    H170696   3.291   0.389   3.173  1.3290  2.5489 -0.3089
16427TIP3    H270697   3.370   0.396   3.302 -1.3801  2.5256  1.4227
16428TIP3   OH270698   3.353   0.671   1.763  0.0128  0.6218  0.2437
16428TIP3    H170699   3.409   0.596   1.782  0.4273  0.9257  0.2141
16428TIP3    H270700   3.397   0.746   1.803 -0.7549  0.7458  0.8877
16429TIP3   OH270701   5.567   5.098   5.532  0.0446  0.3315 -0.6070
16429TIP3    H170702   5.581   5.192   5.520 -0.4310  0.5492  0.4591
16429TIP3    H270703   5.655   5.061   5.531  0.1526  0.3921 -3.7607
16430TIP3   OH270704   3.191   3.576  12.418 -0.4143  0.7602 -0.0271
16430TIP3    H170705   3.183   3.671  12.422  0.1727  0.8534 -0.7781
16430TIP3    H270706   3.115   3.547  12.368  1.2286  1.2023 -3.0176
16431TIP3   OH270707   4.896   6.058   4.512 -0.2681 -0.7652  0.1663
16431TIP3    H170708   4.978   6.083   4.470 -1.3003  0.0802 -1.4461
16431TIP3    H270709   4.876   5.972   4.475 -0.5783 -0.5473 -0.1780
16432TIP3   OH270710   3.910   0.460  10.362  0.3422 -0.0823  0.3827
16432TIP3    H170711   3.919   0.534  10.303  0.5181 -0.7693 -0.4792
16432TIP3    H270712   3.854   0.492  10.432  0.5185  0.8962  0.0949
16433TIP3   OH270713   2.897   2.482   2.965 -0.2590  0.2293  0.0174
16433TIP3    H170714   2.976   2.491   3.018  0.1384 -1.0017 -0.3323
16433TIP3    H270715   2.929   2.468   2.876 -0.8207 -1.3573  0.0279
16434TIP3   OH270716   5.349   5.818   5.077  0.1429  0.1615  0.5016
16434TIP3    H170717   5.424   5.773   5.037 -0.7618  1.0193 -2.3890
16434TIP3    H270718   5.389   5.889   5.127  1.3271  0.3264 -0.6027
16435TIP3   OH270719   3.779   1.436  16.552  0.4545 -0.2625  0.4418
16435TIP3    H170720   3.745   1.347  16.558 -0.6746 -0.0861 -2.0123
16435TIP3    H270721   3.867   1.425  16.517  0.9735 -0.4622  1.7600
16436TIP3   OH270722   4.556   2.080   2.943 -0.1367 -0.0993 -0.2773
16436TIP3    H170723   4.472   2.119   2.919 -1.2844 -0.8655  2.1716
16436TIP3    H270724   4.558   1.996   2.897 -0.1458  0.4087 -1.2397
16437TIP3   OH270725   0.869   1.581   0.298  0.1607  0.3066  0.2756
16437TIP3    H170726   0.811   1.641   0.252  0.6905  0.8593  0.3012
16437TIP3    H270727   0.940   1.564   0.236 -0.7018 -1.4550 -0.2730
16438TIP3   OH270728   0.354   5.512  11.531 -0.0980 -0.1510 -0.3276
16438TIP3    H170729   0.422   5.566  11.491 -0.5724  0.2144 -0.6644
16438TIP3    H270730   0.272   5.556  11.507 -0.3841  0.3727  1.4766
16439TIP3   OH270731   0.461   5.521  15.833 -0.2325  0.5336 -0.0593
16439TIP3    H170732   0.389   5.461  15.855  0.3380  0.1036  0.7083
16439TIP3    H270733   0.430   5.569  15.757  0.6162 -3.1327 -2.9981
16440TIP3   OH270734   1.021   3.162   4.440  0.0349  0.0038 -0.2819
16440TIP3    H170735   0.996   3.069   4.444  0.0603  0.0045 -0.0617
16440TIP3    H270736   1.084   3.172   4.511  2.6903 -0.5797 -2.4176
16441TIP3   OH270737   4.388   1.185  16.567  0.4392 -0.2666  0.4818
16441TIP3    H170738   4.332   1.109  16.584 -1.9643  1.6517  1.5635
16441TIP3    H270739   4.393   1.190  16.472 -1.8565 -0.1117  0.3182
16442TIP3   OH270740   6.475   5.739  13.222 -0.1696  0.9206  0.2594
16442TIP3    H170741   6.457   5.774  13.309  0.7668  2.0129  0.0437
16442TIP3    H270742   6.469   5.644  13.232  1.0488  0.9564  1.7917
16443TIP3   OH270743   1.487   2.191   6.068  0.1558  0.0718  0.2636
16443TIP3    H170744   1.529   2.275   6.086  2.3231 -0.1325 -2.9699
16443TIP3    H270745   1.528   2.130   6.129  1.3476  0.7028  0.1163
16444TIP3   OH270746   2.650   5.177  11.252 -0.1039  0.0596 -0.7987
16444TIP3    H170747   2.670   5.146  11.341  0.7245  0.9755 -0.6520
16444TIP3    H270748   2.735   5.177  11.208 -0.4067  0.2901 -1.3802
16445TIP3   OH270749   1.200   0.524  15.502  0.4998 -0.1709 -0.4950
16445TIP3    H170750   1.114   0.559  15.528  0.3958 -2.6654  3.3980
16445TIP3    H270751   1.181   0.456  15.438 -0.2798  0.2394 -0.7090
16446TIP3   OH270752   3.416   2.597   3.980 -0.2769 -0.5499  0.1458
16446TIP3    H170753   3.428   2.669   3.918 -1.2493 -1.4064 -1.0898
16446TIP3    H270754   3.325   2.570   3.968 -0.0583 -1.7118  0.8835
16447TIP3   OH270755   5.951   0.145  10.608  0.1291 -0.1688 -0.8857
16447TIP3    H170756   6.032   0.134  10.658 -0.8172 -2.3566  0.3128
16447TIP3    H270757   5.975   0.125  10.518  1.0199 -0.2889 -0.6313
16448TIP3   OH270758   6.226   5.641   0.770 -0.2960  0.3886  0.1006
16448TIP3    H170759   6.169   5.577   0.727  0.1886 -0.1031  0.1608
16448TIP3    H270760   6.174   5.675   0.843 -0.7173  0.3850 -0.1960
16449TIP3   OH270761   4.255   4.766  16.427 -0.0463 -0.7437 -0.1925
16449TIP3    H170762   4.245   4.862  16.422  0.8974 -0.5350  1.4222
16449TIP3    H270763   4.321   4.746  16.361 -0.0161 -0.2519 -0.3203
16450TIP3   OH270764   4.602   5.386   3.828 -0.1445  0.3501 -0.1224
16450TIP3    H170765   4.610   5.292   3.841  0.9689  0.4447  0.0352
16450TIP3    H270766   4.584   5.396   3.735  2.3335  0.0467 -0.7079
16451TIP3   OH270767   1.774   0.689   4.786  0.0418 -0.3583 -0.4861
16451TIP3    H170768   1.860   0.672   4.747  0.1710  0.8018 -0.7278
16451TIP3    H270769   1.794   0.714   4.876 -0.1584 -1.4913 -0.1008
16452TIP3   OH270770   0.805   3.876  16.191 -0.1346  0.2427 -0.6340
16452TIP3    H170771   0.739   3.823  16.235  0.3052  0.6787  0.5768
16452TIP3    H270772   0.861   3.909  16.261  1.1190  0.2425 -1.6018
16453TIP3   OH270773   6.184   2.646  14.005 -0.3285  0.0738  0.4973
16453TIP3    H170774   6.199   2.738  13.981 -1.0742 -0.1255 -0.7904
16453TIP3    H270775   6.109   2.649  14.064  0.5407  0.4061  1.6402
16454TIP3   OH270776   4.198   6.653  14.543  0.8965 -0.0583  0.4721
16454TIP3    H170777   4.144   6.609  14.478  0.5475 -0.4333  1.0014
16454TIP3    H270778   4.181   6.605  14.624  1.3140  0.4030  0.8402
16455TIP3   OH270779   3.823   2.319  11.459  0.4758 -0.4744  0.4757
16455TIP3    H170780   3.800   2.343  11.370  1.4538  0.5013  0.4631
16455TIP3    H270781   3.754   2.358  11.513  0.5907  0.0533  0.2439
16456TIP3   OH270782   0.798   4.676  10.919  0.2305 -0.0672 -0.3988
16456TIP3    H170783   0.763   4.587  10.925 -2.6864  1.0054  0.3164
16456TIP3    H270784   0.796   4.709  11.009 -1.3596  1.5512 -0.9443
16457TIP3   OH270785   1.312   6.047  15.145  0.8371 -0.3939  0.1601
16457TIP3    H170786   1.221   6.075  15.135  1.0280 -0.0090 -0.5106
16457TIP3    H270787   1.358   6.123  15.180  0.8868 -0.6223  0.6062
16458TIP3   OH270788   3.380   1.836  13.401 -0.4777 -0.1187  0.3057
16458TIP3    H170789   3.361   1.908  13.341 -1.3429 -0.0485  0.6519
16458TIP3    H270790   3.347   1.865  13.486 -0.0071 -0.5559  0.6460
16459TIP3   OH270791   2.499   1.226   2.390 -0.7027 -0.4353 -0.4432
16459TIP3    H170792   2.497   1.134   2.419 -0.8014 -0.5134 -0.6947
16459TIP3    H270793   2.482   1.276   2.470  0.4973 -0.5860 -0.0737
16460TIP3   OH270794   3.596   2.206  16.350 -0.4069 -0.0463 -0.5066
16460TIP3    H170795   3.592   2.301  16.364 -0.0830 -0.1262  0.1326
16460TIP3    H270796   3.570   2.195  16.258 -0.9645  0.6138 -0.4388
16461TIP3   OH270797   6.376   4.536   1.837 -0.3586 -0.1258 -0.0092
16461TIP3    H170798   6.392   4.573   1.924 -1.2830 -0.3809  0.2812
16461TIP3    H270799   6.379   4.441   1.851  0.0983 -0.1659 -0.3773
16462TIP3   OH270800   1.121   1.745   3.908  0.3592 -0.1377 -0.2047
16462TIP3    H170801   1.125   1.670   3.968  1.2587 -0.9588 -1.2599
16462TIP3    H270802   1.204   1.790   3.921 -0.5224  1.2371  1.0626
16463TIP3   OH270803   2.135   4.754   0.698  0.2486 -0.5662 -0.1366
16463TIP3    H170804   2.135   4.838   0.746  0.5847 -0.0435 -1.0250
16463TIP3    H270805   2.205   4.703   0.740 -0.6833 -0.8471  1.1317
16464TIP3   OH270806   1.051   3.905   4.811  0.6773 -0.7459 -0.2954
16464TIP3    H170807   0.960   3.876   4.823  0.9950 -2.3809 -1.4422
16464TIP3    H270808   1.047   3.970   4.742  0.4650 -1.6452 -1.1623
16465TIP3   OH270809   4.666   6.689  12.132 -0.5166 -0.3626 -0.1449
16465TIP3    H170810   4.670   6.780  12.161 -1.4461 -0.4303  0.2216
16465TIP3    H270811   4.618   6.644  12.201  1.0639 -1.4124  0.3159
16466TIP3   OH270812   3.474   1.161  14.745  0.3462 -0.5387  0.0636
16466TIP3    H170813   3.511   1.233  14.797 -2.7275  1.6503 -0.4566
16466TIP3    H270814   3.400   1.129  14.798  1.0653 -2.7474 -0.1702
16467TIP3   OH270815   4.680   1.644   0.595  0.3315 -0.0894  0.4607
16467TIP3    H170816   4.625   1.700   0.540  0.7719  0.5685  0.6948
16467TIP3    H270817   4.734   1.595   0.533  0.3670  0.1766  0.2809
16468TIP3   OH270818   0.064   5.825   6.241 -0.3714 -0.1496  0.2519
16468TIP3    H170819   0.104   5.816   6.328 -2.1208 -0.9016  1.0289
16468TIP3    H270820   0.056   5.735   6.210 -3.5575 -0.2959  1.1818
16469TIP3   OH270821   1.052   5.863   0.234  0.1086  0.0215 -0.2471
16469TIP3    H170822   1.101   5.851   0.316  0.6498 -1.1217 -0.7266
16469TIP3    H270823   1.099   5.934   0.189 -0.3202  0.8101  0.5112
16470TIP3   OH270824   4.059   4.801   5.054 -0.6269 -0.0344  0.4072
16470TIP3    H170825   3.998   4.856   5.004 -0.3769 -0.3549 -0.2677
16470TIP3    H270826   4.015   4.717   5.060  0.1260 -0.5516 -0.8981
16471TIP3   OH270827   0.134   4.249  13.363  0.2824 -0.2737  0.5220
16471TIP3    H170828   0.090   4.333  13.378  1.2811  0.6397 -1.3882
16471TIP3    H270829   0.079   4.204  13.299  1.6861  0.6251 -1.4252
16472TIP3   OH270830   4.416   2.749   0.270 -0.6926  0.2756 -0.2507
16472TIP3    H170831   4.416   2.743   0.174 -1.8887  0.0468 -0.2494
16472TIP3    H270832   4.507   2.769   0.292  0.1475 -1.9775 -1.2961
16473TIP3   OH270833   1.868   0.684  12.600  0.1089 -0.0049 -0.5222
16473TIP3    H170834   1.909   0.766  12.627  1.0380 -0.0339 -1.7435
16473TIP3    H270835   1.784   0.710  12.563  0.7150  0.4964 -1.5765
16474TIP3   OH270836   4.216   5.291  15.169  0.4308 -0.0769  0.0755
16474TIP3    H170837   4.234   5.278  15.262  2.3877 -0.2822 -0.2988
16474TIP3    H270838   4.175   5.378  15.165  0.0251 -0.1966  1.1390
16475TIP3   OH270839   0.751   3.748  15.645 -0.1927 -0.4573 -0.7401
16475TIP3    H170840   0.844   3.735  15.626  0.3758  1.5221  0.4156
16475TIP3    H270841   0.737   3.842  15.633 -2.0271 -0.6938 -0.7225
16476TIP3   OH270842   0.327   6.077   0.282 -0.2641 -0.3521 -0.3773
16476TIP3    H170843   0.357   6.015   0.348 -1.5411 -1.8613 -1.1481
16476TIP3    H270844   0.359   6.162   0.313  2.1961 -1.4458  0.3195
16477TIP3   OH270845   2.053   4.528  12.234  0.3500  0.0839 -0.0109
16477TIP3    H170846   2.029   4.503  12.323 -0.0948  0.3215 -0.0594
16477TIP3    H270847   2.147   4.548  12.239  0.4908 -0.6063  0.2388
16478TIP3   OH270848   3.459   0.865   0.539  0.3566  0.5968  0.1618
16478TIP3    H170849   3.388   0.850   0.477 -0.2217  2.1148  0.4150
16478TIP3    H270850   3.431   0.941   0.589  1.2839  0.0228  1.6022
16479TIP3   OH270851   6.055   6.071  13.895  0.0505  0.1776  0.4264
16479TIP3    H170852   6.089   6.131  13.961 -0.5358  0.4268  0.5089
16479TIP3    H270853   5.965   6.054  13.922  0.3833 -1.1944  0.7226
16480TIP3   OH270854   1.880   1.218  16.102  0.1044  0.1577 -0.3618
16480TIP3    H170855   1.931   1.241  16.023  0.8805 -0.7139 -0.1378
16480TIP3    H270856   1.789   1.226  16.074  0.3550  0.7264 -1.0881
16481TIP3   OH270857   0.300   6.679   4.517 -0.2311 -0.1403  0.1706
16481TIP3    H170858   0.297   6.655   4.609  1.7256 -0.4017  0.2079
16481TIP3    H270859   0.321   6.597   4.472 -0.3502  0.1536 -0.4321
16482TIP3   OH270860   2.989   0.177   4.312  0.6662  0.1842  0.2400
16482TIP3    H170861   2.955   0.217   4.392  1.7305  0.7313  0.4397
16482TIP3    H270862   2.936   0.098   4.300 -0.0755  0.5529  1.0021
16483TIP3   OH270863   3.837   4.403  11.719 -0.7481  0.2806  0.1030
16483TIP3    H170864   3.866   4.331  11.775 -1.1635 -0.8727 -1.1052
16483TIP3    H270865   3.902   4.407  11.650 -0.6645  1.1590  0.2259
16484TIP3   OH270866   5.926   5.655  13.523 -0.2719  0.8149 -0.0667
16484TIP3    H170867   5.948   5.734  13.473  0.6159  1.0699  0.7131
16484TIP3    H270868   6.007   5.605  13.526  0.3166  1.7669  2.8595
16485TIP3   OH270869   6.602   6.658  15.181  1.0091 -0.0487  0.1541
16485TIP3    H170870   6.589   6.571  15.218 -0.7979  0.3739  0.5623
16485TIP3    H270871   6.598   6.718  15.256  0.8438  0.5070 -0.2870
16486TIP3   OH270872   4.050   5.452   2.782 -0.4108 -0.1042  0.0062
16486TIP3    H170873   4.132   5.453   2.832  0.7067 -1.8902 -1.6778
16486TIP3    H270874   4.035   5.544   2.760  2.9083  0.0555 -2.2968
16487TIP3   OH270875   1.647   5.551  14.962 -0.5467  0.0746 -0.3182
16487TIP3    H170876   1.705   5.600  15.020 -0.0653  0.0721 -0.7990
16487TIP3    H270877   1.688   5.465  14.953 -0.9576 -0.1425 -0.1457
16488TIP3   OH270878   3.781   1.036  16.824  0.0077 -0.2019 -0.1750
16488TIP3    H170879   3.736   1.079  16.897  1.8779  0.0971  0.8767
16488TIP3    H270880   3.828   0.963  16.865  0.5885 -0.4208 -1.1920
16489TIP3   OH270881   3.029   4.720  16.721 -0.2868 -0.5566  0.0910
16489TIP3    H170882   3.083   4.641  16.724 -0.8960 -0.9640  0.5904
16489TIP3    H270883   2.961   4.700  16.656 -0.3413 -0.3720  0.0903
16490TIP3   OH270884   2.920   5.755   2.132  0.1723 -0.1187 -0.0017
16490TIP3    H170885   2.988   5.728   2.070  0.0277 -0.3598 -0.0545
16490TIP3    H270886   2.858   5.683   2.133 -0.8114  0.6802 -1.0228
16491TIP3   OH270887   2.305   3.743   5.588  0.4017  0.5479  0.9050
16491TIP3    H170888   2.344   3.661   5.618  1.2951  0.7129  0.2680
16491TIP3    H270889   2.316   3.740   5.493 -1.3216  0.5392  0.6828
16492TIP3   OH270890   4.481   4.616  14.761  0.6984  0.1527 -0.2893
16492TIP3    H170891   4.440   4.529  14.760  1.1849 -0.1174  1.2067
16492TIP3    H270892   4.422   4.671  14.709 -0.7632 -0.5613  0.5537
16493TIP3   OH270893   5.169   6.761   3.047 -0.0321  0.0920  0.3595
16493TIP3    H170894   5.244   6.702   3.039  0.1285 -0.1399  2.6832
16493TIP3    H270895   5.208   6.846   3.067 -0.3354  0.6041 -1.0964
16494TIP3   OH270896   0.535   1.938  16.307  0.5179  0.3628 -0.7032
16494TIP3    H170897   0.543   2.032  16.290  1.1438  0.4190 -0.1416
16494TIP3    H270898   0.625   1.905  16.302  0.4023 -0.0577 -0.0667
16495TIP3   OH270899   1.031   3.143   2.081  0.4280 -0.2694  0.3839
16495TIP3    H170900   1.018   3.238   2.083  0.5674 -0.2480  0.3246
16495TIP3    H270901   1.114   3.130   2.127  1.6447 -0.1403 -1.6478
16496TIP3   OH270902   5.645   2.124  10.988  0.7442 -0.1385 -0.1642
16496TIP3    H170903   5.711   2.074  10.940  0.7424 -0.0418 -0.2701
16496TIP3    H270904   5.585   2.155  10.920  0.1033 -0.9435  0.0179
16497TIP3   OH270905   3.471   6.668   5.228  0.1871 -0.4021  0.3453
16497TIP3    H170906   3.464   6.577   5.200  1.2958 -0.7138  1.0101
16497TIP3    H270907   3.461   6.719   5.148  1.3030 -1.1905 -0.3248
16498TIP3   OH270908   0.200   0.194  13.293 -0.0611  0.2511  0.1055
16498TIP3    H170909   0.201   0.246  13.374 -1.6805  1.3901 -0.5461
16498TIP3    H270910   0.285   0.211  13.253  0.5356  0.1275  1.2816
16499TIP3   OH270911   1.818   3.768  16.268  0.1090  0.4920  0.3873
16499TIP3    H170912   1.892   3.743  16.212  0.1549  0.4988  0.4446
16499TIP3    H270913   1.832   3.719  16.349  0.1521  0.6359  0.4671
16500TIP3   OH270914   4.952   3.664  12.972  0.0890 -0.0323  0.1170
16500TIP3    H170915   4.890   3.593  12.955  1.1205 -0.4418 -2.3177
16500TIP3    H270916   5.022   3.650  12.908  1.6057  1.6968  1.3034
16501TIP3   OH270917   1.250   3.080  13.150  0.6111  0.6540 -0.2287
16501TIP3    H170918   1.313   3.012  13.174  1.1744  1.3776  0.3979
16501TIP3    H270919   1.229   3.063  13.058 -0.1238 -1.0357  0.2195
16502TIP3   OH270920   3.533   3.794  12.013 -0.2827 -0.0388 -0.1505
16502TIP3    H170921   3.493   3.827  11.932  0.5461  0.6762 -0.2792
16502TIP3    H270922   3.509   3.701  12.015  1.9274 -0.7946 -2.6538
16503TIP3   OH270923   0.560   1.606   1.478 -0.2705 -0.3876  0.2563
16503TIP3    H170924   0.526   1.526   1.438  0.3726 -0.9439  0.8083
16503TIP3    H270925   0.488   1.669   1.468 -1.5608 -1.5800  1.5770
16504TIP3   OH270926   6.111   3.492  14.489 -0.4421 -0.5310 -0.8794
16504TIP3    H170927   6.028   3.531  14.517 -0.5438  0.1349 -2.0284
16504TIP3    H270928   6.176   3.525  14.551 -0.7163  0.5759 -1.1598
16505TIP3   OH270929   3.506   2.853   1.839  0.1009  0.1977 -0.1021
16505TIP3    H170930   3.457   2.934   1.825 -0.5547 -0.3576 -1.2506
16505TIP3    H270931   3.598   2.878   1.830  0.0141  1.0982  1.2205
16506TIP3   OH270932   6.746   0.821   5.101 -0.0880  0.3179  0.4789
16506TIP3    H170933   6.722   0.797   5.191  0.8727 -1.8698  0.2031
16506TIP3    H270934   6.825   0.875   5.112  0.2699 -0.2859  0.9291
16507TIP3   OH270935   6.123   3.787   1.244  0.6831 -0.2412  0.2602
16507TIP3    H170936   6.105   3.806   1.151 -3.6076 -2.4438  0.3681
16507TIP3    H270937   6.147   3.871   1.282  0.7838  1.0761 -2.4927
16508TIP3   OH270938   0.239   4.728   0.188  0.6361  0.0284 -0.4070
16508TIP3    H170939   0.190   4.657   0.231  1.1347 -0.8288 -1.2254
16508TIP3    H270940   0.192   4.744   0.106 -0.2678  1.6141  0.3503
16509TIP3   OH270941   3.216   1.955  13.588 -0.1477 -0.0020 -0.4044
16509TIP3    H170942   3.169   2.025  13.543  0.7996  1.6543  1.0539
16509TIP3    H270943   3.257   1.998  13.663 -1.7424 -2.6493  2.1743
16510TIP3   OH270944   4.300   1.237   1.943  0.4876 -0.8862 -0.2335
16510TIP3    H170945   4.359   1.182   1.892  1.1115 -2.1148  1.7039
16510TIP3    H270946   4.214   1.223   1.903  1.0682 -1.1463 -1.4428
16511TIP3   OH270947   6.503   4.796   2.951 -0.1123 -0.0610  0.2932
16511TIP3    H170948   6.549   4.818   3.032 -0.2310 -0.0094  0.3457
16511TIP3    H270949   6.520   4.702   2.939  0.0373 -0.0349  0.2941
16512TIP3   OH270950   4.729   3.875  13.006  0.4565  0.0682 -0.0747
16512TIP3    H170951   4.794   3.809  12.981  0.7457  0.3082  0.0323
16512TIP3    H270952   4.681   3.835  13.079  0.0369 -0.3742 -0.5871
16513TIP3   OH270953   2.780   4.443  12.334  0.0932  0.1143  0.5053
16513TIP3    H170954   2.772   4.408  12.245  1.7988  1.6789 -0.3419
16513TIP3    H270955   2.804   4.367  12.388 -1.0966 -0.8814 -0.3155
16514TIP3   OH270956   1.694   2.783  13.031  0.4655  0.5496  0.3457
16514TIP3    H170957   1.767   2.841  13.053 -0.5172  1.6141  0.9089
16514TIP3    H270958   1.616   2.837  13.042 -0.5335 -1.0352  1.4279
16515TIP3   OH270959   1.524   5.824   0.833  0.4041 -0.0086 -0.4933
16515TIP3    H170960   1.577   5.878   0.775 -0.2555  0.0489 -1.0506
16515TIP3    H270961   1.434   5.848   0.814  0.0980 -1.1832 -0.6349
16516TIP3   OH270962   3.657   5.928  12.799  0.3455  0.6248 -0.4383
16516TIP3    H170963   3.611   5.843  12.797  0.5579  0.4999 -2.2003
16516TIP3    H270964   3.746   5.906  12.825  0.8077  0.0258 -2.3426
16517TIP3   OH270965   4.744   2.661  11.264 -0.1027  0.0615  0.2438
16517TIP3    H170966   4.831   2.698  11.247  0.4974 -0.3836  2.0696
16517TIP3    H270967   4.742   2.647  11.359 -0.8044 -3.1998 -0.1124
16518TIP3   OH270968   2.421   6.545   0.594 -0.4759  0.7233 -0.1248
16518TIP3    H170969   2.517   6.548   0.603 -0.2042 -0.7207 -2.0159
16518TIP3    H270970   2.389   6.604   0.662  1.7500  1.0917  0.6824
16519TIP3   OH270971   1.226   1.814  12.993  0.0014 -0.8482 -0.4585
16519TIP3    H170972   1.271   1.813  13.078  0.8394  0.9876 -0.8262
16519TIP3    H270973   1.272   1.748  12.941 -0.1569 -1.5965  0.3396
16520TIP3   OH270974   3.243   1.960  12.353  0.3320 -0.3765 -0.1641
16520TIP3    H170975   3.149   1.966  12.336  0.0188 -2.2524  0.6067
16520TIP3    H270976   3.285   1.994  12.274 -1.0108 -1.3629 -1.3499
16521TIP3   OH270977   6.271   0.588   3.091  0.1112  0.0398 -0.0532
16521TIP3    H170978   6.348   0.645   3.093 -1.7252  2.6935  0.2048
16521TIP3    H270979   6.224   0.609   3.172 -1.4732 -0.6289 -0.7723
16522TIP3   OH270980   1.631   3.328   1.524 -0.1530  0.4559  0.3526
16522TIP3    H170981   1.672   3.408   1.492 -0.0762  1.2979  2.3755
16522TIP3    H270982   1.686   3.300   1.597 -1.8921  0.3631  1.6977
16523TIP3   OH270983   6.279   3.547   0.010 -0.1520 -0.4448 -0.6174
16523TIP3    H170984   6.203   3.598  -0.017  0.9605  1.3192 -0.5937
16523TIP3    H270985   6.245   3.487   0.077 -1.0135  2.6181  1.9645
16524TIP3   OH270986   1.496   1.292   3.681  0.1530 -0.4430  0.2409
16524TIP3    H170987   1.548   1.369   3.706  1.8956 -1.5302  0.1868
16524TIP3    H270988   1.493   1.295   3.586 -0.8635  0.2094  0.2830
16525TIP3   OH270989   2.973   1.697  13.463  0.1357 -0.0305  0.5645
16525TIP3    H170990   2.879   1.683  13.466  0.1074 -0.5145 -1.1670
16525TIP3    H270991   2.999   1.712  13.554 -1.3110 -1.7872  1.3227
16526TIP3   OH270992   3.406   6.027   0.047 -0.2454 -0.5493 -0.0166
16526TIP3    H170993   3.468   6.072   0.104 -0.7107 -1.0933  0.9386
16526TIP3    H270994   3.436   6.046  -0.042 -0.6706  2.0047  0.3128
16527TIP3   OH270995   6.284   5.364  14.747  0.2285 -0.4396  0.0847
16527TIP3    H170996   6.209   5.406  14.706  0.6008 -0.9664 -1.1717
16527TIP3    H270997   6.267   5.371  14.841 -2.0655 -1.7274 -0.1593
16528TIP3   OH270998   3.949   4.760   5.414  0.0915  0.1200  0.1843
16528TIP3    H170999   4.001   4.810   5.351 -0.7306  0.4858 -0.2144
16528TIP3    H271000   4.004   4.756   5.492  0.6084  0.7371 -0.1385
16529TIP3   OH271001   4.906   3.457   5.788  0.3873 -0.1568  0.3737
16529TIP3    H171002   4.978   3.460   5.725 -0.2379 -1.4441 -0.4394
16529TIP3    H271003   4.936   3.396   5.855 -0.0393 -0.8935 -0.0992
16530TIP3   OH271004   5.057   2.580   0.468  0.4050 -0.0812 -0.5385
16530TIP3    H171005   5.027   2.489   0.465 -1.0868  0.4007 -1.2150
16530TIP3    H271006   4.992   2.624   0.523  0.5374  0.7787 -1.0647
16531TIP3   OH271007   0.224   1.158   5.590  0.0323 -0.2185 -0.0599
16531TIP3    H171008   0.138   1.185   5.623  1.2128  0.4184  2.7624
16531TIP3    H271009   0.273   1.240   5.583  1.0378 -0.7757  0.3665
16532TIP3   OH271010   5.150   5.776  14.655 -0.3223  0.0149  0.0495
16532TIP3    H171011   5.072   5.832  14.650 -0.2845 -0.0563 -2.5405
16532TIP3    H271012   5.122   5.692  14.621  0.4105 -0.6288  0.9937
16533TIP3   OH271013   0.019   6.262   0.504  0.3921  0.0883  0.2936
16533TIP3    H171014  -0.001   6.243   0.596 -0.7204 -1.1590 -0.1770
16533TIP3    H271015  -0.054   6.316   0.474 -0.1373 -0.8982 -0.2745
16534TIP3   OH271016   0.954   1.556   0.768  0.3283 -0.0024 -0.1338
16534TIP3    H171017   1.038   1.557   0.721  2.0142 -2.0067  2.5784
16534TIP3    H271018   0.959   1.630   0.828 -0.1828  0.2823 -0.4303
16535TIP3   OH271019   6.440   6.797   1.574  0.2394 -0.1568 -0.0673
16535TIP3    H171020   6.374   6.730   1.592  0.5479 -1.5993 -3.6586
16535TIP3    H271021   6.523   6.752   1.584  0.8726  1.3784  3.3267
16536TIP3   OH271022   4.743   5.025   2.579 -0.1333 -0.3710  0.8021
16536TIP3    H171023   4.703   4.954   2.629 -0.4967  1.2194  2.9063
16536TIP3    H271024   4.812   4.983   2.528 -0.6277 -2.2889  1.6327
16537TIP3   OH271025   2.985   2.031   2.145 -0.4364 -0.2923 -0.1017
16537TIP3    H171026   3.024   2.076   2.220  0.0134  0.6601 -0.8772
16537TIP3    H271027   2.961   1.945   2.178  1.0559 -0.4100  0.7882
16538TIP3   OH271028   5.459   0.591   3.717 -0.2595  0.3759  0.6547
16538TIP3    H171029   5.530   0.648   3.687 -1.9949  2.0653 -0.4305
16538TIP3    H271030   5.399   0.585   3.642 -0.4678 -2.4196  0.9436
16539TIP3   OH271031   1.283   0.238  15.822 -0.3569 -0.2977 -0.4221
16539TIP3    H171032   1.254   0.175  15.756 -1.5946 -0.1336 -0.0679
16539TIP3    H271033   1.361   0.199  15.860  1.0490  0.1132 -2.7245
16540TIP3   OH271034   1.902   4.129   2.353 -0.1249 -0.7085 -0.1478
16540TIP3    H171035   1.808   4.111   2.345 -0.4394  0.4258  0.6958
16540TIP3    H271036   1.942   4.076   2.284 -1.4600 -0.5362 -1.1058
16541TIP3   OH271037   3.552   5.301  11.653  0.2125  0.1570 -0.9073
16541TIP3    H171038   3.620   5.288  11.718  0.7338  1.7245 -1.0920
16541TIP3    H271039   3.594   5.279  11.569 -0.0305 -0.4944 -0.8642
16542TIP3   OH271040   2.667   6.680  16.315 -0.3759  0.2766 -0.2989
16542TIP3    H171041   2.656   6.757  16.260  1.8008  1.3304  0.6085
16542TIP3    H271042   2.582   6.668  16.358 -1.3086  0.9920 -1.8435
16543TIP3   OH271043   1.232   1.845   2.724  0.1063  0.7796 -0.6769
16543TIP3    H171044   1.279   1.894   2.656  1.3677  0.9855  0.3241
16543TIP3    H271045   1.248   1.753   2.702 -1.3522  0.7771 -1.9191
16544TIP3   OH271046   2.146   0.745   5.518  0.1032  0.0414  0.2707
16544TIP3    H171047   2.052   0.724   5.513 -0.4070  1.9108  1.0445
16544TIP3    H271048   2.158   0.776   5.608  1.4237  0.0878  0.0901
16545TIP3   OH271049   0.019   3.571  12.514  0.0957  0.6322  0.2094
16545TIP3    H171050  -0.004   3.663  12.531 -0.5928  0.4552  0.2488
16545TIP3    H271051   0.009   3.560  12.420 -0.9683  0.2921  0.3548
16546TIP3   OH271052   0.877   5.160  12.386  0.0740  0.3476  0.0130
16546TIP3    H171053   0.797   5.197  12.348 -0.5363 -0.8901  0.0535
16546TIP3    H271054   0.929   5.132  12.310 -0.5885 -0.9724  0.0121
16547TIP3   OH271055   3.456   3.088   1.241  0.3018 -0.3919  0.2707
16547TIP3    H171056   3.377   3.041   1.213 -1.5178  2.4235  0.1883
16547TIP3    H271057   3.477   3.145   1.167  0.2947  1.3276  1.5093
16548TIP3   OH271058   3.237   6.540   5.726 -0.3162  0.3414  0.1929
16548TIP3    H171059   3.273   6.612   5.777 -0.0984 -0.0600  0.6133
16548TIP3    H271060   3.295   6.466   5.744 -0.1393  0.2407 -0.7782
16549TIP3   OH271061   1.727   1.802  15.602 -0.1061 -0.2808  0.1587
16549TIP3    H171062   1.725   1.785  15.696 -0.6768  2.7750  0.8110
16549TIP3    H271063   1.798   1.864  15.590 -1.7582  1.5295 -0.9253
16550TIP3   OH271064   0.994   6.525   3.465  0.1710 -0.3022 -0.4024
16550TIP3    H171065   1.083   6.498   3.485  0.5096  0.1823 -1.2314
16550TIP3    H271066   0.939   6.471   3.523  0.9958 -0.5059  0.2085
16551TIP3   OH271067   1.875   3.152  15.910 -0.3450  0.2016 -0.0253
16551TIP3    H171068   1.919   3.237  15.899 -0.5812  0.1850 -1.2520
16551TIP3    H271069   1.933   3.090  15.866 -1.0761  0.0219 -0.7638
16552TIP3   OH271070   6.559   5.274   2.282 -0.1237  0.0745  0.2737
16552TIP3    H171071   6.491   5.233   2.228  0.7839 -0.0520 -0.8264
16552TIP3    H271072   6.640   5.262   2.232  0.9519 -0.9114  2.1391
16553TIP3   OH271073   1.477   1.313   0.461  0.2505 -0.4197 -0.3799
16553TIP3    H171074   1.414   1.271   0.402  1.5771 -1.1521 -1.3304
16553TIP3    H271075   1.488   1.401   0.424  0.4090 -0.5749 -0.7111
16554TIP3   OH271076   4.684   1.397   5.449 -0.5286 -0.8168 -0.4348
16554TIP3    H171077   4.631   1.476   5.452 -0.7130 -0.9175 -1.0307
16554TIP3    H271078   4.726   1.394   5.535 -0.3326  0.0493 -0.4924
16555TIP3   OH271079   6.374   4.910  15.273 -0.4125  0.0241 -0.3695
16555TIP3    H171080   6.461   4.950  15.266 -0.0648 -0.0037  2.5582
16555TIP3    H271081   6.345   4.899  15.182  2.7800 -0.3155 -1.4505
16556TIP3   OH271082   1.755   4.195   5.258 -0.0156  0.5974 -0.0298
16556TIP3    H171083   1.810   4.154   5.325  0.3742 -0.0143 -0.7030
16556TIP3    H271084   1.715   4.269   5.302  1.3678  1.0789  0.4809
16557TIP3   OH271085   4.089   6.275   5.350  0.2073  0.1890  0.0013
16557TIP3    H171086   4.128   6.278   5.263  0.7606  1.0424  0.2731
16557TIP3    H271087   3.996   6.256   5.333  0.1047  1.3507 -0.8368
16558TIP3   OH271088   4.711   0.974   6.017 -0.2238  0.2101 -0.2423
16558TIP3    H171089   4.767   1.047   6.044  0.8447  0.1601 -2.1412
16558TIP3    H271090   4.700   0.922   6.096  2.5223  0.1880  0.2401
16559TIP3   OH271091   5.326   6.809  11.213  0.0264 -0.1338  0.4282
16559TIP3    H171092   5.305   6.799  11.306 -0.9965  3.9566  0.7897
16559TIP3    H271093   5.419   6.830  11.212 -0.5194  2.6422  0.9195
16560TIP3   OH271094   6.167   1.832  12.519 -0.0191 -0.0667  0.6014
16560TIP3    H171095   6.126   1.774  12.455 -1.2955  0.7705  0.6376
16560TIP3    H271096   6.151   1.920  12.486  1.2216  0.3167  0.9537
16561TIP3   OH271097   0.412   5.159   4.851 -0.0835 -0.4093  0.0000
16561TIP3    H171098   0.359   5.167   4.931 -0.4823 -0.3949 -0.2633
16561TIP3    H271099   0.384   5.232   4.796 -0.3402 -0.8384 -0.4534
16562TIP3   OH271100   1.694   3.557   3.498  0.3544 -0.6353  0.1907
16562TIP3    H171101   1.758   3.627   3.484 -0.6357  0.2701  0.1013
16562TIP3    H271102   1.619   3.600   3.539 -0.1363 -1.7140  0.4700
16563TIP3   OH271103   1.995   2.554   5.351 -0.4568  0.0037 -0.5926
16563TIP3    H171104   1.923   2.601   5.395  0.1186  0.2065  0.1576
16563TIP3    H271105   2.040   2.508   5.422  0.1413 -0.1443 -1.0609
16564TIP3   OH271106   1.603   5.050  12.486 -0.0564 -0.2927  0.8844
16564TIP3    H171107   1.698   5.060  12.498 -0.1412  0.2738  1.0853
16564TIP3    H271108   1.569   5.038  12.575 -0.3884  1.3822  1.0050
16565TIP3   OH271109   4.162   3.044   3.563  0.0430 -0.5004  0.3084
16565TIP3    H171110   4.093   3.034   3.628 -1.0406 -2.1902 -1.0305
16565TIP3    H271111   4.225   2.975   3.583  0.6714  0.1476  0.6528
16566TIP3   OH271112   2.968   4.895   2.909 -0.9424  0.2579 -0.1405
16566TIP3    H171113   2.923   4.810   2.907 -0.0374 -0.2624  0.5310
16566TIP3    H271114   2.933   4.942   2.834 -1.1225 -0.8978 -0.8144
16567TIP3   OH271115   1.372   1.968  15.142 -0.4933 -0.2476 -0.0213
16567TIP3    H171116   1.283   2.000  15.124 -0.6563  0.5280  1.9218
16567TIP3    H271117   1.361   1.909  15.217  0.1016 -3.4398 -2.2124
16568TIP3   OH271118   4.353   4.183   3.124 -0.2631  0.3320  0.2188
16568TIP3    H171119   4.430   4.212   3.075 -0.8792 -0.5022 -1.3105
16568TIP3    H271120   4.343   4.248   3.193  1.4029  0.8340  0.0262
16569TIP3   OH271121   1.112   2.378   3.129 -0.0441 -0.3834 -0.2510
16569TIP3    H171122   1.040   2.340   3.079 -0.3778  0.9418 -0.8166
16569TIP3    H271123   1.080   2.464   3.156  1.1359  0.0112 -0.0488
16570TIP3   OH271124   1.136   6.229   4.096 -0.1481 -0.0510  0.1193
16570TIP3    H171125   1.156   6.176   4.173 -2.4351 -0.5164  0.4598
16570TIP3    H271126   1.151   6.320   4.125  1.0292 -0.3256  0.4226
16571TIP3   OH271127   0.168   6.508  12.034 -0.2744  0.2275 -0.7776
16571TIP3    H171128   0.205   6.538  12.117  0.0739  1.8575 -1.4784
16571TIP3    H271129   0.231   6.443  12.002  0.0485  0.2543 -0.2115
16572TIP3   OH271130   5.600   4.230  16.015  0.3059  0.3747  0.9920
16572TIP3    H171131   5.524   4.240  16.072  0.2923  2.4673  0.6739
16572TIP3    H271132   5.568   4.176  15.942 -0.5692  0.3556  1.3742
16573TIP3   OH271133   4.096   4.328  15.789  0.6386 -0.2800 -0.9250
16573TIP3    H171134   4.009   4.365  15.777  1.0871  1.3169  0.3567
16573TIP3    H271135   4.084   4.256  15.850  0.3721  0.8497  0.4009
16574TIP3   OH271136   4.403   2.548  16.820 -0.6647 -0.0763 -0.1760
16574TIP3    H171137   4.400   2.607  16.745 -1.6024  0.4755  0.2748
16574TIP3    H271138   4.476   2.489  16.802 -0.2600  0.6760 -1.0461
16575TIP3   OH271139   2.545   1.346  14.466 -0.0222  0.3769 -1.0103
16575TIP3    H171140   2.628   1.392  14.451 -0.4284  0.5853 -2.8887
16575TIP3    H271141   2.555   1.264  14.419 -0.7735  0.2724 -0.9952
16576TIP3   OH271142   5.721   3.988  12.386 -0.2466  0.1733  0.5833
16576TIP3    H171143   5.628   3.973  12.371 -1.0390  2.4931  2.5299
16576TIP3    H271144   5.736   4.078  12.357  1.1376  0.2060  1.3116
16577TIP3   OH271145   3.439   4.945  13.644 -0.5317  0.2181  0.2069
16577TIP3    H171146   3.403   4.858  13.628 -1.3322 -0.0207  2.7240
16577TIP3    H271147   3.455   4.982  13.557 -0.4868 -2.2884 -0.9231
16578TIP3   OH271148   5.234   3.911   1.122  0.2509  0.7939 -0.1346
16578TIP3    H171149   5.327   3.892   1.130  0.3307  0.8039 -1.0175
16578TIP3    H271150   5.194   3.865   1.196  0.9925  1.1030  0.4688
16579TIP3   OH271151   3.247   3.205  13.509 -0.8118 -1.0309  0.5121
16579TIP3    H171152   3.306   3.133  13.485  0.7697  0.2131  0.5372
16579TIP3    H271153   3.249   3.264  13.433  0.2854  0.4505  1.6381
16580TIP3   OH271154   2.649   0.583   3.808  0.0575  0.3873  0.6506
16580TIP3    H171155   2.641   0.582   3.713  1.1431 -0.5610  0.5482
16580TIP3    H271156   2.670   0.493   3.832 -2.6548 -0.0102  2.0527
16581TIP3   OH271157   0.565   3.148  12.603 -0.1722  0.7083  0.0181
16581TIP3    H171158   0.601   3.096  12.674  0.1654  0.1501 -0.5484
16581TIP3    H271159   0.640   3.171  12.549 -0.5369  0.2915 -0.6890
16582TIP3   OH271160   1.419   5.694  16.216 -0.1034 -0.0115 -0.2754
16582TIP3    H171161   1.424   5.633  16.289 -2.8716 -0.7669 -0.5827
16582TIP3    H271162   1.451   5.645  16.140 -1.9998 -1.0905 -0.4568
16583TIP3   OH271163   2.624   3.280  14.609  0.1138 -0.3879 -0.4383
16583TIP3    H171164   2.692   3.267  14.544  0.8522 -2.1785  0.5978
16583TIP3    H271165   2.604   3.192  14.640 -2.2377  0.1528 -0.2457
16584TIP3   OH271166   6.245   6.039  12.610  0.2857 -0.1927 -0.5531
16584TIP3    H171167   6.291   5.988  12.544 -0.9531 -1.5782 -0.3862
16584TIP3    H271168   6.233   6.125  12.568  3.4240  0.4594 -0.3891
16585TIP3   OH271169   6.104   3.009   6.973  0.2698 -0.3492 -0.6217
16585TIP3    H171170   6.172   3.064   6.933 -1.3847  2.8878  0.6724
16585TIP3    H271171   6.035   3.004   6.907 -0.0773  0.1390 -0.2988
16586TIP3   OH271172   6.363   0.915  12.050  0.8810 -0.0841  0.3468
16586TIP3    H171173   6.274   0.908  12.085  1.2965  0.9986  1.7267
16586TIP3    H271174   6.352   0.948  11.961 -0.1152 -0.6152  0.2622
16587TIP3   OH271175   2.975   0.031   5.744 -0.2224 -0.4699  0.4264
16587TIP3    H171176   3.004   0.039   5.653 -1.0145  0.9991  0.2688
16587TIP3    H271177   3.052   0.054   5.796 -0.6687  2.2949  0.0307
16588TIP3   OH271178   4.354   1.782  16.348  0.0252 -0.2056 -0.1916
16588TIP3    H171179   4.341   1.715  16.414 -0.9469  0.5578  0.4154
16588TIP3    H271180   4.429   1.751  16.296 -0.6241 -1.9247 -0.1581
16589TIP3   OH271181   4.297   2.159  11.578 -0.5982 -0.6054  0.1866
16589TIP3    H171182   4.257   2.140  11.493 -0.8445 -1.2763  0.4462
16589TIP3    H271183   4.238   2.222  11.619 -0.4404 -0.2231 -0.1673
16590TIP3   OH271184   6.727   5.157   2.066  0.3288 -0.5892  0.5587
16590TIP3    H171185   6.663   5.086   2.059  0.0528 -0.2387 -0.7985
16590TIP3    H271186   6.790   5.126   2.131 -0.9676 -1.1333  1.5988
16591TIP3   OH271187   5.633   6.144   5.465 -0.6527  0.6735 -0.0095
16591TIP3    H171188   5.590   6.117   5.546  1.2173 -2.0102  0.2136
16591TIP3    H271189   5.674   6.228   5.486 -0.5639  0.2339  1.6872
16592TIP3   OH271190   6.795   3.947   4.009  0.0854  0.6312 -0.0063
16592TIP3    H171191   6.718   3.984   3.966  0.4093 -0.1862 -1.3531
16592TIP3    H271192   6.856   3.929   3.937  1.4402  1.0171  1.0049
16593TIP3   OH271193   3.166   0.481  15.176 -0.6702 -0.1489  0.0567
16593TIP3    H171194   3.205   0.521  15.099 -1.7067  0.2436 -0.2835
16593TIP3    H271195   3.072   0.485  15.160 -0.9079  0.0215  1.3865
16594TIP3   OH271196   4.823   5.745   3.140 -0.1423  0.2080  0.1335
16594TIP3    H171197   4.852   5.827   3.100  0.6129 -0.8396 -1.5549
16594TIP3    H271198   4.896   5.685   3.129 -0.7734 -0.7920  1.1277
16595TIP3   OH271199   4.889   3.290   0.485 -0.6534  0.6076  0.2357
16595TIP3    H171200   4.916   3.273   0.575  2.8695 -1.7526 -1.0660
16595TIP3    H271201   4.823   3.223   0.466 -0.3378  0.1858  0.6364
16596TIP3   OH271202   1.468   0.165  14.275 -0.2911  0.7435 -0.1614
16596TIP3    H171203   1.427   0.222  14.209  2.0722  2.4710 -0.2269
16596TIP3    H271204   1.398   0.104  14.299 -1.6406  0.8154 -3.3344
16597TIP3   OH271205   0.294   2.345   1.876  0.3495 -0.2205  0.5341
16597TIP3    H171206   0.245   2.267   1.903 -0.1930  0.4103  1.4532
16597TIP3    H271207   0.353   2.314   1.807  0.9790 -1.6953  1.6755
16598TIP3   OH271208   0.916   3.163   2.571  0.1445  0.0090  0.4706
16598TIP3    H171209   0.880   3.184   2.485 -0.0493  2.0920  1.0260
16598TIP3    H271210   1.011   3.161   2.558  0.1448  0.8986  0.3254
16599TIP3   OH271211   1.354   0.205  10.597  0.9957 -0.0214 -0.4636
16599TIP3    H171212   1.343   0.111  10.586 -1.1959  0.0130  0.7977
16599TIP3    H271213   1.301   0.244  10.527 -1.8450  0.1769  1.6196
16600TIP3   OH271214   2.891   6.085  11.739  0.0714 -0.2006 -0.4362
16600TIP3    H171215   2.977   6.069  11.777 -0.5086  0.3096  1.1837
16600TIP3    H271216   2.853   6.153  11.794 -1.0478  0.1688 -1.6268
16601TIP3   OH271217   5.774   1.054   1.886  0.0627  0.4996 -0.8575
16601TIP3    H171218   5.753   1.018   1.800 -1.8470 -0.1557 -0.1724
16601TIP3    H271219   5.869   1.041   1.895  0.1829 -0.0187 -2.5703
16602TIP3   OH271220   6.409   6.657  12.643  0.0474  0.2783  0.6491
16602TIP3    H171221   6.442   6.568  12.632 -2.5887 -0.6907 -0.3199
16602TIP3    H271222   6.465   6.711  12.587  1.0237 -0.9310  0.4156
16603TIP3   OH271223   1.441   4.973  12.269  0.5932  0.3609 -0.1564
16603TIP3    H171224   1.492   5.020  12.203  0.3640  1.1944  0.2417
16603TIP3    H271225   1.494   4.979  12.348  0.2517  0.5364  0.0613
16604TIP3   OH271226   2.133   5.618   6.283 -0.6618 -0.0605 -0.2517
16604TIP3    H171227   2.140   5.631   6.378  0.7654  1.2915 -0.5145
16604TIP3    H271228   2.222   5.596   6.255 -0.9338  0.2452 -1.3801
16605TIP3   OH271229   5.871   5.319  15.500 -0.0416  0.1347 -0.1960
16605TIP3    H171230   5.787   5.364  15.511 -0.0968 -0.3164  1.3960
16605TIP3    H271231   5.872   5.292  15.408 -2.0469 -0.6810 -0.0118
16606TIP3   OH271232   2.415   1.718  13.463  0.1989 -0.3279  0.2421
16606TIP3    H171233   2.329   1.751  13.489  0.4651 -0.1859  0.9593
16606TIP3    H271234   2.416   1.628  13.495 -0.1421 -0.7304 -0.8372
16607TIP3   OH271235   5.380   6.183  11.558 -0.2460  0.0768 -0.0394
16607TIP3    H171236   5.327   6.187  11.638 -0.2553 -0.7683  0.0061
16607TIP3    H271237   5.316   6.174  11.488 -0.2809  1.6091 -0.2329
16608TIP3   OH271238   4.759   6.047  15.014 -0.4135 -0.8011  0.6395
16608TIP3    H171239   4.722   6.092  14.938  2.6456  0.6722 -0.1039
16608TIP3    H271240   4.778   5.958  14.983  1.9370  0.1306 -0.8019
16609TIP3   OH271241   4.160   4.139  16.882 -0.0449  0.3492  0.1350
16609TIP3    H171242   4.142   4.046  16.875 -0.6756  0.5961 -2.5616
16609TIP3    H271243   4.117   4.178  16.806 -0.6137  2.9937  1.6765
16610TIP3   OH271244   2.328   0.217  12.062 -0.1280  0.2813  0.6096
16610TIP3    H171245   2.294   0.305  12.048  1.2449  0.8555  0.7268
16610TIP3    H271246   2.339   0.210  12.157  0.7835  0.4043  0.5256
16611TIP3   OH271247   1.796   6.138  14.864  0.5761 -0.0070  0.2590
16611TIP3    H171248   1.817   6.190  14.787 -0.1178 -0.1530 -0.0342
16611TIP3    H271249   1.830   6.189  14.938  1.8958 -0.2161 -0.1837
16612TIP3   OH271250   2.924   0.891   5.389 -0.1648 -0.1448  0.2498
16612TIP3    H171251   2.905   0.908   5.481 -0.2344 -0.3552  0.2760
16612TIP3    H271252   2.838   0.897   5.346 -0.1555 -0.2007  0.2235
16613TIP3   OH271253   1.392   5.558   0.182 -0.1511  0.1368  0.1521
16613TIP3    H171254   1.401   5.501   0.258  0.3322  1.4249  1.0915
16613TIP3    H271255   1.314   5.525   0.136 -1.5951  0.4677  2.2187
16614TIP3   OH271256   0.623   2.802   5.713 -0.0126 -0.3328  0.1885
16614TIP3    H171257   0.611   2.759   5.798 -0.1185 -0.0937  0.2941
16614TIP3    H271258   0.537   2.796   5.671  0.2187 -1.0756 -0.1943
16615TIP3   OH271259   4.562   4.897   3.632  0.4225  0.3387 -0.3613
16615TIP3    H171260   4.640   4.951   3.616  1.9044 -1.9650 -1.4498
16615TIP3    H271261   4.597   4.815   3.668 -1.6154 -0.3908  0.0760
16616TIP3   OH271262   4.287   3.331   5.323  0.6022  0.0115 -0.1952
16616TIP3    H171263   4.249   3.249   5.291 -0.2837  0.4195 -0.2269
16616TIP3    H271264   4.347   3.358   5.253 -0.4492  0.2963 -1.0073
16617TIP3   OH271265   4.018   5.036   0.597 -0.3939 -0.2654 -0.3955
16617TIP3    H171266   3.943   5.095   0.590 -0.4689 -0.2574  0.3738
16617TIP3    H271267   3.984   4.950   0.573 -0.6152 -0.2360 -0.1841
16618TIP3   OH271268   0.875   6.528   2.075 -0.0872  0.3024  0.3587
16618TIP3    H171269   0.918   6.445   2.094  1.3407  1.2344  1.3887
16618TIP3    H271270   0.856   6.566   2.161 -0.2462  1.2771 -0.0908
16619TIP3   OH271271   2.836   2.098  13.227  0.5230 -0.2779 -0.5888
16619TIP3    H171272   2.818   2.148  13.148 -0.0542  0.3341 -0.0735
16619TIP3    H271273   2.774   2.025  13.223  0.0804  0.0825 -0.4055
16620TIP3   OH271274   5.129   3.348   1.594 -0.5287  0.0713  0.2570
16620TIP3    H171275   5.178   3.266   1.585 -1.2485 -0.2216 -1.4055
16620TIP3    H271276   5.196   3.416   1.587 -0.2210 -0.3377 -1.1431
16621TIP3   OH271277   0.202   0.183  11.826 -0.3752 -0.4872  0.7172
16621TIP3    H171278   0.266   0.249  11.801  0.1208 -1.0406  0.5009
16621TIP3    H271279   0.118   0.217  11.795 -0.2888  0.5296  1.5467
16622TIP3   OH271280   2.728   2.264   4.917  0.3562 -0.2467 -0.1668
16622TIP3    H171281   2.782   2.338   4.889  0.5091 -0.3198 -0.0667
16622TIP3    H271282   2.648   2.305   4.951 -0.3289 -0.2007 -1.7583
16623TIP3   OH271283   6.768   0.991  12.563  0.3043  0.4360  0.5655
16623TIP3    H171284   6.746   0.918  12.505 -0.2323  1.3016 -0.3520
16623TIP3    H271285   6.737   0.963  12.649  1.2847 -0.9523  0.5050
16624TIP3   OH271286   2.251   0.443   6.594  0.3108  0.6568  0.3652
16624TIP3    H171287   2.222   0.531   6.571  1.4036  0.6080 -1.4514
16624TIP3    H271288   2.346   0.446   6.588  0.3702 -0.6387  0.2276
16625TIP3   OH271289   5.424   2.377   1.419 -0.4550 -0.9648  0.0450
16625TIP3    H171290   5.507   2.413   1.450  0.5439 -0.2079 -3.0938
16625TIP3    H271291   5.391   2.442   1.357 -2.5800 -1.9951  0.0035
16626TIP3   OH271292   1.291   1.670  14.382 -0.1828 -0.1431 -0.7357
16626TIP3    H171293   1.293   1.590  14.435 -1.5432  0.5890  0.5089
16626TIP3    H271294   1.363   1.723  14.416 -0.2496 -0.2066 -0.4887
16627TIP3   OH271295   3.075   2.635  13.480 -0.4606  0.1714 -0.3694
16627TIP3    H171296   3.072   2.730  13.472  2.0018  0.4504  0.8779
16627TIP3    H271297   3.112   2.619  13.567 -0.5882 -1.9151 -0.6336
16628TIP3   OH271298   0.999   5.124  13.264  0.1280 -0.4484  0.1147
16628TIP3    H171299   1.068   5.174  13.308 -0.6576  1.3103 -0.5252
16628TIP3    H271300   0.918   5.157  13.303 -0.4810 -0.2378 -1.2692
16629TIP3   OH271301   2.701   1.043   0.818  0.0499  0.7464 -0.9776
16629TIP3    H171302   2.631   1.044   0.884 -0.6739  1.1387 -1.7250
16629TIP3    H271303   2.761   1.112   0.847  1.0476 -0.6870  0.5845
16630TIP3   OH271304   4.572   1.231  16.787  0.4320  0.1451 -0.8300
16630TIP3    H171305   4.598   1.185  16.707  1.2740 -0.8308 -0.0393
16630TIP3    H271306   4.499   1.286  16.761  0.7690 -0.0616 -2.2922
16631TIP3   OH271307   6.806   1.866   1.585  0.0662 -0.0243  0.7571
16631TIP3    H171308   6.802   1.780   1.543 -2.5110 -1.0418  2.8860
16631TIP3    H271309   6.800   1.928   1.512 -0.1750 -1.6511 -0.6627
16632TIP3   OH271310   5.640   3.729  16.779 -0.0002 -0.7868  0.0187
16632TIP3    H171311   5.665   3.651  16.730  2.0203 -1.0433  1.3432
16632TIP3    H271312   5.659   3.802  16.720  1.2152 -1.1478 -0.0566
16633TIP3   OH271313   2.089   3.199  12.095 -0.2083 -0.8221 -0.6964
16633TIP3    H171314   2.018   3.169  12.038 -0.1825  0.2840 -1.3550
16633TIP3    H271315   2.064   3.171  12.182 -1.9629  0.3584 -0.7601
16634TIP3   OH271316   2.459   2.701  15.966  0.1300 -0.5764 -0.0158
16634TIP3    H171317   2.480   2.734  16.053 -0.2495 -1.1420  0.2930
16634TIP3    H271318   2.532   2.730  15.911  0.0162  0.4094  0.3337
16635TIP3   OH271319   6.273   1.248  12.881  0.3386 -0.3230  0.0269
16635TIP3    H171320   6.233   1.162  12.895 -2.9732  1.0050 -0.3557
16635TIP3    H271321   6.238   1.278  12.797  0.6077  1.7961  0.6077
16636TIP3   OH271322   3.603   5.937  13.867  0.1154 -0.2580  0.3617
16636TIP3    H171323   3.521   5.925  13.915  1.2270 -0.9059  2.2283
16636TIP3    H271324   3.667   5.884  13.915  1.7734  0.7291 -0.6336
16637TIP3   OH271325   1.770   6.275   1.967 -0.1852  0.4724  0.7597
16637TIP3    H171326   1.814   6.359   1.979 -1.8376  1.5849 -0.5760
16637TIP3    H271327   1.775   6.258   1.873  1.8790 -2.0062  1.1918
16638TIP3   OH271328   0.480   1.791   1.180  0.3085  0.0847 -0.4747
16638TIP3    H171329   0.498   1.877   1.217  0.8836 -1.0094  1.9779
16638TIP3    H271330   0.385   1.780   1.189  0.6359 -1.0247  2.9884
16639TIP3   OH271331   2.978   5.485  15.155 -0.2759  0.3895  0.2859
16639TIP3    H171332   2.905   5.488  15.094  0.8686 -2.9320 -1.4871
16639TIP3    H271333   2.966   5.402  15.202  1.4247  0.6048  1.1723
16640TIP3   OH271334   3.629   1.624   2.694 -0.5960  0.3882  0.0914
16640TIP3    H171335   3.555   1.577   2.733  0.1048 -0.9604 -0.1471
16640TIP3    H271336   3.630   1.595   2.603  0.4079  0.1633  0.1673
16641TIP3   OH271337   2.641   6.761  12.867 -0.2111 -0.3348  0.2641
16641TIP3    H171338   2.551   6.790  12.851  0.8486  2.2198 -1.9835
16641TIP3    H271339   2.654   6.773  12.961 -1.5816  1.3393  0.2843
16642TIP3   OH271340   5.118   4.679  14.522 -0.2437 -0.5550 -0.1785
16642TIP3    H171341   5.206   4.652  14.546 -0.7831 -2.0265  0.2168
16642TIP3    H271342   5.063   4.649  14.594 -0.8968  1.8215  0.4244
16643TIP3   OH271343   4.285   2.119   0.257  0.2989  0.4688 -0.4294
16643TIP3    H171344   4.220   2.189   0.260  0.4518  0.5916  1.7579
16643TIP3    H271345   4.370   2.163   0.258  0.4491  0.2872 -2.3294
16644TIP3   OH271346   6.164   5.805  10.634 -0.4843 -0.3791 -0.2301
16644TIP3    H171347   6.233   5.752  10.595 -0.9029 -2.5790  1.8220
16644TIP3    H271348   6.205   5.891  10.648  0.7483 -0.6189 -2.0626
16645TIP3   OH271349   4.271   5.815   2.625 -0.5579 -0.1841 -0.7127
16645TIP3    H171350   4.188   5.799   2.670 -1.0314 -0.3034 -1.6010
16645TIP3    H271351   4.298   5.902   2.653 -0.1698 -0.7497  0.7935
16646TIP3   OH271352   5.557   5.810  15.662  0.3075  0.2538 -0.6023
16646TIP3    H171353   5.461   5.806  15.667  0.1845 -0.9559 -2.7446
16646TIP3    H271354   5.587   5.769  15.743 -1.0120 -0.4815 -0.4539
16647TIP3   OH271355   1.280   5.664  15.271 -0.0227  0.1258 -0.8233
16647TIP3    H171356   1.237   5.633  15.191 -0.6702 -1.2695  0.0233
16647TIP3    H271357   1.316   5.585  15.311 -0.0596  0.7435  0.4669
16648TIP3   OH271358   4.380   3.567   2.734  0.3349  0.9451  0.0061
16648TIP3    H171359   4.372   3.586   2.828 -0.5975 -0.7025  0.2926
16648TIP3    H271360   4.405   3.475   2.730 -0.6002  0.7179 -1.3755
16649TIP3   OH271361   5.636   3.242   2.294 -0.3803 -0.0668  0.3630
16649TIP3    H171362   5.688   3.258   2.215 -1.2880  3.0404  0.2718
16649TIP3    H271363   5.546   3.264   2.270 -0.6927  0.9474  2.2283
16650TIP3   OH271364   4.218   2.201   5.652  0.2994  0.4580 -0.3790
16650TIP3    H171365   4.170   2.284   5.654 -2.6290 -0.9332 -2.9153
16650TIP3    H271366   4.178   2.149   5.722  0.5400  0.4264 -0.2646
16651TIP3   OH271367   1.902   2.583  11.825 -0.2034  0.2509 -0.4636
16651TIP3    H171368   1.845   2.514  11.858  0.6013 -1.2140 -1.9579
16651TIP3    H271369   1.988   2.541  11.817  0.6400  1.8366 -0.1261
16652TIP3   OH271370   0.690   0.918  12.885 -0.5266  0.0657  0.6208
16652TIP3    H171371   0.739   0.995  12.916 -0.4342 -0.2692  1.3154
16652TIP3    H271372   0.605   0.953  12.859  0.0041  0.6262 -0.4245
16653TIP3   OH271373   2.026   0.854  15.939  0.2055 -0.0978 -0.4258
16653TIP3    H171374   1.980   0.919  15.887 -0.3897 -0.8140 -0.8097
16653TIP3    H271375   2.086   0.812  15.878  1.6416  1.0325  0.1308
16654TIP3   OH271376   6.382   1.004  12.608 -0.4267  0.5025 -0.0982
16654TIP3    H171377   6.314   1.041  12.550 -0.2792  0.4400 -0.3113
16654TIP3    H271378   6.407   0.922  12.565 -1.5656 -0.4391  0.9506
16655TIP3   OH271379   4.630   3.968   1.370 -0.3660 -0.8314  0.2821
16655TIP3    H171380   4.675   3.893   1.331 -0.5207 -0.4355 -0.6835
16655TIP3    H271381   4.641   4.039   1.306 -2.0729 -0.6393  0.1617
16656TIP3   OH271382   0.496   6.300  11.654  0.1444  0.7602  0.5566
16656TIP3    H171383   0.570   6.337  11.605  0.3764 -1.1814 -0.6705
16656TIP3    H271384   0.421   6.307  11.595  0.1093 -0.2964  0.4441
16657TIP3   OH271385   0.328   1.399   0.424 -0.6953 -0.2499  0.5112
16657TIP3    H171386   0.324   1.339   0.349 -0.3497 -1.5595  1.4875
16657TIP3    H271387   0.267   1.361   0.487  1.0457 -0.7952  1.9638
16658TIP3   OH271388   3.295   0.444  14.666  0.5470 -0.8170  0.4653
16658TIP3    H171389   3.318   0.354  14.686  1.7661 -0.4643  0.7116
16658TIP3    H271390   3.378   0.491  14.663 -0.0831  0.3806  0.7499
16659TIP3   OH271391   6.468   3.842  15.853  0.0722  0.2828 -0.6523
16659TIP3    H171392   6.476   3.747  15.849 -0.9182  0.1150  0.5618
16659TIP3    H271393   6.382   3.860  15.815  0.0348  0.6419 -0.4015
16660TIP3   OH271394   4.701   6.325  12.907  0.3711  0.1397  0.4261
16660TIP3    H171395   4.744   6.399  12.951  0.9761  1.1852 -1.7879
16660TIP3    H271396   4.611   6.355  12.893  0.4172  0.1577  0.1729
16661TIP3   OH271397   1.892   3.918  16.013  0.4362 -0.0495  0.2264
16661TIP3    H171398   1.944   3.894  16.090  0.7614 -0.3371 -0.0780
16661TIP3    H271399   1.860   4.006  16.032 -0.5957 -0.6262  1.2624
16662TIP3   OH271400   5.635   2.642   3.815  0.0813  0.2886  0.2266
16662TIP3    H171401   5.665   2.705   3.750  1.8723 -0.6862  0.0360
16662TIP3    H271402   5.552   2.678   3.847  1.1740  2.9006  0.3714
16663TIP3   OH271403   1.734   5.091  17.049  0.5836 -0.3103 -0.4092
16663TIP3    H171404   1.797   5.076  16.979  1.5555 -1.0333  0.5891
16663TIP3    H271405   1.669   5.021  17.040  1.8951 -1.7427  0.6785
16664TIP3   OH271406   0.592   2.606  12.965  0.2078 -0.2417  0.7752
16664TIP3    H171407   0.506   2.607  12.922  0.4642  2.0617  0.1787
16664TIP3    H271408   0.574   2.569  13.051 -1.0699 -1.2631  0.1175
16665TIP3   OH271409   1.782   0.668  15.554 -0.1370 -0.5969  0.4179
16665TIP3    H171410   1.875   0.690  15.552 -0.4211  0.7377  0.8507
16665TIP3    H271411   1.752   0.695  15.640 -1.4721  1.5326 -0.6269
16666TIP3   OH271412   3.828   3.861   5.061  0.1551 -0.0533  0.1106
16666TIP3    H171413   3.767   3.799   5.021  0.5241 -0.3653  0.0279
16666TIP3    H271414   3.864   3.911   4.988  0.4533 -0.2840  0.0968
16667TIP3   OH271415   5.968   0.108   1.971 -0.1723 -0.2319 -0.1068
16667TIP3    H171416   6.022   0.091   2.048 -1.0430  1.0537  0.8115
16667TIP3    H271417   5.927   0.023   1.952 -0.0684 -0.5194  0.9244
16668TIP3   OH271418   4.714   2.657   3.852 -0.2069  0.2807 -0.3956
16668TIP3    H171419   4.714   2.752   3.844 -2.9543  0.2866 -1.1477
16668TIP3    H271420   4.693   2.625   3.764  0.4855 -1.0299 -0.1156
16669TIP3   OH271421   2.986   1.060   1.240  0.2050  0.4764 -0.6812
16669TIP3    H171422   2.944   1.036   1.323 -0.9006  1.5743 -0.8892
16669TIP3    H271423   2.918   1.106   1.191  1.6413  2.3765 -1.0252
16670TIP3   OH271424   6.580   5.529   2.102 -0.0109 -0.3133  0.6708
16670TIP3    H171425   6.546   5.617   2.089  1.4127  0.1811  0.1457
16670TIP3    H271426   6.675   5.540   2.108  0.3417 -1.9631 -1.0125
16671TIP3   OH271427   0.960   5.092  16.108  0.2563 -0.1536 -0.5330
16671TIP3    H171428   0.893   5.146  16.150 -1.7683 -2.3954 -0.6517
16671TIP3    H271429   0.928   5.079  16.019  0.6599 -1.5110 -0.5072
16672TIP3   OH271430   1.519   5.442   3.359  0.0591 -0.2495 -0.5408
16672TIP3    H171431   1.495   5.424   3.268  0.8432 -0.2264 -0.7569
16672TIP3    H271432   1.453   5.394   3.410 -0.7773  0.2670 -1.1079
16673TIP3   OH271433   6.149   0.158   1.418  0.3986  0.3933  0.6242
16673TIP3    H171434   6.080   0.094   1.431  0.6745 -0.0662 -0.1178
16673TIP3    H271435   6.117   0.237   1.462  0.2904 -0.3939  2.0154
16674TIP3   OH271436   2.126   0.817  13.346 -0.5636 -0.6429 -0.1915
16674TIP3    H171437   2.221   0.806  13.348 -0.2873  1.2049 -1.2431
16674TIP3    H271438   2.095   0.749  13.287  0.3321 -0.0715 -1.3607
16675TIP3   OH271439   5.298   0.431   4.852  0.4956  0.7870 -0.0328
16675TIP3    H171440   5.356   0.502   4.882  0.6966  1.1313 -1.1527
16675TIP3    H271441   5.305   0.364   4.919  2.8692  0.4725 -0.5013
16676TIP3   OH271442   1.880   0.843  13.059 -0.2306 -1.0845  0.1369
16676TIP3    H171443   1.804   0.804  13.016 -0.5397 -0.2765 -0.0840
16676TIP3    H271444   1.844   0.885  13.137 -0.6434  2.0949 -1.5711
16677TIP3   OH271445   1.951   4.137   6.492  0.1991 -0.3909  0.3099
16677TIP3    H171446   1.878   4.075   6.496 -0.4650  0.4232  1.3300
16677TIP3    H271447   2.029   4.083   6.504 -0.4226 -0.9558  2.2404
16678TIP3   OH271448   3.229   3.540  14.067  0.0906  0.1189  0.1811
16678TIP3    H171449   3.239   3.449  14.093 -0.9450 -1.1760 -3.3129
16678TIP3    H271450   3.169   3.578  14.132 -0.0131 -1.8808  1.3190
16679TIP3   OH271451   2.358   4.462  11.172 -0.1013 -0.0313  0.0348
16679TIP3    H171452   2.369   4.526  11.243 -0.2741 -1.4004  1.3520
16679TIP3    H271453   2.325   4.514  11.098 -0.7711  1.3190  1.2232
16680TIP3   OH271454   5.809   2.819  15.314  0.2808  0.0131 -0.2605
16680TIP3    H171455   5.807   2.833  15.409  0.8243 -0.9673 -0.0889
16680TIP3    H271456   5.882   2.873  15.284  0.7369 -0.4234  0.0328
16681TIP3   OH271457   2.307   4.658  13.624  0.1689  0.6009  0.9471
16681TIP3    H171458   2.350   4.737  13.592  2.0859 -0.9657 -0.6420
16681TIP3    H271459   2.306   4.599  13.548 -2.5237 -0.4272  1.6623
16682TIP3   OH271460   5.802   2.686  11.475  0.5882 -0.0651 -0.2667
16682TIP3    H171461   5.735   2.620  11.492 -0.3273  0.1700 -2.6968
16682TIP3    H271462   5.828   2.671  11.384  1.6136  1.8286 -0.3292
16683TIP3   OH271463   0.054   1.378   0.923 -0.0744  0.1654  0.6234
16683TIP3    H171464   0.036   1.333   1.006 -1.7716 -2.4679 -1.0252
16683TIP3    H271465   0.130   1.433   0.942 -0.5466 -0.1158  3.9674
16684TIP3   OH271466   3.382   5.375  16.033  0.7257 -0.1428 -0.0927
16684TIP3    H171467   3.309   5.381  15.972  0.9940  0.3337 -0.3728
16684TIP3    H271468   3.405   5.466  16.052  0.5247 -0.2812  0.8665
16685TIP3   OH271469   1.974   0.575   1.814  0.0631  0.4790  0.2285
16685TIP3    H171470   1.948   0.660   1.776  0.7649  0.7124  0.2564
16685TIP3    H271471   1.891   0.532   1.835 -0.3041  1.2159  0.3331
16686TIP3   OH271472   3.246   4.994   3.868 -0.2478 -0.2615 -0.2771
16686TIP3    H171473   3.301   4.945   3.929 -0.2733  0.4430  0.3203
16686TIP3    H271474   3.299   5.068   3.841 -0.7073  0.1488 -0.0814
16687TIP3   OH271475   1.265   1.215  15.100  0.3977 -0.1393  0.1196
16687TIP3    H171476   1.307   1.299  15.082  0.3090  0.5763  2.8388
16687TIP3    H271477   1.189   1.237  15.154 -3.3182 -1.4304 -3.9558
16688TIP3   OH271478   4.157   6.249  14.558 -0.5944 -0.3884 -0.2499
16688TIP3    H171479   4.106   6.175  14.590 -0.1456 -0.0295  1.4013
16688TIP3    H271480   4.155   6.312  14.630  0.3277  0.5530 -1.0116
16689TIP3   OH271481   2.872   1.375  13.023  0.2120  0.2649  0.1355
16689TIP3    H171482   2.957   1.369  13.065 -0.0625 -0.8142  0.5593
16689TIP3    H271483   2.892   1.386  12.930  0.8288 -0.8287  0.1208
16690TIP3   OH271484   2.862   3.128  12.847 -0.3532 -0.2201  0.3173
16690TIP3    H171485   2.948   3.084  12.846  0.9384  2.0946 -1.7579
16690TIP3    H271486   2.804   3.068  12.800  0.6477 -0.9589 -0.0142
16691TIP3   OH271487   6.332   4.631   6.019 -0.3990 -0.0499 -0.6406
16691TIP3    H171488   6.424   4.642   5.999 -0.2563 -0.1038 -0.0269
16691TIP3    H271489   6.287   4.643   5.935  0.1207  0.4746 -0.8452
16692TIP3   OH271490   3.165   6.032  11.824 -0.0479  0.5850  0.0260
16692TIP3    H171491   3.183   5.974  11.898  0.5829  0.8710  0.1051
16692TIP3    H271492   3.247   6.034  11.775 -0.4726  0.3592 -0.7124
16693TIP3   OH271493   4.516   2.881  15.304 -0.4072 -0.1895  0.0109
16693TIP3    H171494   4.542   2.875  15.396 -0.6286 -1.0296  0.0279
16693TIP3    H271495   4.545   2.798  15.266 -0.4653  0.0880 -0.6357
16694TIP3   OH271496   3.264   1.979  11.482 -0.3593 -0.1295 -0.2641
16694TIP3    H171497   3.220   2.039  11.543  0.2975 -0.8765  0.9937
16694TIP3    H271498   3.218   1.991  11.399 -1.6920  0.4918  0.5250
16695TIP3   OH271499   3.844   1.212   6.223 -0.1048 -0.4795  0.0441
16695TIP3    H171500   3.771   1.202   6.162 -0.0094 -1.7163  0.1112
16695TIP3    H271501   3.904   1.273   6.179  2.0682 -4.4492 -3.2515
16696TIP3   OH271502   3.379   5.658  15.350 -0.0281  0.4993 -0.3041
16696TIP3    H171503   3.442   5.638  15.280  0.0615 -0.7055  0.1037
16696TIP3    H271504   3.433   5.695  15.420 -0.3112  3.2076 -1.4034
16697TIP3   OH271505   0.325   6.133   5.501 -0.3428 -0.3248  0.4005
16697TIP3    H171506   0.344   6.208   5.445 -1.4859  0.7884  1.4443
16697TIP3    H271507   0.338   6.057   5.445  1.3604  0.6175 -0.5374
16698TIP3   OH271508   5.891   0.454  14.363  0.3046 -0.5435 -0.0052
16698TIP3    H171509   5.848   0.489  14.286 -2.2792 -0.4449  1.3714
16698TIP3    H271510   5.845   0.372  14.381  2.1022 -1.5093  0.3972
16699TIP3   OH271511   3.509   1.194   3.332 -0.0573  0.5097  0.3409
16699TIP3    H171512   3.465   1.276   3.309 -1.5418 -0.2765  0.2387
16699TIP3    H271513   3.493   1.136   3.257  0.3524 -0.1057  0.7130
16700TIP3   OH271514   1.981   0.157   6.953 -0.4646  0.0608  0.0977
16700TIP3    H171515   1.901   0.210   6.955  0.6847  1.9208 -0.7383
16700TIP3    H271516   2.038   0.198   7.017 -0.0834 -1.1523  0.5622
16701TIP3   OH271517   4.151   6.515   3.208 -0.2641 -0.8932  0.1357
16701TIP3    H171518   4.058   6.538   3.199  0.4901  2.6422 -0.0290
16701TIP3    H271519   4.166   6.449   3.141 -2.6556 -1.5766  0.1965
16702TIP3   OH271520   1.657   2.479  13.377 -0.0746 -0.1134  0.5976
16702TIP3    H171521   1.647   2.385  13.365 -1.4761  0.0451  0.2774
16702TIP3    H271522   1.751   2.495  13.368  0.0974 -1.3759 -0.1363
16703TIP3   OH271523   3.336   2.862  12.763 -0.1787  0.4589  0.8684
16703TIP3    H171524   3.361   2.808  12.838 -2.7258 -0.8872  0.8342
16703TIP3    H271525   3.416   2.910  12.741  1.6572 -1.7995  2.1535
16704TIP3   OH271526   6.059   6.334  16.590 -0.0469  0.2240  0.3868
16704TIP3    H171527   5.971   6.343  16.552  0.4193 -0.7007 -0.9615
16704TIP3    H271528   6.114   6.390  16.536  0.4705 -0.3959  0.2680
16705TIP3   OH271529   6.443   6.462  12.348 -0.0655 -0.0552  0.4207
16705TIP3    H171530   6.480   6.387  12.302  1.3817  1.4920 -1.1122
16705TIP3    H271531   6.432   6.432  12.438  0.4420 -2.0904 -0.1359
16706TIP3   OH271532   4.046   4.578  13.938  0.1514  0.4584  0.4987
16706TIP3    H171533   4.100   4.527  14.000 -0.0310 -0.1513  0.1657
16706TIP3    H271534   4.097   4.577  13.857  0.8980  2.1591  0.9063
16707TIP3   OH271535   1.455   6.681  14.202 -0.4357 -0.1399 -0.0642
16707TIP3    H171536   1.498   6.674  14.287 -2.0886 -0.2080  0.7995
16707TIP3    H271537   1.382   6.620  14.207  0.3269 -1.3604 -2.1457
16708TIP3   OH271538   5.705   2.458   5.770  0.3506 -0.5396 -0.4844
16708TIP3    H171539   5.770   2.393   5.795  1.0758  0.5668  0.6193
16708TIP3    H271540   5.733   2.487   5.683 -0.6979 -2.5401 -1.5632
16709TIP3   OH271541   0.196   3.232  12.228  1.0617  0.7795  0.1799
16709TIP3    H171542   0.269   3.197  12.280  1.9299 -0.3660 -1.7126
16709TIP3    H271543   0.206   3.327  12.236 -0.2051  0.7551  3.8678
16710TIP3   OH271544   0.977   3.732   5.463  0.1760 -0.4002  0.2036
16710TIP3    H171545   1.008   3.823   5.462  1.0328 -0.6432  2.0230
16710TIP3    H271546   1.052   3.681   5.490 -1.0294 -1.3284  1.9873
16711TIP3   OH271547   4.331   0.103  15.175 -0.3473 -0.0026 -1.0458
16711TIP3    H171548   4.262   0.039  15.191  1.5191 -1.5585  1.3301
16711TIP3    H271549   4.312   0.174  15.237  0.5767 -0.7944  0.1710
16712TIP3   OH271550   3.329   6.307  16.766 -0.2396 -0.2150  0.0517
16712TIP3    H171551   3.363   6.310  16.855 -0.7960 -0.8513  0.2945
16712TIP3    H271552   3.238   6.336  16.774  0.1772  1.3249 -0.5637
16713TIP3   OH271553   0.388   2.721   5.587  0.3094  0.1376 -0.7659
16713TIP3    H171554   0.416   2.710   5.497 -1.8375 -1.3717 -1.3382
16713TIP3    H271555   0.297   2.691   5.588 -0.0801  1.0929  1.6927
16714TIP3   OH271556   2.780   5.648   5.218  0.4659 -0.5063  0.3908
16714TIP3    H171557   2.778   5.692   5.133 -0.8637 -0.6704  0.3099
16714TIP3    H271558   2.842   5.577   5.206 -0.2551 -0.9879 -0.7104
16715TIP3   OH271559   2.980   1.557   5.996  0.2952 -0.1793 -0.4699
16715TIP3    H171560   2.924   1.555   6.073 -0.9955 -0.1562 -1.3677
16715TIP3    H271561   2.936   1.619   5.937  2.5853  1.7625 -0.2688
16716TIP3   OH271562   2.770   3.155   4.637 -0.2059 -0.0489  0.1619
16716TIP3    H171563   2.852   3.190   4.601  1.1362 -0.9795  2.1426
16716TIP3    H271564   2.702   3.198   4.586  1.4913  0.8790 -1.4706
16717TIP3   OH271565   6.447   4.624   2.086  0.3523 -0.0974 -0.1400
16717TIP3    H171566   6.465   4.593   2.175 -2.3013 -1.4288  0.0258
16717TIP3    H271567   6.369   4.679   2.096 -0.9241 -1.5027 -1.7768
16718TIP3   OH271568   4.563   5.273   0.051  0.4700 -0.1996 -0.1713
16718TIP3    H171569   4.609   5.357   0.053  0.9596 -0.4718  0.4009
16718TIP3    H271570   4.554   5.247   0.143 -1.0939 -0.0323 -0.2552
16719TIP3   OH271571   0.803   5.626  15.536 -0.1906  0.4452  0.0592
16719TIP3    H171572   0.809   5.721  15.545 -0.4234  0.5407 -0.7125
16719TIP3    H271573   0.789   5.595  15.625 -0.4048  1.1595  0.2869
16720TIP3   OH271574   2.852   4.384   1.336 -0.7967  0.0616  0.6251
16720TIP3    H171575   2.875   4.292   1.349  1.1271  0.2923 -0.8445
16720TIP3    H271576   2.853   4.396   1.241 -2.2464  1.3411  0.7257
16721TIP3   OH271577   3.028   3.846  14.115  0.2169 -0.1351 -0.0765
16721TIP3    H171578   3.026   3.795  14.034  1.7090  0.7955 -0.7427
16721TIP3    H271579   2.990   3.788  14.181  0.1254 -1.3871 -1.1869
16722TIP3   OH271580   2.128   3.014   2.121 -0.4480 -0.0868  0.2339
16722TIP3    H171581   2.082   3.095   2.102 -0.6285 -0.4688 -1.0834
16722TIP3    H271582   2.064   2.945   2.106 -1.0440 -0.4463  3.6960
16723TIP3   OH271583   6.190   4.824   6.196 -0.1621  0.3379  0.0229
16723TIP3    H171584   6.103   4.813   6.157 -0.4591  1.1003  0.4448
16723TIP3    H271585   6.237   4.743   6.175 -1.1961 -0.3657  0.3606
16724TIP3   OH271586   3.927   5.771  12.050  0.4118  0.0355 -0.0373
16724TIP3    H171587   3.836   5.793  12.029  0.7364 -0.0378 -1.6580
16724TIP3    H271588   3.954   5.838  12.113 -0.8566 -0.1592  0.7511
16725TIP3   OH271589   4.238   4.308  16.262  0.2540 -0.1294  0.3854
16725TIP3    H171590   4.156   4.292  16.308 -0.0513 -0.1773 -0.1727
16725TIP3    H271591   4.277   4.221  16.251  0.0303 -0.1854  0.0118
16726TIP3   OH271592   6.402   1.278   6.118 -0.4256 -0.3651  0.5937
16726TIP3    H171593   6.485   1.242   6.086 -0.1811  0.5856  0.1208
16726TIP3    H271594   6.415   1.373   6.115 -1.3113 -0.2174  1.1235
16727TIP3   OH271595   4.074   4.699  16.842  0.2912  0.0986  0.0048
16727TIP3    H171596   4.147   4.759  16.827 -0.8464  2.1074  1.9119
16727TIP3    H271597   4.004   4.734  16.787 -0.3106  0.4154  0.9580
16728TIP3   OH271598   5.666   2.325   4.147 -0.0139  0.1634 -0.0133
16728TIP3    H171599   5.671   2.260   4.077 -0.7426  0.8073 -0.6755
16728TIP3    H271600   5.583   2.370   4.134  0.8862  1.8840 -0.1571
16729TIP3   OH271601   4.632   4.230   0.509 -0.2175 -0.6882  0.0738
16729TIP3    H171602   4.568   4.278   0.457 -0.9110 -2.9558 -1.3284
16729TIP3    H271603   4.700   4.206   0.446  0.1178 -1.4822  0.7231
16730TIP3   OH271604   5.658   1.777   0.534  0.0763  0.2476 -0.2201
16730TIP3    H171605   5.673   1.866   0.504 -0.8507  0.6059  0.3396
16730TIP3    H271606   5.610   1.787   0.616  3.2586 -0.6473  1.9849
16731TIP3   OH271607   0.232   4.973  13.457 -0.0498  0.4930 -0.0994
16731TIP3    H171608   0.186   5.053  13.434 -0.3513  0.1851 -0.5782
16731TIP3    H271609   0.164   4.912  13.485  0.0544  0.0403 -0.7983
16732TIP3   OH271610   3.704   1.863  12.973 -0.2111  0.0363  0.2998
16732TIP3    H171611   3.798   1.884  12.973 -0.4925  1.5356 -1.5544
16732TIP3    H271612   3.679   1.867  13.066  1.1676  1.5160  0.6466
16733TIP3   OH271613   5.384   4.150   2.614 -0.4023 -0.6125 -0.3630
16733TIP3    H171614   5.409   4.124   2.703  2.0368 -0.3356 -0.8904
16733TIP3    H271615   5.439   4.226   2.596 -0.6569 -0.8331 -2.1931
16734TIP3   OH271616   2.457   6.002   0.663 -0.8540 -0.2706 -0.3076
16734TIP3    H171617   2.531   6.062   0.662 -0.7732 -0.3210  0.9102
16734TIP3    H271618   2.396   6.040   0.727 -0.4671 -1.8298  1.0631
16735TIP3   OH271619   3.795   2.387   3.905 -0.1293  0.7986  1.2821
16735TIP3    H171620   3.793   2.375   3.810 -0.0991  0.7221  1.2914
16735TIP3    H271621   3.887   2.373   3.929  0.4003  3.3510  0.9857
16736TIP3   OH271622   4.960   4.578  12.724 -0.0243 -0.6974  0.3666
16736TIP3    H171623   4.931   4.538  12.805 -0.2713 -3.1008 -0.8038
16736TIP3    H271624   5.023   4.515  12.688  0.5058  0.5736 -1.0251
16737TIP3   OH271625   5.877   0.322  12.360 -0.5519  0.2101 -0.0105
16737TIP3    H171626   5.876   0.403  12.411  2.9033 -0.7158  1.7639
16737TIP3    H271627   5.963   0.285  12.375 -1.3704 -2.9515 -2.2175
16738TIP3   OH271628   5.156   2.452   4.344 -0.0007  0.6358 -0.1768
16738TIP3    H171629   5.108   2.376   4.314  0.1886  0.4092  0.0935
16738TIP3    H271630   5.101   2.490   4.412  0.3929  0.1349  0.4300
16739TIP3   OH271631   1.660   1.012  12.741 -0.1104 -0.0242  0.0884
16739TIP3    H171632   1.708   1.031  12.661 -0.9908 -1.4815 -0.8274
16739TIP3    H271633   1.599   1.086  12.750 -0.4010 -0.1208 -0.9229
16740TIP3   OH271634   2.529   1.388   1.448  0.2544  0.4942  0.0734
16740TIP3    H171635   2.520   1.448   1.522  2.4833  0.1412  0.7127
16740TIP3    H271636   2.539   1.302   1.489 -1.8584 -0.2203 -0.7945
16741TIP3   OH271637   1.374   4.337  16.070 -0.0366  0.1151  0.0264
16741TIP3    H171638   1.449   4.305  16.120  0.2379  0.6540 -0.0326
16741TIP3    H271639   1.329   4.257  16.041  0.4958 -0.2136  0.0820
16742TIP3   OH271640   2.616   6.002   4.860  0.0411  0.0710  0.1690
16742TIP3    H171641   2.666   6.083   4.867  1.7319 -0.6556 -2.2155
16742TIP3    H271642   2.585   6.001   4.769  1.6883 -2.7646 -0.4776
16743TIP3   OH271643   3.193   0.302   0.381 -0.5633  0.1343 -0.2666
16743TIP3    H171644   3.115   0.272   0.334 -0.1064 -0.7128 -0.5001
16743TIP3    H271645   3.214   0.386   0.340  1.3567 -1.7325 -3.4930
16744TIP3   OH271646   0.770   3.427  14.900  0.0982  0.2556 -0.1337
16744TIP3    H171647   0.709   3.394  14.834 -0.4219  0.4623  0.2348
16744TIP3    H271648   0.830   3.483  14.851  0.2613 -0.2860 -0.5708
16745TIP3   OH271649   1.443   4.284   3.514 -0.3816 -0.7046 -0.1778
16745TIP3    H171650   1.520   4.298   3.570 -1.1229  2.2896  0.2685
16745TIP3    H271651   1.462   4.203   3.467  1.7541 -1.5810  1.9803
16746TIP3   OH271652   2.009   2.459   4.224 -0.1776  0.4804  0.1452
16746TIP3    H171653   2.038   2.514   4.150 -0.5251  1.4394  0.7011
16746TIP3    H271654   1.914   2.459   4.217 -0.1703 -1.9079 -1.1346
16747TIP3   OH271655   5.309   2.477   3.103  0.1292 -0.0787 -0.7420
16747TIP3    H171656   5.363   2.403   3.076 -0.5068 -1.0532  0.5400
16747TIP3    H271657   5.276   2.514   3.021  1.8031 -0.1368 -1.4976
16748TIP3   OH271658   2.051   0.571   0.012 -0.5821 -0.2338 -0.1368
16748TIP3    H171659   2.091   0.639  -0.041 -1.6549  0.1509 -0.4825
16748TIP3    H271660   2.119   0.504   0.022  0.4914  0.8707  0.2069
16749TIP3   OH271661   6.404   0.421  10.904  0.1035 -0.1832 -0.1910
16749TIP3    H171662   6.316   0.420  10.867  0.0383  1.2519 -0.0975
16749TIP3    H271663   6.427   0.328  10.912 -1.1776 -0.5672 -0.7171
16750TIP3   OH271664   4.378   0.678  13.479  0.2494 -0.3041 -0.2596
16750TIP3    H171665   4.433   0.614  13.526 -0.9034  0.5105  2.3834
16750TIP3    H271666   4.389   0.759  13.528 -2.3409  0.1793 -0.3388
16751TIP3   OH271667   0.544   5.003  11.538 -0.1698 -0.0808  0.5713
16751TIP3    H171668   0.554   5.040  11.450 -1.3855 -1.3568 -0.1493
16751TIP3    H271669   0.550   4.908  11.525 -0.7119 -0.3052  1.8065
16752TIP3   OH271670   5.182   5.053  16.519 -0.2371 -1.0624  0.2337
16752TIP3    H171671   5.245   4.997  16.474  1.3231  0.0209  0.9649
16752TIP3    H271672   5.162   5.122  16.455  0.9164 -0.2899  0.6723
16753TIP3   OH271673   5.990   4.992   4.791  0.6028  0.0678 -0.3559
16753TIP3    H171674   5.961   5.032   4.874 -1.7398 -3.1232  0.5688
16753TIP3    H271675   5.908   4.968   4.747  1.7816 -3.1659 -1.0148
16754TIP3   OH271676   0.164   2.979  13.164  0.0627 -0.1646 -0.5511
16754TIP3    H171677   0.117   3.061  13.178  1.1764  0.9106 -2.6883
16754TIP3    H271678   0.204   2.961  13.249 -2.6771 -0.1999  0.8290
16755TIP3   OH271679   0.207   1.839  16.143 -0.2504 -0.5327  0.1224
16755TIP3    H171680   0.144   1.874  16.207  0.7402  1.0186  0.3130
16755TIP3    H271681   0.155   1.780  16.088 -1.2449 -1.5901  2.0589
16756TIP3   OH271682   1.954   6.779  15.577 -0.6566 -0.4518  0.2309
16756TIP3    H171683   1.900   6.702  15.594  3.0160 -3.1681  0.8924
16756TIP3    H271684   1.983   6.808  15.663 -0.1274  0.1981 -0.1567
16757TIP3   OH271685   3.346   4.224   1.551  0.0708 -0.2327 -0.9394
16757TIP3    H171686   3.428   4.251   1.593 -0.8795 -0.9296  1.5831
16757TIP3    H271687   3.367   4.219   1.458  2.7870 -0.0282 -0.4278
16758TIP3   OH271688   1.157   0.076   6.107 -0.6670  0.1089 -0.0479
16758TIP3    H171689   1.163   0.046   6.017 -1.2143  0.9497 -0.3781
16758TIP3    H271690   1.134  -0.002   6.157  2.4297 -1.0427 -0.1817
16759TIP3   OH271691   0.078   0.119   0.999  0.0084  0.5808 -0.1199
16759TIP3    H171692   0.117   0.032   0.996 -0.7644  0.2086  0.3524
16759TIP3    H271693  -0.016   0.103   1.005 -0.0254  1.3920  2.5047
16760TIP3   OH271694   0.584   4.921  17.019 -0.0945 -0.4978  0.7203
16760TIP3    H171695   0.647   4.860  16.981 -0.3193 -2.4477  3.2143
16760TIP3    H271696   0.502   4.871  17.023 -0.1802 -0.2467  3.2141
16761TIP3   OH271697   6.215   1.967  14.958  0.2894 -0.4985 -0.0272
16761TIP3    H171698   6.286   2.022  14.926 -0.0630 -0.3929 -0.6305
16761TIP3    H271699   6.143   2.027  14.975  0.5840 -0.4894  1.3647
16762TIP3   OH271700   0.633   5.555  16.599  0.5748 -0.1347  0.2753
16762TIP3    H171701   0.696   5.598  16.540 -0.6725  0.5094 -0.6398
16762TIP3    H271702   0.687   5.515  16.667  2.1959 -1.6496 -1.7316
16763TIP3   OH271703   3.830   3.121  16.652 -0.2117  0.6029  0.1757
16763TIP3    H171704   3.926   3.115  16.653 -0.1182  0.5967  3.7575
16763TIP3    H271705   3.811   3.206  16.613  1.2721  0.7982 -0.1749
16764TIP3   OH271706   0.554   6.322  16.211 -0.0096 -0.5900  0.4225
16764TIP3    H171707   0.546   6.321  16.116  0.0587  1.2306  0.3660
16764TIP3    H271708   0.525   6.410  16.237  1.8173 -0.3584  1.9026
16765TIP3   OH271709   0.031   3.706  13.048  0.2704  0.4890 -0.0653
16765TIP3    H171710  -0.049   3.740  13.009 -0.8666 -0.6229  1.2283
16765TIP3    H271711   0.071   3.782  13.091 -0.2928  0.9647 -0.3790
16766TIP3   OH271712   0.264   5.315  10.970 -0.5751 -0.2580  0.3406
16766TIP3    H171713   0.329   5.326  10.901 -0.8002  0.1502  0.1895
16766TIP3    H271714   0.188   5.278  10.924 -0.3349 -1.0697  0.5785
16767TIP3   OH271715   6.630   0.787  10.865  0.3630 -0.1122 -0.3123
16767TIP3    H171716   6.597   0.827  10.785  1.2339 -0.4908 -0.8722
16767TIP3    H271717   6.709   0.741  10.838  0.1950 -0.9647  0.6043
16768TIP3   OH271718   2.147   1.395  12.830  0.0024  0.5710  0.6456
16768TIP3    H171719   2.109   1.474  12.868 -0.2877 -0.5582  2.9351
16768TIP3    H271720   2.237   1.393  12.865  0.9717  1.2420 -1.6231
16769TIP3   OH271721   0.540   6.005  15.974 -0.0868 -0.2941  0.0142
16769TIP3    H171722   0.453   5.965  15.968 -1.3989  2.1669  1.2098
16769TIP3    H271723   0.523   6.098  15.987  2.7506  0.2619  0.3893
16770TIP3   OH271724   0.491   6.486  14.244 -0.5897 -0.2449  0.0063
16770TIP3    H171725   0.582   6.490  14.274 -1.2058  2.1819  1.8975
16770TIP3    H271726   0.469   6.392  14.247  1.6608 -0.8381 -0.0264
16771TIP3   OH271727   2.122   5.366   0.331  1.3268  0.1536 -0.2386
16771TIP3    H171728   2.074   5.440   0.294 -0.7294 -0.3731  1.2235
16771TIP3    H271729   2.125   5.383   0.425 -0.0773 -2.0293  0.2846
16772TIP3   OH271730   4.376   0.937  13.191  0.3328 -0.5511 -0.4785
16772TIP3    H171731   4.461   0.981  13.199  0.2236 -0.6301  1.7693
16772TIP3    H271732   4.398   0.844  13.184  0.4475 -0.6617  1.0542
16773TIP3   OH271733   1.244   3.390  16.540  0.3495  0.4983  0.1033
16773TIP3    H171734   1.193   3.424  16.466 -0.5195 -1.8528 -0.4608
16773TIP3    H271735   1.330   3.371  16.502  0.7783  1.7695  0.3770
16774TIP3   OH271736   6.343   4.330  10.752 -0.2065  0.4998  0.1484
16774TIP3    H171737   6.284   4.255  10.762  0.2767 -0.2068 -1.7741
16774TIP3    H271738   6.296   4.403  10.793 -1.7554 -0.3491 -0.0288
16775TIP3   OH271739   3.450   2.389   2.942 -0.3353  0.1747  0.2425
16775TIP3    H171740   3.541   2.379   2.914 -0.9622 -1.4962 -1.3826
16775TIP3    H271741   3.407   2.431   2.867 -0.9550  0.8302  0.9496
16776TIP3   OH271742   6.108   2.344  11.756 -0.2723 -0.8052 -0.3778
16776TIP3    H171743   6.090   2.251  11.764  0.6834 -1.2271 -2.4478
16776TIP3    H271744   6.203   2.349  11.749 -0.2123  0.4653  0.8407
16777TIP3   OH271745   3.036   1.805   4.569  0.2137  0.9891 -0.0568
16777TIP3    H171746   3.011   1.878   4.625 -1.7832  0.1536  0.2377
16777TIP3    H271747   2.968   1.803   4.502  1.2726  0.5220 -1.1464
16778TIP3   OH271748   1.414   3.177   6.000  0.3985  0.1437  0.1669
16778TIP3    H171749   1.388   3.184   5.908  2.2187 -3.1144 -0.7609
16778TIP3    H271750   1.340   3.133   6.042  0.0719  0.5242  0.0001
16779TIP3   OH271751   3.878   0.178   1.678  0.2948 -0.4054  0.5278
16779TIP3    H171752   3.903   0.261   1.719 -1.2595  0.6206 -0.4988
16779TIP3    H271753   3.787   0.164   1.705 -0.3237 -0.3915 -1.3834
16780TIP3   OH271754   3.799   3.094  12.563  0.0211  0.0317  0.4839
16780TIP3    H171755   3.724   3.114  12.508  1.2535  2.0613 -0.5727
16780TIP3    H271756   3.862   3.051  12.504  0.2633 -0.3411  1.0001
16781TIP3   OH271757   6.572   1.437  15.438  0.1002  0.2083  0.3127
16781TIP3    H171758   6.508   1.454  15.508 -0.9193  0.5875 -0.6757
16781TIP3    H271759   6.572   1.342  15.428 -0.5136  0.2228  0.1428
16782TIP3   OH271760   2.974   5.511  14.767 -0.0182 -0.3118 -0.7495
16782TIP3    H171761   2.891   5.485  14.729 -0.9411  0.1604  0.8132
16782TIP3    H271762   3.006   5.581  14.710 -1.3288  0.3595 -0.6953
16783TIP3   OH271763   6.400   2.253   5.263 -0.0521  0.5446  0.5681
16783TIP3    H171764   6.340   2.253   5.188  0.5468  1.2358  0.0763
16783TIP3    H271765   6.380   2.172   5.309 -0.4143  0.0840 -0.3600
16784TIP3   OH271766   4.467   5.525  10.796  0.1935  0.0856 -0.2405
16784TIP3    H171767   4.556   5.489  10.799 -0.0892 -0.7342  3.6772
16784TIP3    H271768   4.469   5.600  10.856 -1.2023  1.6840 -2.0783
16785TIP3   OH271769   6.822   1.869   4.629  0.0583 -0.5048  0.3220
16785TIP3    H171770   6.867   1.904   4.552  1.1347 -1.1478  0.6392
16785TIP3    H271771   6.892   1.851   4.691 -0.4343 -3.0790  0.2294
16786TIP3   OH271772   5.149   0.053  11.730 -0.0586  0.1283 -0.4204
16786TIP3    H171773   5.243   0.058  11.751  0.0907 -0.2378 -0.9588
16786TIP3    H271774   5.106   0.053  11.815  0.4125  0.6568 -0.1744
16787TIP3   OH271775   2.670   2.254  14.295  0.3162  0.0336 -0.1580
16787TIP3    H171776   2.645   2.188  14.231  2.9407 -2.0787  0.7770
16787TIP3    H271777   2.654   2.213  14.380  0.2728  1.3609  0.5062
16788TIP3   OH271778   3.506   2.271   4.788  0.8126 -0.3142  0.2111
16788TIP3    H171779   3.563   2.298   4.715  2.0221 -1.1821  0.8073
16788TIP3    H271780   3.443   2.212   4.748  0.4905  0.4214 -0.4037
16789TIP3   OH271781   5.410   4.890   1.953 -0.0516 -0.4125 -0.5956
16789TIP3    H171782   5.410   4.831   2.028  0.7139 -2.1833 -1.9062
16789TIP3    H271783   5.479   4.855   1.896 -1.6896 -0.1299 -2.8648
16790TIP3   OH271784   2.894   2.447   0.729  0.3253  0.6535  0.1262
16790TIP3    H171785   2.880   2.447   0.634 -1.3426  1.7724  0.3391
16790TIP3    H271786   2.989   2.449   0.739  0.5717 -0.4320 -1.4989
16791TIP3   OH271787   4.382   0.041   1.076  0.1127  0.5719 -0.1418
16791TIP3    H171788   4.376   0.084   1.161  0.6326  0.9475 -0.2915
16791TIP3    H271789   4.452   0.087   1.030 -0.2931  0.5013 -0.8529
16792TIP3   OH271790   4.727   6.208   5.606 -0.6261  0.2689 -0.3533
16792TIP3    H171791   4.697   6.299   5.600  2.7218  1.5169 -0.5761
16792TIP3    H271792   4.764   6.202   5.695 -0.9165 -0.9363 -0.3044
16793TIP3   OH271793   5.971   1.676   1.029 -0.1756 -0.0972  0.0873
16793TIP3    H171794   5.956   1.768   1.007  0.3801 -0.0945 -0.2865
16793TIP3    H271795   6.042   1.648   0.971 -0.2195 -0.7126  0.3218
16794TIP3   OH271796   3.535   6.181   3.276  0.1072  0.1610  0.5511
16794TIP3    H171797   3.600   6.248   3.255  1.4751 -1.3434 -0.2989
16794TIP3    H271798   3.586   6.111   3.317 -1.1670 -0.6555  0.8095
16795TIP3   OH271799   5.294   5.481   3.785  0.2519  0.3548  0.4705
16795TIP3    H171800   5.314   5.511   3.697 -2.0217  0.6673  0.0076
16795TIP3    H271801   5.254   5.395   3.773 -0.4366  0.5652  1.1520
16796TIP3   OH271802   6.380   2.761  10.522 -0.0786  0.2604  0.0430
16796TIP3    H171803   6.429   2.686  10.556  1.0086  1.0308  0.2310
16796TIP3    H271804   6.303   2.722  10.482  0.3100 -0.9409  0.3946
16797TIP3   OH271805   0.600   2.854   2.437  0.5653  0.5304 -0.0175
16797TIP3    H171806   0.691   2.835   2.459  0.6135  1.2074  0.4039
16797TIP3    H271807   0.564   2.896   2.516  0.1650  1.1557 -0.5195
16798TIP3   OH271808   2.388   4.622   2.017 -0.2225  0.8165  0.2556
16798TIP3    H171809   2.314   4.669   2.056  1.4255  2.9514  1.0408
16798TIP3    H271810   2.392   4.539   2.064 -0.5804  1.7656  2.0472
16799TIP3   OH271811   4.691   5.268   0.843 -0.2410  0.2357 -0.0018
16799TIP3    H171812   4.748   5.314   0.903 -0.9881  0.5576  0.4786
16799TIP3    H271813   4.636   5.336   0.804  0.2777  0.0399 -1.1043
16800TIP3   OH271814   5.023   4.624   6.079 -0.2667 -0.7601  0.0559
16800TIP3    H171815   4.958   4.680   6.123 -1.2452 -1.7872 -0.0409
16800TIP3    H271816   5.029   4.547   6.135  0.0336 -1.1599 -0.5217
16801TIP3   OH271817   0.884   0.383   1.903 -1.0514 -0.8983  0.3233
16801TIP3    H171818   0.960   0.335   1.871  0.0491 -0.0795  1.5646
16801TIP3    H271819   0.889   0.372   1.998 -2.1990 -0.4037  0.4460
16802TIP3   OH271820   3.784   0.812  12.033  0.1136  0.4403  0.3016
16802TIP3    H171821   3.689   0.815  12.035  0.0920 -0.0785  0.1271
16802TIP3    H271822   3.810   0.776  12.118  0.2157  1.7404  0.8520
16803TIP3   OH271823   1.554   6.022  11.309  0.0654 -0.3273  0.1750
16803TIP3    H171824   1.469   6.041  11.270 -0.3822  1.6222  1.8965
16803TIP3    H271825   1.617   6.061  11.249 -0.5892  2.4526  1.1456
16804TIP3   OH271826   6.646   0.477  14.631  0.4498 -0.0925 -0.5669
16804TIP3    H171827   6.687   0.555  14.669 -0.7504  0.6644 -0.7521
16804TIP3    H271828   6.716   0.434  14.583  1.5982 -0.1815  1.1114
16805TIP3   OH271829   1.465   4.135   2.752  0.7258 -0.3828 -0.4745
16805TIP3    H171830   1.402   4.077   2.707 -0.5832 -1.1485  2.1340
16805TIP3    H271831   1.419   4.218   2.759 -1.0353 -1.4623  3.1520
16806TIP3   OH271832   6.353   6.010  10.730 -0.0839  0.2368 -0.0414
16806TIP3    H171833   6.441   6.042  10.706 -0.5254  1.1075 -0.5518
16806TIP3    H271834   6.315   6.081  10.781 -1.1586  0.6609 -1.3680
16807TIP3   OH271835   5.233   6.811  15.158 -0.3685 -0.6646  0.2845
16807TIP3    H171836   5.261   6.727  15.195  0.6663  0.2542  1.6899
16807TIP3    H271837   5.213   6.865  15.235  0.9583  1.0146 -0.4874
16808TIP3   OH271838   1.958   0.124  16.081 -0.2278  0.1078  0.1087
16808TIP3    H171839   1.908   0.049  16.049  0.5013  0.6034 -2.3661
16808TIP3    H271840   1.953   0.188  16.010  0.3546  1.8691  1.5797
16809TIP3   OH271841   5.242   4.915  12.594  0.0137 -0.0874 -0.0205
16809TIP3    H171842   5.267   4.989  12.649  1.7014 -1.6389  1.4235
16809TIP3    H271843   5.299   4.922  12.517 -0.4502  0.5704 -0.3164
16810TIP3   OH271844   5.184   3.870  11.117 -0.1969 -0.0721  0.2965
16810TIP3    H171845   5.200   3.914  11.033  1.1595 -1.8832 -0.4482
16810TIP3    H271846   5.270   3.842  11.147 -0.9606 -2.1541  0.7419
16811TIP3   OH271847   0.621   2.170  12.314  0.3421 -0.1219 -0.8136
16811TIP3    H171848   0.702   2.161  12.263  0.4806 -2.5509 -0.2932
16811TIP3    H271849   0.635   2.114  12.391 -0.5995  1.9502  0.9620
16812TIP3   OH271850   4.215   0.513   3.117  0.3985 -0.0427 -0.4438
16812TIP3    H171851   4.167   0.476   3.191  3.5505  1.4898  2.6615
16812TIP3    H271852   4.297   0.462   3.114  2.4387  2.9475  0.4175
16813TIP3   OH271853   0.933   3.725  11.793  0.1575 -0.0130  0.0253
16813TIP3    H171854   0.850   3.762  11.823 -0.1027 -0.2409 -0.4011
16813TIP3    H271855   0.976   3.694  11.872 -0.8149 -1.2211  0.1123
16814TIP3   OH271856   6.405   6.094  11.313 -0.3132  0.5758 -0.0029
16814TIP3    H171857   6.367   6.178  11.288  0.3173  0.7221 -0.4805
16814TIP3    H271858   6.429   6.106  11.405  0.3556  1.1343 -0.2456
16815TIP3   OH271859   6.216   1.522  13.787 -0.4474 -0.0864  0.4918
16815TIP3    H171860   6.177   1.443  13.752  0.5530  0.0742 -1.0908
16815TIP3    H271861   6.230   1.578  13.710 -1.3868  1.7577  1.5842
16816TIP3   OH271862   0.335   2.623  12.858  0.1311  0.2581  0.0941
16816TIP3    H171863   0.278   2.676  12.913  0.6458  2.0341 -1.0046
16816TIP3    H271864   0.285   2.543  12.842 -0.9360  0.6505  1.2769
16817TIP3   OH271865   1.266   5.718   2.962  0.1232  0.5031  0.1583
16817TIP3    H171866   1.342   5.681   3.007 -0.3397 -1.8029 -0.8187
16817TIP3    H271867   1.194   5.660   2.985 -0.9537  1.5414 -0.4845
16818TIP3   OH271868   0.712   5.103   0.128  0.0976 -0.3562  0.0867
16818TIP3    H171869   0.654   5.061   0.064 -0.0317  1.9130 -1.4369
16818TIP3    H271870   0.798   5.104   0.085 -0.7659  5.2547 -2.5726
16819TIP3   OH271871   6.679   3.811  11.377 -0.6695  0.3824  0.2414
16819TIP3    H171872   6.769   3.827  11.405 -0.0357 -0.9238 -0.9137
16819TIP3    H271873   6.640   3.762  11.449 -0.3915  0.7226  0.6325
16820TIP3   OH271874   3.567   3.510   6.094 -0.0966 -0.3996  0.6792
16820TIP3    H171875   3.591   3.531   6.185  0.4475 -0.2323  0.4963
16820TIP3    H271876   3.641   3.462   6.060 -0.7292 -1.3668  0.6320
16821TIP3   OH271877   3.744   2.425  12.683 -0.0812 -0.1041 -0.5550
16821TIP3    H171878   3.737   2.432  12.778  0.5977 -1.4868 -0.3684
16821TIP3    H271879   3.667   2.376  12.656 -1.4412  2.1565 -1.0340
16822TIP3   OH271880   1.964   5.648   0.452 -0.7405 -0.5206 -0.3649
16822TIP3    H171881   1.915   5.603   0.384 -1.7334  0.5023 -0.3459
16822TIP3    H271882   2.054   5.650   0.420 -1.1165 -0.4525 -1.4431
16823TIP3   OH271883   2.996   2.055  11.663  0.2048  0.5725 -0.0645
16823TIP3    H171884   2.979   2.075  11.571 -0.4713  0.3376  0.0026
16823TIP3    H271885   2.942   2.117  11.711 -4.8089 -3.3544  0.1802
16824TIP3   OH271886   4.248   0.965  14.314  0.3368  0.3740  0.6902
16824TIP3    H171887   4.307   0.945  14.386 -0.4551 -2.0157  0.7781
16824TIP3    H271888   4.258   0.891  14.253 -0.9853  0.9778 -0.3211
16825TIP3   OH271889   5.889   1.757  14.658 -0.0571 -0.0340 -0.4838
16825TIP3    H171890   5.799   1.755  14.692 -0.4341 -1.3222 -1.4740
16825TIP3    H271891   5.882   1.808  14.577  0.1348 -0.0316 -0.4972
16826TIP3   OH271892   4.602   6.486  15.410 -0.1152 -0.1421  0.0819
16826TIP3    H171893   4.518   6.520  15.381 -0.1111 -0.1161  0.1010
16826TIP3    H271894   4.667   6.546  15.372 -0.0335 -0.8953 -1.0087
16827TIP3   OH271895   6.737   6.508   0.684  0.7126  0.0822  0.1707
16827TIP3    H171896   6.793   6.443   0.728  0.6500 -0.1832 -0.1395
16827TIP3    H271897   6.677   6.456   0.631  1.6049  0.4164 -1.2317
16828TIP3   OH271898   5.708   3.842   1.102 -0.1616 -0.1838  0.6706
16828TIP3    H171899   5.760   3.917   1.130 -0.1501 -0.2669  0.8792
16828TIP3    H271900   5.742   3.769   1.154  0.8010 -0.6355 -0.5394
16829TIP3   OH271901   0.943   4.283   4.254  0.1073 -0.4178  0.1487
16829TIP3    H171902   0.978   4.200   4.287  0.1238 -0.2919  0.4539
16829TIP3    H271903   0.850   4.266   4.240 -0.5261  0.2963  2.9306
16830TIP3   OH271904   5.464   1.407   3.372 -0.5076 -0.0703 -0.6778
16830TIP3    H171905   5.503   1.363   3.296  4.5311  0.8741  0.9695
16830TIP3    H271906   5.460   1.340   3.440  0.6750  0.3518 -0.1563
16831TIP3   OH271907   0.333   5.644   3.016  0.2796 -0.0280  0.6286
16831TIP3    H171908   0.376   5.724   3.047 -0.1312  0.4084  0.0848
16831TIP3    H271909   0.378   5.623   2.934 -0.3316  0.2511  0.2199
16832TIP3   OH271910   1.446   3.315  10.428 -0.0164 -0.7420  0.2598
16832TIP3    H171911   1.500   3.302  10.350 -0.4510 -0.2319 -0.1329
16832TIP3    H271912   1.491   3.384  10.477 -0.5418  0.0142 -0.2972
16833TIP3   OH271913   4.406   3.798   5.509  0.0585  0.3605 -0.1289
16833TIP3    H171914   4.360   3.825   5.430 -1.1366  1.7678  0.9841
16833TIP3    H271915   4.351   3.730   5.547  2.3463 -2.9193 -2.1770
16834TIP3   OH271916   5.741   0.216   3.601 -0.1741  0.5525 -0.4413
16834TIP3    H171917   5.693   0.254   3.675  0.2146  1.8126 -0.8037
16834TIP3    H271918   5.791   0.144   3.639 -0.9117  0.4111  0.2850
16835TIP3   OH271919   6.135   2.200   5.097 -0.3922 -0.0386 -0.0591
16835TIP3    H171920   6.068   2.243   5.044  0.4963 -0.7813 -1.8765
16835TIP3    H271921   6.121   2.107   5.084 -0.2015 -0.2509  1.1216
16836TIP3   OH271922   5.005   0.792  13.080 -0.7688 -0.6631  0.1154
16836TIP3    H171923   5.023   0.885  13.095 -1.5390 -0.3593 -0.7633
16836TIP3    H271924   4.980   0.786  12.988 -2.4119 -1.4558  0.5759
16837TIP3   OH271925   5.702   4.240   2.812  1.0181  0.1046 -0.2420
16837TIP3    H171926   5.646   4.169   2.841 -0.1964  1.2539  0.2962
16837TIP3    H271927   5.653   4.283   2.743  1.5010  0.7667 -0.1838
16838TIP3   OH271928   4.986   2.620  12.053 -0.2251  0.8301 -0.3559
16838TIP3    H171929   4.994   2.715  12.057  1.6253  0.7701 -1.5300
16838TIP3    H271930   5.075   2.587  12.065 -0.9589 -0.8124  0.8683
16839TIP3   OH271931   3.708   4.109   3.407  0.1180 -0.3860 -0.5800
16839TIP3    H171932   3.758   4.159   3.342 -1.6126  3.5576  0.8189
16839TIP3    H271933   3.759   4.117   3.487 -0.5789 -0.1383 -0.1558
16840TIP3   OH271934   4.200   4.262  15.520  0.8278 -0.0583  0.4669
16840TIP3    H171935   4.152   4.301  15.593  1.8983 -0.0342  1.1796
16840TIP3    H271936   4.285   4.306  15.520  1.3442 -1.0114  0.0533
16841TIP3   OH271937   4.105   1.184  11.421  0.0825 -0.3196  0.1681
16841TIP3    H171938   4.054   1.122  11.369 -0.0832  0.0941 -0.1704
16841TIP3    H271939   4.114   1.261  11.365  0.7729 -0.2475  0.3666
16842TIP3   OH271940   4.841   3.858  12.044 -0.0527  0.4885  1.1256
16842TIP3    H171941   4.913   3.795  12.052 -1.2086 -0.9581  0.7050
16842TIP3    H271942   4.856   3.900  11.959 -0.1298 -0.3908  0.6617
16843TIP3   OH271943   0.941   3.016  15.918  0.2131 -0.1210 -0.9283
16843TIP3    H171944   0.877   2.969  15.865 -0.3904 -0.0655 -0.2705
16843TIP3    H271945   0.973   2.950  15.980 -1.1124  0.4378  0.4245
16844TIP3   OH271946   4.989   4.425   2.026  0.3360  0.4023 -0.3163
16844TIP3    H171947   4.967   4.392   2.113 -0.0409  0.4333 -0.3950
16844TIP3    H271948   5.015   4.516   2.040  2.5938 -0.2518  0.0630
16845TIP3   OH271949   4.440   4.344   0.870  0.0868  0.0979 -0.0232
16845TIP3    H171950   4.377   4.407   0.835 -1.5372 -1.1829  0.4243
16845TIP3    H271951   4.437   4.271   0.808  0.3174 -0.4237  0.5691
16846TIP3   OH271952   1.878   3.782   1.622 -0.0347  0.2380  0.9066
16846TIP3    H171953   1.789   3.789   1.656 -0.8545  2.9081 -1.4375
16846TIP3    H271954   1.894   3.865   1.577  2.2921 -1.5016 -1.8402
16847TIP3   OH271955   0.872   3.397   2.824 -0.1036  0.7417  0.1043
16847TIP3    H171956   0.896   3.479   2.780 -1.3157  1.2461  0.3250
16847TIP3    H271957   0.840   3.341   2.753  2.1448 -0.1568 -0.2810
16848TIP3   OH271958   6.102   1.233  14.120 -0.5080  0.4609 -0.4498
16848TIP3    H171959   6.176   1.217  14.060  0.0072  0.4866  0.1645
16848TIP3    H271960   6.120   1.176  14.195 -1.7875 -0.5087 -0.8341
16849TIP3   OH271961   2.677   4.986  10.641  0.0470 -0.4607  0.6266
16849TIP3    H171962   2.602   5.045  10.647 -0.4115 -1.0224  0.4255
16849TIP3    H271963   2.639   4.899  10.635  0.6517 -0.6202 -1.4863
16850TIP3   OH271964   5.622   4.478   4.425  0.6658  0.3475 -0.5020
16850TIP3    H171965   5.623   4.529   4.344 -2.0440  0.6710 -0.4269
16850TIP3    H271966   5.564   4.404   4.407  2.2200 -1.1698  0.3289
16851TIP3   OH271967   6.452   6.582   4.738  0.2110  0.2044 -0.3265
16851TIP3    H171968   6.420   6.596   4.827 -0.2994 -1.4297 -0.2171
16851TIP3    H271969   6.438   6.489   4.722  2.5036 -0.0299 -1.2690
16852TIP3   OH271970   5.049   2.918   0.402  0.0725  0.0489 -0.5905
16852TIP3    H171971   5.116   2.883   0.343 -0.6396 -1.3753 -0.6016
16852TIP3    H271972   5.019   2.998   0.359 -0.6694 -1.1152 -2.3923
16853TIP3   OH271973   4.406   1.864   1.751  0.3197 -0.0141  0.9211
16853TIP3    H171974   4.312   1.870   1.734  0.3178 -0.1453  0.8780
16853TIP3    H271975   4.418   1.902   1.837  0.1812 -0.2823  1.0606
16854TIP3   OH271976   0.041   5.134  15.063 -0.0635  0.1924 -0.1106
16854TIP3    H171977   0.063   5.167  15.150  0.2211  2.9662 -1.1391
16854TIP3    H271978   0.117   5.157  15.009 -1.7523  2.0345 -1.8692
16855TIP3   OH271979   3.608   5.776   5.107 -0.0390 -0.0039  0.2255
16855TIP3    H171980   3.537   5.783   5.044 -1.5528 -0.5357  1.7892
16855TIP3    H271981   3.674   5.721   5.064 -0.2258  1.0665 -1.5177
16856TIP3   OH271982   5.665   6.088  14.686 -0.1031  0.1438 -0.0899
16856TIP3    H171983   5.682   6.046  14.770 -1.6653  0.6556  0.5207
16856TIP3    H271984   5.575   6.064  14.665 -0.0510  0.8099 -1.1493
16857TIP3   OH271985   4.381   4.532  12.427  0.5123  0.2112  0.0813
16857TIP3    H171986   4.470   4.499  12.411  0.5745 -0.1412  1.0770
16857TIP3    H271987   4.351   4.484  12.504  0.2370  1.7773  1.0068
16858TIP3   OH271988   5.738   4.055  13.034  0.5538  0.2201  0.1783
16858TIP3    H171989   5.685   3.998  13.090 -2.4363 -0.4508 -3.0204
16858TIP3    H271990   5.696   4.141  13.041  1.8779  0.8344  0.9948
16859TIP3   OH271991   1.813   3.022   1.790 -0.1470 -0.0818  0.5859
16859TIP3    H171992   1.748   2.971   1.741  1.0415 -1.2045  0.1243
16859TIP3    H271993   1.841   2.964   1.860 -0.8024  1.0057  1.7985
16860TIP3   OH271994   2.875   6.201  14.006  0.1637  0.4835  0.1198
16860TIP3    H171995   2.855   6.239  13.921 -0.9693  1.7549  0.9027
16860TIP3    H271996   2.808   6.133  14.018 -0.2757  0.9505  0.3764
16861TIP3   OH271997   1.404   6.308   4.445 -0.3508  0.0719 -0.0382
16861TIP3    H171998   1.435   6.218   4.452  0.4316  0.2574 -0.9245
16861TIP3    H271999   1.475   6.355   4.401 -1.3374  0.8027 -0.8932
16862TIP3   OH272000   4.408   6.046   4.520  0.9493  0.1411 -0.1547
16862TIP3    H172001   4.381   6.058   4.429 -1.6920  0.4670  0.5986
16862TIP3    H272002   4.480   5.983   4.515  0.0999 -0.7653 -2.3836
16863TIP3   OH272003   4.627   5.625  14.324  0.3021 -0.7177 -0.3776
16863TIP3    H172004   4.602   5.537  14.351  0.7674 -1.3010 -1.7159
16863TIP3    H272005   4.545   5.667  14.298  0.0600 -0.6992  0.4143
16864TIP3   OH272006   0.865   4.081  10.981  0.3543  0.2708  1.3459
16864TIP3    H172007   0.798   4.131  10.934  0.9413  0.3898  0.6094
16864TIP3    H272008   0.930   4.146  11.006  1.2153 -0.1176  0.2206
16865TIP3   OH272009   1.424   0.919  10.756 -0.2140 -0.0818  0.2344
16865TIP3    H172010   1.470   0.996  10.722 -0.6728  0.2310  0.3068
16865TIP3    H272011   1.478   0.845  10.730 -1.1382  0.0346 -2.2713
16866TIP3   OH272012   4.808   0.661  16.616 -1.0224  0.0038  0.0817
16866TIP3    H172013   4.751   0.589  16.587  2.5700 -1.9737 -3.0344
16866TIP3    H272014   4.814   0.719  16.540 -1.7205  2.2617  1.6536
16867TIP3   OH272015   0.293   1.340   5.126 -0.3015 -0.2830 -0.1582
16867TIP3    H172016   0.228   1.380   5.068 -0.8058  0.0598  0.6265
16867TIP3    H272017   0.342   1.414   5.162  0.4287 -0.5312 -0.6305
16868TIP3   OH272018   0.396   1.967  12.135  0.2393  0.0699 -0.5622
16868TIP3    H172019   0.358   1.962  12.223  1.0635  3.5959  0.1429
16868TIP3    H272020   0.443   1.884  12.125 -0.4552 -0.7403  2.0320
16869TIP3   OH272021   1.187   2.731  12.332  0.3198 -0.0154 -0.6203
16869TIP3    H172022   1.194   2.636  12.338 -0.5886 -0.1457 -1.3062
16869TIP3    H272023   1.261   2.757  12.278  0.7257 -0.3044 -0.2066
16870TIP3   OH272024   3.260   0.713  11.009  0.2527 -0.3028  0.9407
16870TIP3    H172025   3.243   0.795  11.056 -1.4715 -0.6057  0.8958
16870TIP3    H272026   3.354   0.714  10.992  0.3692  1.3353  1.5558
16871TIP3   OH272027   6.497   0.465   3.606 -0.7409 -0.3483 -0.0697
16871TIP3    H172028   6.476   0.532   3.541  0.0625 -0.7615 -0.7651
16871TIP3    H272029   6.587   0.483   3.632 -0.3337 -1.4722 -0.6550
16872TIP3   OH272030   5.844   1.849   2.147 -0.0729 -0.2734  0.1418
16872TIP3    H172031   5.787   1.915   2.107 -0.0206  0.0465  0.5875
16872TIP3    H272032   5.789   1.809   2.215 -0.3538 -1.2173 -0.6234
16873TIP3   OH272033   3.079   1.450  13.371  0.7646 -0.0494  0.2777
16873TIP3    H172034   3.084   1.473  13.278 -0.4842 -0.2257  0.1428
16873TIP3    H272035   3.022   1.517  13.409 -2.6109 -2.4565 -0.0439
16874TIP3   OH272036   2.022   0.719  10.933 -0.0114  0.2441  0.1367
16874TIP3    H172037   2.088   0.654  10.909 -1.1108 -1.2511  0.9510
16874TIP3    H272038   1.987   0.749  10.849 -0.9250 -1.8210 -0.3019
16875TIP3   OH272039   1.849   3.760  12.557  0.0939 -0.2015 -0.1826
16875TIP3    H172040   1.924   3.702  12.569  1.0093  0.8432 -0.7578
16875TIP3    H272041   1.842   3.808  12.640 -0.6708 -1.1019  0.2980
16876TIP3   OH272042   0.093   0.891  10.755 -0.5233  0.2119 -0.0510
16876TIP3    H172043   0.168   0.927  10.803 -0.8899  1.7362 -0.5637
16876TIP3    H272044   0.060   0.965  10.704 -2.5315 -0.3498  0.3546
16877TIP3   OH272045   1.977   6.671   0.009  0.0948  0.2751  0.1470
16877TIP3    H172046   1.945   6.599  -0.044  0.0825  0.8167 -0.5992
16877TIP3    H272047   2.070   6.677  -0.011  0.4727 -0.6014  1.4949
16878TIP3   OH272048   0.893   6.237   0.451 -0.1306 -0.3811  0.1572
16878TIP3    H172049   0.985   6.260   0.442 -0.7138  2.0752 -0.4510
16878TIP3    H272050   0.853   6.314   0.492 -1.8546 -1.5218  0.7119
16879TIP3   OH272051   2.469   4.926  13.847  0.7614 -0.5514  0.0183
16879TIP3    H172052   2.432   4.840  13.865  0.9030 -0.1140  2.9655
16879TIP3    H272053   2.404   4.969  13.791 -0.1632 -1.9418 -0.0214
16880TIP3   OH272054   4.442   2.571   6.166 -0.1892  0.3481  0.5404
16880TIP3    H172055   4.385   2.636   6.208  0.6341  0.5801  1.3059
16880TIP3    H272056   4.385   2.529   6.101 -0.8807  1.4692  0.3888
16881TIP3   OH272057   4.057   5.533   1.678 -0.5055 -0.8191  0.0643
16881TIP3    H172058   4.084   5.477   1.605  1.2336  0.0375 -0.0142
16881TIP3    H272059   4.079   5.483   1.756 -0.1799 -0.8027 -0.0128
16882TIP3   OH272060   5.280   6.608   5.292 -0.1305 -0.1342  0.1385
16882TIP3    H172061   5.334   6.687   5.293  1.3144 -1.0756 -0.3932
16882TIP3    H272062   5.342   6.537   5.310 -1.5759 -1.0630  1.7093
16883TIP3   OH272063   3.190   5.013   1.073 -0.4316 -0.6202  0.1382
16883TIP3    H172064   3.134   5.090   1.067 -0.1347 -0.4632 -0.6607
16883TIP3    H272065   3.267   5.043   1.122  0.5673  0.1344 -1.8006
16884TIP3   OH272066   0.141   1.883   1.821  0.2033 -0.4294  0.2228
16884TIP3    H172067   0.089   1.869   1.742 -1.1221  2.8796  0.3828
16884TIP3    H272068   0.079   1.876   1.893  0.6907  0.0409  0.6991
16885TIP3   OH272069   4.092   4.070  15.971 -0.0451  0.0779 -0.8356
16885TIP3    H172070   4.185   4.083  15.987  0.0747  0.7699 -1.9935
16885TIP3    H272071   4.089   3.996  15.910 -0.3295 -0.6993  0.1022
16886TIP3   OH272072   6.462   1.937  16.030 -0.2406  0.3587 -0.1496
16886TIP3    H172073   6.454   2.013  15.973 -1.4362  0.7268  0.4684
16886TIP3    H272074   6.391   1.948  16.094 -0.8765 -1.6262 -0.4540
16887TIP3   OH272075   5.926   4.617   5.387 -0.2229 -0.3575  0.1280
16887TIP3    H172076   5.876   4.589   5.464 -2.0891 -1.7844 -1.4974
16887TIP3    H272077   5.977   4.540   5.362  0.9854  0.3417  0.3374
16888TIP3   OH272078   4.889   5.343  15.644 -0.5353  0.2018  0.0130
16888TIP3    H172079   4.956   5.353  15.712  0.0784 -1.6270 -0.2493
16888TIP3    H272080   4.936   5.302  15.571 -1.2121  2.0080 -1.5001
16889TIP3   OH272081   0.868   5.338  13.733 -0.0066  0.1930  0.0440
16889TIP3    H172082   0.884   5.254  13.691 -1.2697  0.6445 -1.4254
16889TIP3    H272083   0.893   5.324  13.825  2.3767 -0.9622 -0.7130
16890TIP3   OH272084   4.071   5.215  16.917  0.1852  0.1369  0.0924
16890TIP3    H172085   4.043   5.131  16.954  1.3836 -2.4351 -4.1418
16890TIP3    H272086   3.990   5.264  16.904 -0.6660 -0.7688  1.6819
16891TIP3   OH272087   4.975   3.311   2.882  0.0215 -0.1163  0.2122
16891TIP3    H172088   5.049   3.364   2.852 -0.2909 -0.5479 -1.3910
16891TIP3    H272089   5.009   3.265   2.959  1.3832 -0.1718 -0.3932
16892TIP3   OH272090   4.280   1.310  15.278 -0.0517 -0.2589 -0.3287
16892TIP3    H172091   4.365   1.349  15.255 -0.0144 -0.6250 -0.8575
16892TIP3    H272092   4.278   1.228  15.227  0.4581 -1.6354  1.7248
16893TIP3   OH272093   3.882   2.918   1.687  0.0902  0.6192  0.6307
16893TIP3    H172094   3.938   2.904   1.764 -2.0794 -1.2364  1.9868
16893TIP3    H272095   3.840   3.002   1.702 -1.3426 -0.3257  2.2476
16894TIP3   OH272096   2.462   3.021   3.087  0.2738 -0.3468 -0.0322
16894TIP3    H172097   2.494   3.056   3.170  2.7638  0.2966 -1.1652
16894TIP3    H272098   2.423   3.096   3.043 -0.7868 -0.6268  0.3909
16895TIP3   OH272099   6.639   4.522  15.987 -0.3831 -0.6115  0.5463
16895TIP3    H172100   6.667   4.433  16.007  1.2255 -0.4373 -0.7139
16895TIP3    H272101   6.619   4.520  15.894 -0.2736  0.3534  0.4951
16896TIP3   OH272102   0.236   2.762   0.511 -0.0623 -0.0273  0.0833
16896TIP3    H172103   0.321   2.797   0.538 -0.2706 -0.2099  1.0255
16896TIP3    H272104   0.187   2.838   0.481  0.3941  0.0953 -0.3591
16897TIP3   OH272105   2.529   4.521   2.732  0.5164 -0.2643  0.6334
16897TIP3    H172106   2.567   4.528   2.819  0.5369 -0.7140  0.6650
16897TIP3    H272107   2.605   4.515   2.673  0.5036  0.1238  0.5752
16898TIP3   OH272108   6.085   1.911   0.098  0.4032 -0.0739 -0.6176
16898TIP3    H172109   6.127   1.867   0.024  2.8338  1.1015 -0.0376
16898TIP3    H272110   6.149   1.975   0.127 -0.1982 -0.8546  2.8741
16899TIP3   OH272111   2.015   2.592   0.858 -0.5726  0.0696  0.2890
16899TIP3    H172112   2.096   2.573   0.811  0.7257  0.9084  2.0844
16899TIP3    H272113   2.010   2.687   0.859 -1.6968  0.0236  0.0675
16900TIP3   OH272114   0.513   2.001  16.985 -0.2547  0.0617  0.4569
16900TIP3    H172115   0.520   2.097  16.984 -1.7817  0.2192 -1.2043
16900TIP3    H272116   0.430   1.984  17.030 -0.2568 -0.4495  0.2648
16901TIP3   OH272117   5.192   5.536   2.691 -0.3600 -0.2401 -0.3761
16901TIP3    H172118   5.275   5.580   2.706 -0.7735  0.2424  0.5766
16901TIP3    H272119   5.160   5.571   2.608 -0.1059  0.3520 -0.2253
16902TIP3   OH272120   1.687   4.870  15.574  0.4735 -0.2520 -0.0015
16902TIP3    H172121   1.653   4.909  15.655  2.3923 -1.0331  1.2707
16902TIP3    H272122   1.749   4.934  15.541  1.6251 -1.0144  0.6157
16903TIP3   OH272123   0.614   4.486   5.163 -0.5357  0.4246  0.0645
16903TIP3    H172124   0.558   4.549   5.119 -1.4357  0.6313  1.4494
16903TIP3    H272125   0.703   4.513   5.140 -0.9426  1.3773 -0.4442
16904TIP3   OH272126   2.597   2.306   6.339  0.1600 -0.2874 -0.0150
16904TIP3    H172127   2.563   2.230   6.386  2.0409 -1.3627 -0.2942
16904TIP3    H272128   2.617   2.369   6.407 -2.4138  0.4777  0.1568
16905TIP3   OH272129   6.074   3.047  12.512 -0.0735 -0.7937  0.0866
16905TIP3    H172130   6.126   3.096  12.575 -0.8244  0.0278  0.0863
16905TIP3    H272131   6.034   3.114  12.456 -0.3303 -1.4535 -0.5374
16906TIP3   OH272132   4.392   2.661  13.128  0.2693 -0.2616  0.2536
16906TIP3    H172133   4.474   2.686  13.170  0.4685  1.7108 -1.1443
16906TIP3    H272134   4.416   2.591  13.068  0.8343 -0.1024  0.2836
16907TIP3   OH272135   3.515   5.604   4.646  0.2870  0.6491  0.4221
16907TIP3    H172136   3.545   5.599   4.555 -0.7373  0.9610  0.0618
16907TIP3    H272137   3.483   5.516   4.665  0.5461  0.5706  0.5006
16908TIP3   OH272138   1.901   0.299   4.428 -0.0102 -0.0082 -0.0182
16908TIP3    H172139   1.811   0.273   4.448 -0.1038 -0.6049 -1.1686
16908TIP3    H272140   1.950   0.273   4.506 -0.4161 -1.9696 -0.3688
16909TIP3   OH272141   3.136   1.776   0.237  0.3617  0.1328 -0.1463
16909TIP3    H172142   3.170   1.864   0.223 -0.3913  0.5737  0.7479
16909TIP3    H272143   3.085   1.756   0.159  0.4954  0.5030 -0.3262
16910TIP3   OH272144   4.546   5.421   3.057 -0.1498  0.1621 -0.4389
16910TIP3    H172145   4.637   5.442   3.037 -0.7704  4.0049 -0.0147
16910TIP3    H272146   4.548   5.388   3.147  0.8343  0.0474 -0.4905
16911TIP3   OH272147   5.699   2.141   0.689 -0.4365  0.5206 -0.6424
16911TIP3    H172148   5.679   2.128   0.596 -0.5056 -2.3128 -0.3179
16911TIP3    H272149   5.794   2.148   0.693  0.0425 -3.5814 -0.6874
16912TIP3   OH272150   5.979   4.842   4.091 -0.1552 -0.0543  0.0243
16912TIP3    H172151   6.044   4.880   4.150  0.3245 -0.4259 -0.2610
16912TIP3    H272152   5.895   4.858   4.135  0.1315  0.3424  0.4408
16913TIP3   OH272153   3.451   4.079   2.176 -0.3323 -0.4278 -0.1576
16913TIP3    H172154   3.455   4.108   2.084 -0.2991  0.5057  0.1237
16913TIP3    H272155   3.533   4.030   2.189 -0.1224 -0.1792 -0.5052
16914TIP3   OH272156   5.942   1.476   3.105 -0.2386  0.1401 -0.1396
16914TIP3    H172157   5.975   1.451   3.020  0.0793 -0.2942  0.1089
16914TIP3    H272158   5.848   1.492   3.091 -0.2234 -0.1146 -0.5227
16915TIP3   OH272159   2.295   4.514   4.769  0.4983  0.3570  0.0750
16915TIP3    H172160   2.261   4.440   4.818  1.0493 -0.4170 -0.6740
16915TIP3    H272161   2.370   4.544   4.819  0.6738 -0.0217  0.0449
16916TIP3   OH272162   0.139   3.773   9.804 -0.1283 -0.1490  0.5968
16916TIP3    H172163   0.142   3.844   9.868  1.0664 -1.0500  1.6173
16916TIP3    H272164   0.106   3.698   9.853 -1.6554 -0.2589 -0.5382
16917TIP3   OH272165   3.510   2.586   4.348 -0.1768 -0.1392 -0.3872
16917TIP3    H172166   3.417   2.608   4.341 -0.2629 -0.3185  0.1032
16917TIP3    H272167   3.553   2.670   4.362 -0.3385 -0.1144 -0.0032
16918TIP3   OH272168   5.906   0.626   3.421 -0.2765 -0.1537 -0.5407
16918TIP3    H172169   5.970   0.649   3.489 -1.1261  0.2233  0.1553
16918TIP3    H272170   5.908   0.531   3.417 -1.5412 -0.3286  1.3814
16919TIP3   OH272171   4.263   2.403  16.157  0.3036 -0.4540  0.0033
16919TIP3    H172172   4.173   2.437  16.154 -0.1019 -1.5213 -0.3178
16919TIP3    H272173   4.256   2.313  16.126  1.4765 -0.5892  0.0823
16920TIP3   OH272174   3.665   6.052  15.443 -0.0659  0.0543  0.8904
16920TIP3    H172175   3.681   6.146  15.455 -0.6480  0.4277 -0.9971
16920TIP3    H272176   3.691   6.013  15.526  0.9274  1.7928  1.4484
16921TIP3   OH272177   2.300   0.521   3.723 -0.5721  0.0375  0.0636
16921TIP3    H172178   2.220   0.511   3.775 -1.1430  2.1518 -0.3229
16921TIP3    H272179   2.271   0.510   3.633  0.0231 -1.4377  0.0254
16922TIP3   OH272180   1.040   4.850  13.431 -0.3026  0.3721 -0.3221
16922TIP3    H172181   0.968   4.899  13.392 -0.1640  0.2701 -0.7114
16922TIP3    H272182   1.071   4.793  13.361 -0.0589  0.1752 -0.0576
16923TIP3   OH272183   3.589   1.649  10.351  0.3600  0.8788  0.1844
16923TIP3    H172184   3.667   1.703  10.340  0.6930  0.6995  1.5196
16923TIP3    H272185   3.624   1.560  10.363 -0.1643  0.3808 -1.6062
16924TIP3   OH272186   3.550   2.103  13.584  0.6636 -0.1628  0.1515
16924TIP3    H172187   3.617   2.130  13.647  0.8382 -2.8811  1.2751
16924TIP3    H272188   3.486   2.056  13.637 -0.4833 -0.3851 -1.3887
16925TIP3   OH272189   6.792   2.792  13.385 -0.5541  0.0136  0.1832
16925TIP3    H172190   6.822   2.717  13.334  0.9766  0.2111  0.7430
16925TIP3    H272191   6.710   2.819  13.342 -1.3140 -2.1422  0.1845
16926TIP3   OH272192   1.926   3.147  14.547  0.0752 -0.1746 -0.6052
16926TIP3    H172193   1.852   3.140  14.487  0.9606 -0.1901 -1.7273
16926TIP3    H272194   1.903   3.091  14.621  0.2246 -2.5961 -2.2846
16927TIP3   OH272195   1.107   0.041  16.389 -0.1504  0.1818  0.3798
16927TIP3    H172196   1.061   0.125  16.389  0.6950  0.6571  0.6056
16927TIP3    H272197   1.055  -0.015  16.448 -0.4848  0.6817  0.5655
16928TIP3   OH272198   4.219   1.106  15.092 -0.3256 -0.0856 -0.0027
16928TIP3    H172199   4.145   1.163  15.069 -1.6624 -1.2373  1.2037
16928TIP3    H272200   4.231   1.051  15.014  1.3166  2.0644 -1.3847
16929TIP3   OH272201   4.351   3.055  16.888 -0.2020 -0.3205  0.1158
16929TIP3    H172202   4.344   3.071  16.982 -3.2564 -1.1788  0.1181
16929TIP3    H272203   4.434   3.008  16.878  0.7227  0.7382  2.1931
16930TIP3   OH272204   0.339   5.162   1.305  0.4511  0.1693  0.2123
16930TIP3    H172205   0.408   5.225   1.287 -0.4997  1.5311  1.1773
16930TIP3    H272206   0.360   5.128   1.393 -0.0621  0.5583  0.4925
16931TIP3   OH272207   4.889   4.852  11.599  0.1621  0.3501  0.7264
16931TIP3    H172208   4.958   4.798  11.637 -0.9169 -0.3759  1.7507
16931TIP3    H272209   4.879   4.820  11.509  2.1037  1.4400  0.0730
16932TIP3   OH272210   4.985   2.900   4.106  0.8705  0.1628 -0.5125
16932TIP3    H172211   5.027   2.819   4.077  2.4874  0.5682  0.5439
16932TIP3    H272212   4.910   2.911   4.048  0.6563 -2.0508 -0.7144
16933TIP3   OH272213   0.967   0.261   3.299  0.3044  0.1697 -0.3308
16933TIP3    H172214   1.038   0.197   3.302 -0.5780 -0.8162  0.6848
16933TIP3    H272215   0.984   0.318   3.374  0.4263  0.3953 -0.5279
16934TIP3   OH272216   4.107   5.997  14.148 -0.6991  0.1525  0.3450
16934TIP3    H172217   4.178   6.029  14.205 -0.2692 -0.8595  0.4044
16934TIP3    H272218   4.057   6.075  14.125  1.4488  1.2017 -1.1053
16935TIP3   OH272219   4.469   6.292   5.776 -0.0364 -0.4113  0.5089
16935TIP3    H172220   4.554   6.318   5.811 -0.0562 -0.8335  0.8773
16935TIP3    H272221   4.431   6.373   5.743  1.9681 -0.6652 -2.9169
16936TIP3   OH272222   5.365   0.213  13.038 -0.1882 -0.1804  0.3020
16936TIP3    H172223   5.396   0.138  12.988  2.2515 -0.0102  1.4124
16936TIP3    H272224   5.322   0.175  13.115 -0.3560 -0.4240  0.0904
16937TIP3   OH272225   2.344   2.735   0.591  0.7248 -0.0289 -0.3975
16937TIP3    H172226   2.329   2.643   0.614 -0.8987  0.4416  0.6215
16937TIP3    H272227   2.361   2.733   0.497 -0.1396 -1.3147 -0.5667
16938TIP3   OH272228   5.705   0.818   4.148  0.3525  0.1609  0.2662
16938TIP3    H172229   5.715   0.724   4.139 -3.0376 -0.2133 -0.7735
16938TIP3    H272230   5.709   0.852   4.058 -3.5330  0.2156 -0.0674
16939TIP3   OH272231   6.584   4.917  16.685  0.2654  0.7816  0.1776
16939TIP3    H172232   6.567   4.984  16.618  1.1803  1.2917  0.4335
16939TIP3    H272233   6.602   4.837  16.636  0.6065  1.0771 -0.1914
16940TIP3   OH272234   4.778   0.213   2.289 -0.0211 -0.3592 -0.1673
16940TIP3    H172235   4.804   0.153   2.218  1.8292  1.9633 -1.5991
16940TIP3    H272236   4.783   0.300   2.250 -1.7147  0.8607  2.0911
16941TIP3   OH272237   4.499   6.562  12.334 -0.3401 -0.0561 -0.0216
16941TIP3    H172238   4.448   6.643  12.342  0.0686  0.0860  1.2558
16941TIP3    H272239   4.435   6.492  12.348 -0.2239  0.1224  1.5475
16942TIP3   OH272240   4.909   0.098  11.371  0.7323 -0.0494 -0.0369
16942TIP3    H172241   4.846   0.027  11.364  1.7093 -0.9018 -0.3772
16942TIP3    H272242   4.885   0.144  11.452 -0.9998  0.3378 -0.7319
16943TIP3   OH272243   0.798   1.442  16.708  0.1017  0.2723  0.2038
16943TIP3    H172244   0.814   1.496  16.630  0.0578 -1.0677 -0.7593
16943TIP3    H272245   0.712   1.404  16.693  1.0204 -1.7526 -0.1674
16944TIP3   OH272246   0.953   1.992  15.883  0.0537 -0.1421 -0.0348
16944TIP3    H172247   0.866   2.027  15.866 -0.6507 -2.1926 -1.0159
16944TIP3    H272248   1.007   2.025  15.811  0.0045  0.8140  0.3611
16945TIP3   OH272249   5.246   6.717  14.038  0.7415  0.1047 -0.0328
16945TIP3    H172250   5.152   6.705  14.024  0.7177 -1.1711  0.9190
16945TIP3    H272251   5.262   6.809  14.020 -0.8065  0.4841  0.3607
16946TIP3   OH272252   0.458   5.557  11.087 -0.8435  0.3527 -0.1867
16946TIP3    H172253   0.474   5.463  11.092 -0.8598  0.3545 -0.1050
16946TIP3    H272254   0.462   5.587  11.178  0.5518  0.6578 -0.3157
16947TIP3   OH272255   5.048   5.680  12.102  0.6607 -0.4406  0.3800
16947TIP3    H172256   4.964   5.643  12.073  0.4210  0.4110 -0.0347
16947TIP3    H272257   5.029   5.720  12.187  1.0206 -1.6035  1.0415
16948TIP3   OH272258   5.375   1.309  15.914  0.1119  0.1243  0.4868
16948TIP3    H172259   5.435   1.307  15.839  1.2479 -0.5629  1.3764
16948TIP3    H272260   5.334   1.395  15.909 -0.4775 -0.2221 -1.3929
16949TIP3   OH272261   4.826   1.087  14.732 -0.2561  0.8051  0.0073
16949TIP3    H172262   4.804   1.155  14.668 -1.6413  0.9759  0.6307
16949TIP3    H272263   4.761   1.018  14.716  0.6559 -0.0447 -0.1027
16950TIP3   OH272264   1.010   6.282   1.905  0.1159 -0.3092 -0.3460
16950TIP3    H172265   0.958   6.254   1.980 -1.1883 -0.7640 -1.3754
16950TIP3    H272266   1.099   6.257   1.927 -0.4376 -1.7143  0.4666
16951TIP3   OH272267   5.714   5.008   5.185  0.4180  0.0341  0.0044
16951TIP3    H172268   5.757   5.024   5.269  1.0332  0.4512 -0.3765
16951TIP3    H272269   5.764   4.936   5.145  0.8582  0.6041 -0.4947
16952TIP3   OH272270   3.811   2.048  15.460 -0.2233 -0.4461 -1.1584
16952TIP3    H172271   3.822   2.143  15.449 -0.1281 -0.5159 -1.7047
16952TIP3    H272272   3.802   2.015  15.370 -1.4778 -0.8147 -0.9130
16953TIP3   OH272273   4.509   4.428  13.088  0.3028  0.1918  0.1604
16953TIP3    H172274   4.529   4.517  13.060  2.1833 -0.9896 -2.7089
16953TIP3    H272275   4.423   4.409  13.050 -0.2196  0.7898  0.9895
16954TIP3   OH272276   4.237   0.640  16.706  0.2388 -0.4840  0.1378
16954TIP3    H172277   4.314   0.659  16.760  0.6375  0.1430 -0.6324
16954TIP3    H272278   4.166   0.630  16.769  0.7271  0.0399  0.7920
16955TIP3   OH272279   3.712   4.175   5.796  0.4466  0.1401  0.1618
16955TIP3    H172280   3.629   4.195   5.840  0.1236 -1.5012  0.3606
16955TIP3    H272281   3.693   4.096   5.745  1.6207  0.3423 -0.6058
16956TIP3   OH272282   5.831   2.770   2.718  0.4838 -0.0472 -0.1353
16956TIP3    H172283   5.812   2.864   2.715 -1.9684 -0.3579  2.2832
16956TIP3    H272284   5.889   2.759   2.794 -1.1462 -0.6962  1.0590
16957TIP3   OH272285   6.260   0.443  12.511  0.1055 -0.0140  0.0920
16957TIP3    H172286   6.237   0.457  12.603 -0.0111 -1.0671  0.2408
16957TIP3    H272287   6.294   0.527  12.482  1.5816 -0.0624  1.5276
16958TIP3   OH272288   0.888   5.412   5.649 -0.2078  0.2277 -0.6584
16958TIP3    H172289   0.916   5.329   5.608  1.9472  0.5985 -0.0462
16958TIP3    H272290   0.904   5.399   5.742 -1.5278  0.7543 -0.3311
16959TIP3   OH272291   6.767   3.701   4.193 -0.6599  0.2243 -0.1932
16959TIP3    H172292   6.859   3.702   4.163 -0.6692 -0.8196 -0.3088
16959TIP3    H272293   6.743   3.793   4.200  0.2255  0.5125 -0.7195
16960TIP3   OH272294   6.086   5.111  12.938  0.5979  0.4582 -0.0840
16960TIP3    H172295   6.111   5.199  12.966 -0.3456  1.3107 -1.7751
16960TIP3    H272296   6.124   5.102  12.850 -0.6413 -0.1862 -0.5796
16961TIP3   OH272297   5.251   3.595  16.295 -0.0225 -0.5078 -0.1094
16961TIP3    H172298   5.278   3.611  16.205 -1.8865  0.9599 -0.4677
16961TIP3    H272299   5.250   3.682  16.335 -2.3320 -0.6835  0.3628
16962TIP3   OH272300   2.656   4.181  16.236  0.2571 -0.1560 -0.0881
16962TIP3    H172301   2.666   4.162  16.329 -0.3464 -0.8654 -0.1635
16962TIP3    H272302   2.676   4.098  16.192 -0.9267 -0.2421 -0.5015
16963TIP3   OH272303   6.190   3.501   1.023  0.0645  0.1879  0.2228
16963TIP3    H172304   6.133   3.577   1.016 -0.0006  0.1740  0.5982
16963TIP3    H272305   6.211   3.495   1.116 -0.4912 -0.6598  0.3043
16964TIP3   OH272306   4.679   0.009  16.688 -0.3600  0.1836  0.0807
16964TIP3    H172307   4.660   0.013  16.782  1.4802 -1.3748  0.5932
16964TIP3    H272308   4.614  -0.052  16.653  0.7288 -1.5757  0.9537
16965TIP3   OH272309   5.940   4.392   0.288 -0.0296 -0.2086 -0.3424
16965TIP3    H172310   6.023   4.369   0.330 -0.4594 -4.2182 -1.3616
16965TIP3    H272311   5.877   4.396   0.360 -0.0078 -3.1647 -0.0457
16966TIP3   OH272312   0.910   2.467  10.651  0.1410 -0.7226 -0.9503
16966TIP3    H172313   0.969   2.480  10.726  3.3257  1.5466 -3.5420
16966TIP3    H272314   0.827   2.506  10.679  0.9412 -0.6048  1.5865
16967TIP3   OH272315   5.671   0.777   3.600  0.4570 -0.3290  0.1656
16967TIP3    H172316   5.686   0.871   3.590  0.5002 -0.1761  1.5197
16967TIP3    H272317   5.723   0.737   3.531  1.6312  0.5652  0.5040
16968TIP3   OH272318   5.634   5.020  12.711  0.5299  0.1110 -0.1244
16968TIP3    H172319   5.658   5.065  12.791  0.6278  0.2242 -0.2175
16968TIP3    H272320   5.606   4.932  12.740  1.6536 -0.2393 -0.0804
16969TIP3   OH272321   0.665   2.085   3.217 -0.0395 -0.4470  0.5966
16969TIP3    H172322   0.697   2.002   3.252 -0.4395 -0.5256  0.7737
16969TIP3    H272323   0.611   2.061   3.143  0.0427 -0.3312  0.4989
16970TIP3   OH272324   0.438   5.849   0.770 -0.4496  0.5056 -0.0728
16970TIP3    H172325   0.344   5.867   0.764 -0.4974  0.5876  0.8649
16970TIP3    H272326   0.460   5.814   0.683 -0.4698  4.3492 -1.8344
16971TIP3   OH272327   2.586   3.558   3.112 -0.2001 -0.1323 -0.4884
16971TIP3    H172328   2.517   3.617   3.141  0.1012 -0.0082 -0.0195
16971TIP3    H272329   2.624   3.523   3.193 -0.2445 -0.8196 -0.7522
16972TIP3   OH272330   2.160   1.460  13.834 -0.1030  0.5079  0.1734
16972TIP3    H172331   2.173   1.399  13.761  2.1201 -0.1801  1.0705
16972TIP3    H272332   2.158   1.405  13.912 -0.7322  1.3793  0.7935
16973TIP3   OH272333   0.885   6.517   4.810 -0.1769 -0.4165  0.3396
16973TIP3    H172334   0.798   6.519   4.772 -1.4217  1.0912  2.9811
16973TIP3    H272335   0.910   6.424   4.810 -1.5445 -0.8068 -0.9284
16974TIP3   OH272336   4.762   0.171  15.557  0.1822 -0.2988  0.1638
16974TIP3    H172337   4.710   0.193  15.479 -1.2200 -0.5128  1.0021
16974TIP3    H272338   4.791   0.081  15.542  0.6468 -0.0453 -0.4853
16975TIP3   OH272339   4.343   2.578  15.685  0.3691 -0.5146 -0.4783
16975TIP3    H172340   4.413   2.593  15.748  0.3375 -1.4181 -0.2113
16975TIP3    H272341   4.273   2.638  15.710 -0.3129 -1.9893  1.3981
16976TIP3   OH272342   6.774   1.642  15.426 -0.9466 -0.2987  0.2742
16976TIP3    H172343   6.710   1.571  15.430 -0.0631 -1.1505 -0.3978
16976TIP3    H272344   6.768   1.674  15.335 -2.0433  1.1824  0.8236
16977TIP3   OH272345   0.827   3.946   4.105  0.4660  0.6294  0.0792
16977TIP3    H172346   0.887   3.947   4.030  1.0344  0.6900  0.5345
16977TIP3    H272347   0.849   3.867   4.153 -1.1790 -0.4486 -0.8243
16978TIP3   OH272348   6.068   1.972  16.454  0.2961  0.0687  0.6583
16978TIP3    H172349   6.028   1.984  16.367 -0.3944 -0.8172  0.8408
16978TIP3    H272350   6.128   1.898  16.443  0.9638  0.5997  0.6976
16979TIP3   OH272351   2.485   3.246  16.973 -0.1621 -0.1218 -0.3387
16979TIP3    H172352   2.511   3.201  16.892  1.6492 -0.9944  0.6613
16979TIP3    H272353   2.427   3.185  17.018  0.2330 -0.3847 -0.1800
16980TIP3   OH272354   2.604   6.109   5.416 -0.4316  0.3147  0.3382
16980TIP3    H172355   2.588   6.050   5.342 -1.4713  0.6454  0.2844
16980TIP3    H272356   2.694   6.139   5.403 -1.0670  1.5531 -1.6706
16981TIP3   OH272357   1.072   4.429  15.509  0.6899 -0.2404 -0.1529
16981TIP3    H172358   1.088   4.399  15.598 -1.3205 -0.2107  0.2678
16981TIP3    H272359   0.979   4.414  15.495  0.7560  0.6768 -1.9115
16982TIP3   OH272360   3.689   0.190   4.796  0.4287  0.5524 -0.1228
16982TIP3    H172361   3.754   0.251   4.830  0.9940 -0.0232 -0.1598
16982TIP3    H272362   3.607   0.217   4.838  0.5733  1.6156 -0.4825
16983TIP3   OH272363   0.320   0.658   3.766 -0.3944  0.0923  0.7264
16983TIP3    H172364   0.243   0.667   3.823 -0.8893 -1.1676  0.2932
16983TIP3    H272365   0.321   0.739   3.715 -1.3258  0.2215  0.8867
16984TIP3   OH272366   1.882   6.335  15.065  0.1429 -0.1782 -0.2785
16984TIP3    H172367   1.964   6.331  15.114 -0.6193 -1.9482  0.9924
16984TIP3    H272368   1.886   6.417  15.016  2.1121  0.3605  0.7023
16985TIP3   OH272369   1.069   1.861  16.240  0.0880  0.4412  0.3267
16985TIP3    H172370   1.129   1.836  16.170 -1.8097 -1.6402 -0.6563
16985TIP3    H272371   1.043   1.951  16.218  1.7703  0.8948  0.0535
16986TIP3   OH272372   4.931   6.512   6.219  0.1389  0.0787  0.2602
16986TIP3    H172373   4.928   6.452   6.144 -1.5538  0.5877 -0.1160
16986TIP3    H272374   4.970   6.592   6.184  0.0538  0.0555  0.1116
16987TIP3   OH272375   0.650   5.882   4.639 -0.0487 -0.0177  0.4030
16987TIP3    H172376   0.629   5.790   4.652  0.8557 -0.2306  0.3760
16987TIP3    H272377   0.739   5.883   4.604 -0.3143  0.8315 -0.3055
16988TIP3   OH272378   0.532   1.640   0.966 -0.3701  0.3399  0.1615
16988TIP3    H172379   0.541   1.726   1.008  0.9646  0.6393 -0.6612
16988TIP3    H272380   0.551   1.657   0.874  0.3884 -0.9116  0.0637
16989TIP3   OH272381   2.904   6.085   3.650  1.0176 -0.3625  0.0976
16989TIP3    H172382   2.999   6.069   3.653  1.3654 -0.1422 -3.9237
16989TIP3    H272383   2.896   6.167   3.600 -1.3051 -0.2962  0.4935
16990TIP3   OH272384   2.500   3.741   3.481  0.1980  0.2285 -0.7700
16990TIP3    H172385   2.519   3.724   3.388  3.3079  1.2854 -0.4599
16990TIP3    H272386   2.535   3.829   3.496 -1.6418  0.7107  1.0943
16991TIP3   OH272387   2.435   5.828   4.972  0.4358 -0.0233 -0.2549
16991TIP3    H172388   2.496   5.900   4.957  1.2049 -0.2358  1.6265
16991TIP3    H272389   2.391   5.850   5.054 -0.9059 -0.6469 -0.7835
16992TIP3   OH272390   2.542   0.852  13.728 -0.4894 -0.3141  0.1022
16992TIP3    H172391   2.621   0.802  13.708 -0.1064  0.2220  0.2294
16992TIP3    H272392   2.471   0.802  13.689 -0.1061 -0.8906  0.1263
16993TIP3   OH272393   4.316   3.104  11.707  0.3823  0.3558  0.5982
16993TIP3    H172394   4.351   3.015  11.702  1.6690  0.8432  0.5455
16993TIP3    H272395   4.327   3.139  11.619  0.8850  0.9113  0.8698
16994TIP3   OH272396   2.735   0.924  12.907 -0.1853 -0.4592 -0.0003
16994TIP3    H172397   2.783   0.973  12.974 -0.5441  1.6664 -1.2326
16994TIP3    H272398   2.699   0.990  12.849 -1.1299 -2.1821 -1.4922
16995TIP3   OH272399   4.870   1.804   4.579  0.0060 -0.7722  0.5029
16995TIP3    H172400   4.960   1.829   4.558 -0.5658  0.5609 -0.4874
16995TIP3    H272401   4.879   1.730   4.639  1.7665  0.5369  1.9596
16996TIP3   OH272402   0.646   2.706  10.392  0.4250 -0.6889 -0.0685
16996TIP3    H172403   0.603   2.792  10.386 -1.1662 -1.1978  2.6154
16996TIP3    H272404   0.584   2.645  10.352 -0.1654 -1.0521  1.3506
16997TIP3   OH272405   4.284   6.802  10.583 -0.4007 -0.1138 -0.1219
16997TIP3    H172406   4.320   6.882  10.544 -0.4643  0.3066  0.6599
16997TIP3    H272407   4.355   6.739  10.577  0.7469  0.8734  1.9336
16998TIP3   OH272408   4.502   0.180  15.674 -0.3797  0.0446  0.2352
16998TIP3    H172409   4.589   0.160  15.639  0.3681 -0.3063  2.1736
16998TIP3    H272410   4.441   0.144  15.609  0.9200 -0.8922 -0.5162
16999TIP3   OH272411   5.409   4.066   1.980  0.2518 -0.2071 -0.0009
16999TIP3    H172412   5.486   4.118   1.957  0.0564  0.0213 -0.1443
16999TIP3    H272413   5.444   3.988   2.022  0.5184  0.4192  0.9687
17000TIP3   OH272414   1.309   3.132   1.341 -0.4698 -0.2917  0.1746
17000TIP3    H172415   1.365   3.198   1.383  0.6835 -0.9152 -0.3189
17000TIP3    H272416   1.310   3.156   1.249 -1.0989 -0.2601  0.1766
17001TIP3   OH272417   0.203   4.309  11.908 -0.2537  0.3901 -0.6907
17001TIP3    H172418   0.238   4.382  11.857 -2.0387  1.6257 -0.2158
17001TIP3    H272419   0.140   4.267  11.849 -1.0373  0.7634 -0.1421
17002TIP3   OH272420   5.965   5.571   1.584  0.5662  0.2541 -0.5571
17002TIP3    H172421   5.983   5.573   1.678  0.5824  0.3287 -0.5617
17002TIP3    H272422   5.870   5.562   1.578  0.6534 -0.7324 -0.5307
17003TIP3   OH272423   2.474   2.428   3.317  0.7868  0.0035 -0.1859
17003TIP3    H172424   2.385   2.421   3.282  1.1824 -1.8092 -0.9233
17003TIP3    H272425   2.527   2.454   3.241  0.8404  1.7104  0.3863
17004TIP3   OH272426   2.716   3.390   5.971 -0.5180 -0.1583 -0.8064
17004TIP3    H172427   2.801   3.431   5.987 -0.6018 -0.3895  0.3105
17004TIP3    H272428   2.735   3.318   5.911  0.1394 -0.4471 -0.2544
17005TIP3   OH272429   3.976   1.362  13.872 -0.1946 -0.0199 -0.4965
17005TIP3    H172430   3.899   1.339  13.924  0.3956 -0.6898  0.1067
17005TIP3    H272431   3.947   1.434  13.816 -0.9147  0.5783  0.6109
17006TIP3   OH272432   5.018   5.876  15.628  0.3293 -0.7680 -0.7741
17006TIP3    H172433   4.996   5.811  15.694  2.3147  1.4163  2.2558
17006TIP3    H272434   4.953   5.946  15.640  0.4733 -0.5154 -1.4111
17007TIP3   OH272435   6.702   3.425   5.884  0.0727 -0.0882  0.0226
17007TIP3    H172436   6.756   3.429   5.963  1.1178  1.3453 -0.7052
17007TIP3    H272437   6.662   3.511   5.878  0.5136  0.0474 -1.3212
17008TIP3   OH272438   6.666   4.742  12.508 -0.1816 -0.1762 -0.0489
17008TIP3    H172439   6.674   4.830  12.545  2.9310 -1.0114  1.5850
17008TIP3    H272440   6.663   4.684  12.585  1.2487 -1.6701 -1.0569
17009TIP3   OH272441   0.330   0.079   3.564  0.0445 -0.2529 -0.1083
17009TIP3    H172442   0.262   0.042   3.621  0.2978  1.2351  1.2196
17009TIP3    H272443   0.388   0.005   3.545 -2.6045 -1.9440 -2.4715
17010TIP3   OH272444   1.953   0.077   2.989 -0.8547  0.2044 -0.2276
17010TIP3    H172445   1.889   0.130   2.941 -1.5857 -0.0718  0.4117
17010TIP3    H272446   1.966  -0.001   2.935 -0.2550  0.7286 -0.8640
17011TIP3   OH272447   4.161   2.190   3.755  0.4251 -0.2380  0.1811
17011TIP3    H172448   4.234   2.148   3.799 -0.4384 -0.8615  1.0549
17011TIP3    H272449   4.097   2.120   3.741 -1.7986  0.9680  3.1934
17012TIP3   OH272450   6.701   0.737  11.167 -0.3346  0.3079 -0.1453
17012TIP3    H172451   6.775   0.701  11.118  0.2448  2.6586 -1.1518
17012TIP3    H272452   6.637   0.761  11.100 -1.4454 -0.3843  0.6202
17013TIP3   OH272453   4.140   2.843   1.338  0.4421  0.1900  0.3169
17013TIP3    H172454   4.054   2.802   1.350  0.3349  0.7624  1.7344
17013TIP3    H272455   4.123   2.920   1.285 -0.0369  0.6587  1.1418
17014TIP3   OH272456   2.341   3.514  11.623  0.5850 -0.3955 -0.5497
17014TIP3    H172457   2.401   3.463  11.569  0.2691 -1.7165  0.2933
17014TIP3    H272458   2.359   3.484  11.713  0.4380  1.0483 -0.0178
17015TIP3   OH272459   0.770   6.618  16.767  0.3969  0.1132 -0.0912
17015TIP3    H172460   0.688   6.574  16.743  1.6398 -1.8894 -0.9493
17015TIP3    H272461   0.825   6.549  16.803  1.6133  1.4848  0.7930
17016TIP3   OH272462   2.598   1.144   3.833  0.0394  0.3095  0.4045
17016TIP3    H172463   2.652   1.223   3.838  0.0723  0.3605 -0.6193
17016TIP3    H272464   2.509   1.174   3.852  0.0901  0.5507  0.2620
17017TIP3   OH272465   4.827   3.795   2.803  0.1823  0.1657  1.0129
17017TIP3    H172466   4.896   3.802   2.869  1.2340  2.1239 -0.1663
17017TIP3    H272467   4.748   3.774   2.852  1.1035  0.5547  2.7517
17018TIP3   OH272468   1.774   4.553  14.198 -0.1306  0.7258  0.0628
17018TIP3    H172469   1.822   4.635  14.190 -1.3348  1.5404  0.8240
17018TIP3    H272470   1.834   4.494  14.244  0.7114  1.2011 -0.4080
17019TIP3   OH272471   4.181   1.302  12.884  0.0865 -0.3257  0.4106
17019TIP3    H172472   4.147   1.219  12.919 -1.8425  0.1609 -0.1942
17019TIP3    H272473   4.157   1.367  12.950  0.1516 -0.0108  0.1231
17020TIP3   OH272474   3.225   4.843   4.406 -0.3093 -0.6621 -0.1927
17020TIP3    H172475   3.285   4.785   4.453 -1.1964 -1.9158 -0.5697
17020TIP3    H272476   3.195   4.905   4.473  0.4609 -0.7765  0.2711
17021TIP3   OH272477   1.688   4.618  15.413 -0.5029  0.5138  0.6036
17021TIP3    H172478   1.684   4.688  15.479  0.6763  2.8992 -1.6724
17021TIP3    H272479   1.772   4.631  15.370 -0.5407 -1.9749 -0.3573
17022TIP3   OH272480   6.197   0.698  13.365 -0.6040 -0.3521  0.3755
17022TIP3    H172481   6.170   0.625  13.310 -1.8380  0.7663 -0.5834
17022TIP3    H272482   6.292   0.690  13.373 -0.5000 -0.9954 -1.2710
17023TIP3   OH272483   4.075   1.508  13.596  0.5354  0.7482 -0.5785
17023TIP3    H172484   4.135   1.464  13.656  0.4967 -0.6069 -1.4828
17023TIP3    H272485   4.123   1.512  13.513 -0.6612 -0.5365 -1.3747
17024TIP3   OH272486   1.445   4.204   0.548  0.2586 -0.1629 -0.0725
17024TIP3    H172487   1.452   4.269   0.617 -0.0956 -1.1036  0.8770
17024TIP3    H272488   1.502   4.133   0.577 -0.1202 -0.6904 -0.6065
17025TIP3   OH272489   5.756   1.943  16.309  0.5180 -0.2666  0.2925
17025TIP3    H172490   5.710   1.883  16.368 -1.6974 -1.0201 -2.0482
17025TIP3    H272491   5.833   1.893  16.280  0.0947 -0.9854  0.3856
17026TIP3   OH272492   2.894   0.068  10.761 -0.4255  0.2025 -0.0868
17026TIP3    H172493   2.959   0.006  10.727 -0.2889  1.0498 -1.4692
17026TIP3    H272494   2.823   0.013  10.794  0.5068 -0.7128  0.4429
17027TIP3   OH272495   4.020   5.826   0.974  0.1333  0.9308 -0.7837
17027TIP3    H172496   3.960   5.837   0.901  0.2960 -1.0339 -1.2527
17027TIP3    H272497   3.964   5.824   1.051 -0.1297  1.9511 -0.9382
17028TIP3   OH272498   2.011   2.220  15.068  0.0075  0.3331  0.9026
17028TIP3    H172499   2.080   2.202  15.005  0.8628  0.5226  1.7684
17028TIP3    H272500   1.974   2.134  15.089  0.3298  0.1773  0.8255
17029TIP3   OH272501   3.957   1.424  13.306  0.8109  0.6605  0.1570
17029TIP3    H172502   3.947   1.331  13.326 -1.3888  1.2073  1.9744
17029TIP3    H272503   4.035   1.451  13.355  2.4191 -0.4556 -1.6115
17030TIP3   OH272504   3.710   2.464   1.487 -0.4364 -0.4844 -0.3687
17030TIP3    H172505   3.718   2.444   1.580  1.0852 -0.3176 -0.4339
17030TIP3    H272506   3.721   2.559   1.481  0.4025 -0.5917 -0.7781
17031TIP3   OH272507   1.431   6.448   0.121 -0.8141 -0.0388 -0.0694
17031TIP3    H172508   1.513   6.414   0.158 -0.0796  0.4995 -1.1255
17031TIP3    H272509   1.430   6.540   0.146 -1.8499 -0.3655  1.1760
17032TIP3   OH272510   5.510   5.095   2.268 -0.2670 -0.4092 -0.3043
17032TIP3    H172511   5.549   5.027   2.214 -1.2143 -0.1108 -1.4273
17032TIP3    H272512   5.470   5.048   2.342  2.2723 -0.6945  0.9756
17033TIP3   OH272513   4.771   5.069   3.596  1.1078 -0.4218 -0.5981
17033TIP3    H172514   4.751   5.132   3.527  2.9477  2.0071  0.9137
17033TIP3    H272515   4.839   5.013   3.559  1.9452  0.7367 -0.8652
17034TIP3   OH272516   3.076   6.465   0.076  0.2711 -0.3317 -0.6142
17034TIP3    H172517   3.037   6.390   0.121 -0.4539  0.8929  0.9047
17034TIP3    H272518   3.073   6.441  -0.016 -0.5218 -1.9098 -0.2262
17035TIP3   OH272519   1.305   4.537  16.597 -0.2181 -0.0225 -0.0795
17035TIP3    H172520   1.394   4.567  16.582 -0.6473  1.6731  0.4756
17035TIP3    H272521   1.270   4.599  16.662 -1.4278 -1.3312  0.5671
17036TIP3   OH272522   2.492   3.423   0.674 -0.0370  0.2303 -0.0064
17036TIP3    H172523   2.581   3.454   0.657  0.2463 -0.3513  0.3800
17036TIP3    H272524   2.465   3.471   0.753  0.0128  0.2378  0.0057
17037TIP3   OH272525   5.235   3.195   3.259  0.0472  0.1915  0.2203
17037TIP3    H172526   5.229   3.112   3.306 -0.0023  0.5890  0.9200
17037TIP3    H272527   5.170   3.188   3.189 -0.4685 -0.0688  0.7211
17038TIP3   OH272528   6.522   3.213   1.327  0.6168  0.7862 -0.7929
17038TIP3    H172529   6.443   3.160   1.334  1.9150 -1.5170 -2.0863
17038TIP3    H272530   6.567   3.200   1.410  0.6469  0.3356 -0.8786
17039TIP3   OH272531   1.981   4.820   6.073 -0.0507  0.3132 -0.0653
17039TIP3    H172532   1.975   4.914   6.090 -3.1625  0.1671  0.2591
17039TIP3    H272533   1.909   4.802   6.014  2.1405 -1.5205 -2.3850
17040TIP3   OH272534   3.206   3.139  16.462 -0.4359  0.0807 -0.5196
17040TIP3    H172535   3.226   3.136  16.556  0.0693 -0.6807 -0.6465
17040TIP3    H272536   3.229   3.052  16.430  0.7069  0.7567 -1.6134
17041TIP3   OH272537   0.322   4.067   5.146  0.1268 -0.1030 -0.5863
17041TIP3    H172538   0.412   4.095   5.129 -0.1742  0.7017 -0.9449
17041TIP3    H272539   0.328   4.006   5.219  0.9663 -0.0923 -0.6436
17042TIP3   OH272540   6.324   2.420  14.338 -0.4625  0.1587 -0.4753
17042TIP3    H172541   6.291   2.474  14.266 -0.9395  0.2027 -0.2339
17042TIP3    H272542   6.388   2.362  14.298  0.2179  1.0444 -0.7044
17043TIP3   OH272543   3.006   6.220  14.865  0.1844 -0.0333  0.0551
17043TIP3    H172544   2.977   6.221  14.956 -1.7942  0.2821 -0.5400
17043TIP3    H272545   3.089   6.268  14.866 -0.1116  0.5067  1.5799
17044TIP3   OH272546   2.585   4.235   2.098  1.0160 -0.7044  0.0093
17044TIP3    H172547   2.546   4.149   2.114 -2.0659  0.3208 -1.1025
17044TIP3    H272548   2.559   4.256   2.009 -1.7728  2.8726  1.4137
17045TIP3   OH272549   1.992   2.545  14.385 -0.3355 -0.6416 -0.2989
17045TIP3    H172550   1.953   2.495  14.313  0.5053 -1.9258  0.1062
17045TIP3    H272551   2.019   2.479  14.449 -0.7924  0.4617  1.0751
17046TIP3   OH272552   1.678   0.406  13.474 -0.2476  0.0644  0.1228
17046TIP3    H172553   1.603   0.463  13.489  0.3835  0.6760  1.0580
17046TIP3    H272554   1.676   0.389  13.380 -0.4917  1.6023 -0.1819
17047TIP3   OH272555   0.982   4.865  11.556 -0.1873  0.5295  0.0481
17047TIP3    H172556   0.947   4.924  11.488  0.1968 -0.8298 -1.3806
17047TIP3    H272557   0.919   4.793  11.559  0.6574 -0.2243 -0.0552
17048TIP3   OH272558   2.943   0.163  13.134 -0.5373  0.2768  1.0164
17048TIP3    H172559   2.922   0.164  13.041 -1.4440  0.1773  1.2072
17048TIP3    H272560   2.964   0.254  13.155  1.2575  0.0429  0.3945
17049TIP3   OH272561   2.089   4.343  12.781  0.1731  0.1743  0.1032
17049TIP3    H172562   2.048   4.263  12.816  1.6406 -0.2918  0.8271
17049TIP3    H272563   2.035   4.414  12.816 -0.2066 -0.4335  0.7968
17050TIP3   OH272564   4.885   6.375  14.637  0.3988  0.6419 -0.3692
17050TIP3    H172565   4.975   6.372  14.671  0.2490  1.7507  0.1735
17050TIP3    H272566   4.880   6.301  14.577  1.7893  0.7675 -0.6789
17051TIP3   OH272567   0.265   4.132  13.612 -0.3978  0.0004  0.3507
17051TIP3    H172568   0.224   4.166  13.532 -0.8747 -0.5356  0.3627
17051TIP3    H272569   0.207   4.161  13.683 -1.1869 -1.3804  0.3058
17052TIP3   OH272570   5.707   5.229  11.469 -0.5713 -0.5514  0.1167
17052TIP3    H172571   5.706   5.134  11.457  1.7710 -0.8301  1.5546
17052TIP3    H272572   5.652   5.244  11.546 -0.1094 -0.8649  0.5135
17053TIP3   OH272573   0.342   1.674  14.133  1.0935 -0.3300 -0.4610
17053TIP3    H172574   0.278   1.653  14.201  0.6642 -0.7860 -1.0110
17053TIP3    H272575   0.404   1.601  14.136  0.9132 -0.4949 -0.7584
17054TIP3   OH272576   6.585   5.126   0.697 -0.3840  0.7359  0.3896
17054TIP3    H172577   6.573   5.089   0.784 -0.8003  0.3610  0.1781
17054TIP3    H272578   6.597   5.050   0.640  0.1537  0.9882  0.1585
17055TIP3   OH272579   3.577   2.353   2.049  0.0760 -0.3780 -0.4002
17055TIP3    H172580   3.545   2.271   2.012  0.4361 -0.5523 -0.3383
17055TIP3    H272581   3.622   2.326   2.130 -0.9079  0.0214  0.2933
17056TIP3   OH272582   1.045   4.789  11.052 -0.7296  0.4029 -0.7926
17056TIP3    H172583   1.110   4.778  11.122 -0.3137  1.5013 -0.9773
17056TIP3    H272584   0.964   4.753  11.088 -0.0047 -1.1553 -0.6114
17057TIP3   OH272585   1.306   3.488  11.753  0.2111 -0.3595 -0.0067
17057TIP3    H172586   1.276   3.458  11.839  1.3302 -2.8367 -0.4016
17057TIP3    H272587   1.343   3.410  11.712 -0.4820  0.7123 -2.8523
17058TIP3   OH272588   5.766   0.549   0.895  0.4266 -0.1373  0.1785
17058TIP3    H172589   5.851   0.584   0.870  1.3359 -1.9327  0.5298
17058TIP3    H272590   5.730   0.613   0.956  0.4928  1.7308 -1.6493
17059TIP3   OH272591   0.124   1.889   0.742  0.0826  0.4838 -0.1909
17059TIP3    H172592   0.070   1.938   0.803 -2.9258 -1.7019 -0.8479
17059TIP3    H272593   0.075   1.891   0.660 -0.0694 -3.1109 -0.3597
17060TIP3   OH272594   4.368   4.608   0.473  0.1978 -0.8631  0.9888
17060TIP3    H172595   4.455   4.642   0.454 -0.3394  0.5628  0.9550
17060TIP3    H272596   4.327   4.596   0.387  0.0278 -0.5893  1.0286
17061TIP3   OH272597   3.869   2.710  11.391 -0.3166  0.5776  1.0131
17061TIP3    H172598   3.922   2.789  11.380  0.8286 -0.2708  0.2678
17061TIP3    H272599   3.796   2.721  11.330 -0.9418  1.6691  1.9120
17062TIP3   OH272600   6.365   6.450   3.784 -0.0950  0.3641  0.2189
17062TIP3    H172601   6.362   6.470   3.878  0.6577 -1.5710  0.7065
17062TIP3    H272602   6.328   6.528   3.742 -1.8141  0.7208  2.1859
17063TIP3   OH272603   2.790   5.379  13.073  0.0560 -0.3639 -0.2802
17063TIP3    H172604   2.718   5.317  13.080  0.1966 -0.4990 -0.0020
17063TIP3    H272605   2.749   5.462  13.051 -0.4265  0.0694  2.0095
17064TIP3   OH272606   3.904   4.245  16.068  0.4365  0.1738 -0.1100
17064TIP3    H172607   3.872   4.291  15.990 -1.0611 -1.7736 -0.7254
17064TIP3    H272608   3.964   4.179  16.034  0.2655 -0.2708  0.4393
17065TIP3   OH272609   4.217   5.544   4.362 -0.2321  0.1630 -0.2641
17065TIP3    H172610   4.296   5.561   4.414  0.5179  0.5161 -1.4927
17065TIP3    H272611   4.234   5.459   4.320 -0.3264  0.4300 -0.8468
17066TIP3   OH272612   3.014   6.047   0.964  0.0141 -0.3349  0.3155
17066TIP3    H172613   2.992   5.975   1.023  1.3276 -1.6597 -0.7490
17066TIP3    H272614   3.044   6.005   0.884  1.2583  1.3762 -0.1848
17067TIP3   OH272615   2.243   6.520   0.861  0.2831 -0.3474 -0.0813
17067TIP3    H172616   2.328   6.477   0.856  0.9747  0.9817 -0.3277
17067TIP3    H272617   2.206   6.493   0.945  0.8214 -1.1555 -0.1025
17068TIP3   OH272618   2.656   0.356   1.037 -0.8616 -0.4346 -0.2047
17068TIP3    H172619   2.690   0.407   1.110 -0.2653 -0.5858 -0.3737
17068TIP3    H272620   2.612   0.282   1.079 -0.8245 -0.3379  0.0091
17069TIP3   OH272621   3.699   5.519  15.735  0.3047  0.7093  0.5027
17069TIP3    H172622   3.679   5.553  15.648 -1.0479  1.5994  1.1174
17069TIP3    H272623   3.691   5.424  15.726 -2.3187  0.8900  0.1813
17070TIP3   OH272624   3.982   5.089  12.420 -0.3520 -0.2077  0.1742
17070TIP3    H172625   3.948   5.169  12.379 -0.5851  0.9289  2.4381
17070TIP3    H272626   3.976   5.106  12.514 -0.4738 -2.9375  0.7332
17071TIP3   OH272627   0.399   0.285   4.112  0.2958  0.0718  0.4163
17071TIP3    H172628   0.426   0.356   4.054 -1.5148  0.3001 -0.2239
17071TIP3    H272629   0.405   0.206   4.058  0.3119  0.0362  0.4700
17072TIP3   OH272630   2.963   4.045   0.268 -0.2139  0.7635 -0.7724
17072TIP3    H172631   2.971   3.997   0.186  1.3628  0.5843 -0.5463
17072TIP3    H272632   3.053   4.069   0.291 -0.5222  0.1500  1.2943
17073TIP3   OH272633   3.591   3.355   3.058  0.3092 -0.0747 -0.5253
17073TIP3    H172634   3.685   3.338   3.049  0.9137  1.4086  1.8482
17073TIP3    H272635   3.571   3.327   3.148 -0.9365  1.8633 -0.1531
17074TIP3   OH272636   0.388   0.712   5.741  0.0157  0.4305  0.0389
17074TIP3    H172637   0.403   0.806   5.738  3.3322  0.0856  1.5311
17074TIP3    H272638   0.373   0.693   5.833  2.7210 -0.8030  0.3140
17075TIP3   OH272639   5.190   2.684   1.539  0.1501  0.5652 -0.0031
17075TIP3    H172640   5.285   2.695   1.546  0.6113 -1.9461 -1.3938
17075TIP3    H272641   5.170   2.611   1.596 -1.0031  1.1381  0.3570
17076TIP3   OH272642   6.224   5.446  11.771 -0.0034  0.3105  0.0785
17076TIP3    H172643   6.289   5.516  11.771 -1.4998  1.7931 -0.9872
17076TIP3    H272644   6.142   5.490  11.793 -0.5855 -1.6319  2.1884
17077TIP3   OH272645   4.413   4.587  13.395  0.4571 -0.6913  0.0372
17077TIP3    H172646   4.504   4.597  13.369 -0.1188  1.6766 -1.4090
17077TIP3    H272647   4.416   4.546  13.481  2.8101 -1.6334 -0.4327
17078TIP3   OH272648   4.340   0.332   5.394 -0.3269 -0.3516  0.2255
17078TIP3    H172649   4.278   0.361   5.460 -0.6204 -0.3988 -0.0264
17078TIP3    H272650   4.367   0.244   5.422  0.0057 -0.1344  0.5977
17079TIP3   OH272651   5.453   2.098  13.320 -0.6746  0.8035  0.5488
17079TIP3    H172652   5.514   2.078  13.390 -0.6321 -0.0809  0.2684
17079TIP3    H272653   5.489   2.176  13.278  0.7877 -0.2415 -0.2103
17080TIP3   OH272654   1.827   3.550  13.564  0.0802 -0.4434 -0.2103
17080TIP3    H172655   1.908   3.595  13.587  0.6582 -0.4301 -2.1008
17080TIP3    H272656   1.822   3.477  13.626  2.6658 -1.6636 -1.2613
17081TIP3   OH272657   0.748   1.527  12.030  0.0154 -0.2226 -0.3109
17081TIP3    H172658   0.655   1.524  12.009  0.0526 -0.6506 -0.4283
17081TIP3    H272659   0.752   1.519  12.125 -0.1225  1.0508 -0.1749
17082TIP3   OH272660   2.375   5.447   5.629 -0.3623  0.5374  0.2945
17082TIP3    H172661   2.296   5.485   5.590 -1.4521  0.1082  1.9592
17082TIP3    H272662   2.423   5.521   5.665 -0.1421  0.7637 -0.4301
17083TIP3   OH272663   1.565   1.605  11.021 -0.5640 -0.4050  0.0810
17083TIP3    H172664   1.515   1.602  10.940  1.2560 -1.9453 -1.0665
17083TIP3    H272665   1.621   1.682  11.011 -0.7204 -0.2905  0.0955
17084TIP3   OH272666   4.736   4.101   5.666 -0.7009 -0.1836  0.4303
17084TIP3    H172667   4.759   4.041   5.737 -0.2225  0.5020  0.8686
17084TIP3    H272668   4.732   4.045   5.588  0.4389 -0.6801  0.6945
17085TIP3   OH272669   2.049   2.559  11.263  0.0913 -0.2965  0.3042
17085TIP3    H172670   2.061   2.469  11.234  1.0334  0.0966 -0.5998
17085TIP3    H272671   1.955   2.567  11.280 -0.0751 -1.2966 -0.1001
17086TIP3   OH272672   4.901   4.509   4.676  0.3491 -0.0686 -0.1611
17086TIP3    H172673   4.868   4.462   4.599 -3.3419  1.9814 -0.0787
17086TIP3    H272674   4.883   4.449   4.749 -0.2759 -0.2977 -0.4918
17087TIP3   OH272675   2.224   4.106  16.283  0.3017 -0.0422  0.2003
17087TIP3    H172676   2.287   4.132  16.216  0.0058  1.5363  0.4881
17087TIP3    H272677   2.145   4.155  16.261  0.5594  1.4986  2.3638
17088TIP3   OH272678   1.344   4.294  12.331 -0.0828  0.1967 -0.3308
17088TIP3    H172679   1.332   4.293  12.426  3.6927  1.3321  0.3189
17088TIP3    H272680   1.306   4.377  12.302  2.2415  1.8378  0.9460
17089TIP3   OH272681   3.587   2.862   3.268 -0.1044  0.9434 -0.1540
17089TIP3    H172682   3.574   2.919   3.343 -0.0949  0.8988 -0.1185
17089TIP3    H272683   3.606   2.921   3.195  0.0677  0.9749 -0.0831
17090TIP3   OH272684   3.430   6.670   1.849 -0.4996 -0.3369  0.5508
17090TIP3    H172685   3.440   6.716   1.766  1.6543 -1.1548  0.2753
17090TIP3    H272686   3.406   6.581   1.824  0.4099 -0.6512  0.7719
17091TIP3   OH272687   4.294   2.907  12.973  0.4109 -1.1263 -0.0048
17091TIP3    H172688   4.331   2.971  13.034  1.2811  1.0364 -2.6592
17091TIP3    H272689   4.332   2.823  13.001  1.6617 -0.0628  1.7090
17092TIP3   OH272690   6.033   0.291   0.005  0.5626 -0.0667 -0.2916
17092TIP3    H172691   6.068   0.237  -0.066  1.3338 -0.3468  0.2934
17092TIP3    H272692   5.958   0.336  -0.035  0.5718 -0.7274 -1.0934
17093TIP3   OH272693   0.560   0.045   0.656 -0.7678  0.0637 -0.7014
17093TIP3    H172694   0.624   0.066   0.589 -0.9415  0.6389 -0.6878
17093TIP3    H272695   0.518  -0.035   0.625  1.8345 -1.9731  0.5785
17094TIP3   OH272696   2.902   0.467   0.905 -0.2594 -0.6979 -0.0957
17094TIP3    H172697   2.837   0.438   0.969 -0.2659 -1.5270 -0.4689
17094TIP3    H272698   2.938   0.386   0.869  2.6481 -0.3337  1.7307
17095TIP3   OH272699   2.343   1.327   3.353 -0.2298  0.8275  0.0957
17095TIP3    H172700   2.370   1.271   3.426 -3.5118 -2.3607 -0.7861
17095TIP3    H272701   2.422   1.341   3.303  1.1839 -1.3493  1.5315
17096TIP3   OH272702   0.015   0.350   1.938  0.1164  0.2645  0.5043
17096TIP3    H172703  -0.012   0.299   2.014 -3.1582  2.3553  0.9983
17096TIP3    H272704   0.082   0.410   1.971 -0.1843  0.1333  1.3673
17097TIP3   OH272705   3.362   5.851   0.769 -0.4061 -0.3248  0.2294
17097TIP3    H172706   3.274   5.825   0.740  0.2234 -2.0619 -0.2815
17097TIP3    H272707   3.419   5.825   0.696  0.5821  0.3391  0.7573
17098TIP3   OH272708   0.574   0.295  12.103  0.0021  0.3531 -0.2208
17098TIP3    H172709   0.505   0.319  12.165 -0.2043  1.9900 -1.0435
17098TIP3    H272710   0.654   0.293  12.156 -0.6106 -1.6212  0.7500
17099TIP3   OH272711   0.854   6.484   3.234  0.2724  0.5898 -0.6137
17099TIP3    H172712   0.849   6.389   3.235  0.9688  0.5358 -1.0906
17099TIP3    H272713   0.910   6.506   3.309  1.3580  0.5132 -1.3751
17100TIP3   OH272714   5.317   2.644   4.398 -0.0132 -0.1811 -0.3180
17100TIP3    H172715   5.256   2.703   4.354  0.1589 -0.4335 -0.9082
17100TIP3    H272716   5.281   2.557   4.383  0.5331 -0.3434 -0.7631
17101TIP3   OH272717   0.046   3.239   4.633 -0.6811  0.0973  0.5381
17101TIP3    H172718  -0.000   3.165   4.672 -2.2345 -0.5395 -2.2326
17101TIP3    H272719  -0.022   3.285   4.583  1.4058 -0.5487 -3.2917
17102TIP3   OH272720   1.895   2.005   3.174 -0.5410 -0.1435 -0.3453
17102TIP3    H172721   1.960   2.074   3.184 -0.5353 -0.3462  1.1347
17102TIP3    H272722   1.916   1.965   3.089  1.0347  0.0488 -0.0706
17103TIP3   OH272723   5.579   3.637  13.293  0.4626  0.6128  0.1967
17103TIP3    H172724   5.615   3.651  13.381  0.0766 -0.4789  0.5448
17103TIP3    H272725   5.647   3.589  13.246 -0.0781 -0.5262  0.5302
17104TIP3   OH272726   2.032   4.127  13.893 -0.6117 -0.0894 -0.2406
17104TIP3    H172727   1.951   4.134  13.843 -0.9090  0.8008  0.3415
17104TIP3    H272728   2.090   4.074  13.838 -1.4436 -0.3905 -0.8449
17105TIP3   OH272729   0.443   3.001  14.272 -0.6755  1.0123  0.7362
17105TIP3    H172730   0.379   2.934  14.295 -1.5780  1.8336  0.6650
17105TIP3    H272731   0.412   3.080  14.315  0.9476  1.1712  1.6840
17106TIP3   OH272732   5.960   2.326  14.360  0.2646  0.4055 -0.0129
17106TIP3    H172733   5.893   2.260  14.377 -0.7028  1.9289  2.7952
17106TIP3    H272734   6.043   2.281  14.376 -0.3449 -0.2799  1.3574
17107TIP3   OH272735   6.587   5.278   0.960  0.4292  0.3520  0.1091
17107TIP3    H172736   6.590   5.285   0.865  0.1282  0.6328  0.1199
17107TIP3    H272737   6.645   5.204   0.981 -1.1743 -1.1331 -0.4562
17108TIP3   OH272738   3.307   2.089  16.888 -0.1878 -0.4416  1.0351
17108TIP3    H172739   3.285   2.162  16.831 -0.6831 -0.4431  1.2180
17108TIP3    H272740   3.402   2.083  16.884 -0.0668  0.7247  1.6390
17109TIP3   OH272741   4.752   1.603  11.428  0.6032 -0.4681 -0.0032
17109TIP3    H172742   4.743   1.685  11.380 -0.7531 -1.0293 -0.7640
17109TIP3    H272743   4.787   1.629  11.513  0.7493  0.8251 -0.4366
17110TIP3   OH272744   1.812   2.682  16.210  0.0426 -0.0325  0.5333
17110TIP3    H172745   1.720   2.661  16.221  0.9046 -3.7879  2.0844
17110TIP3    H272746   1.835   2.647  16.124  0.3086 -0.4542  0.7709
17111TIP3   OH272747   2.593   3.181  15.090  0.1347 -0.3630  0.0481
17111TIP3    H172748   2.538   3.220  15.157  1.5297  2.4323 -0.2568
17111TIP3    H272749   2.653   3.124  15.137  0.1637  0.4480  1.0283
17112TIP3   OH272750   4.595   1.312  13.104 -0.1887  0.1523  0.4692
17112TIP3    H172751   4.571   1.235  13.053  0.5292 -0.8597  1.6001
17112TIP3    H272752   4.595   1.281  13.195  3.0814  0.6190  0.7469
17113TIP3   OH272753   2.311   3.286   3.412  0.1213 -0.1234  0.5052
17113TIP3    H172754   2.317   3.314   3.504 -0.0981  0.8211  0.2434
17113TIP3    H272755   2.268   3.359   3.368  3.0895  0.8841 -0.9813
17114TIP3   OH272756   5.599   3.245  16.118  0.1620  0.2598 -0.2218
17114TIP3    H172757   5.507   3.240  16.143 -0.3465  2.6217 -1.3295
17114TIP3    H272758   5.602   3.209  16.029  0.1310  0.9390 -0.5061
17115TIP3   OH272759   1.311   1.813   3.025 -0.4107 -0.2864  0.2676
17115TIP3    H172760   1.379   1.798   2.960  0.6683  0.5171  1.1897
17115TIP3    H272761   1.302   1.729   3.070 -0.8316 -0.7087 -0.5831
17116TIP3   OH272762   1.124   0.931   0.404 -0.1173 -0.7875  0.0373
17116TIP3    H172763   1.142   0.991   0.476 -2.0207 -0.9293  0.6816
17116TIP3    H272764   1.211   0.904   0.373  0.7634  1.0687  0.7336
17117TIP3   OH272765   1.109   3.846   1.932 -0.1720 -0.2496  0.4486
17117TIP3    H172766   1.188   3.791   1.932 -0.6294 -0.9478 -1.0257
17117TIP3    H272767   1.051   3.804   1.996 -0.2688 -1.1514 -0.2099
17118TIP3   OH272768   5.958   2.153   3.429 -0.3756 -0.8891 -0.0633
17118TIP3    H172769   6.047   2.118   3.419  0.5521  0.8300  1.5222
17118TIP3    H272770   5.924   2.111   3.508  0.3110  0.7869  1.1886
17119TIP3   OH272771   4.692   4.743   5.247  0.3593 -0.6078  0.4211
17119TIP3    H172772   4.651   4.695   5.176  1.7207 -2.8812  1.0534
17119TIP3    H272773   4.768   4.786   5.207 -1.0986  1.4657 -0.2312
17120TIP3   OH272774   2.357   3.878  14.673  0.0732  0.3165  0.1025
17120TIP3    H172775   2.318   3.802  14.631  0.3607 -0.0580  0.5006
17120TIP3    H272776   2.380   3.936  14.601 -1.7107  0.8099 -0.1286
17121TIP3   OH272777   5.981   1.030   3.994  0.0193 -0.1819 -0.2794
17121TIP3    H172778   6.045   1.043   4.063 -1.0124  1.2949  0.4653
17121TIP3    H272779   6.029   0.986   3.924  1.2780 -1.0212  1.0613
17122TIP3   OH272780   4.057   5.166  14.425  0.1057  0.3206  0.2184
17122TIP3    H172781   3.964   5.152  14.406  0.0072 -1.4047  1.7161
17122TIP3    H272782   4.101   5.156  14.340 -0.8909 -0.7854 -0.1922
17123TIP3   OH272783   4.748   6.631   6.418 -0.0982 -0.6367 -0.5450
17123TIP3    H172784   4.775   6.719   6.392  0.3918 -0.1090  1.5515
17123TIP3    H272785   4.805   6.573   6.368  0.1404  0.2717 -1.3460
17124TIP3   OH272786   4.745   3.173  11.287 -0.4103  0.1941  0.4565
17124TIP3    H172787   4.677   3.151  11.350 -1.4652  0.2838 -0.6037
17124TIP3    H272788   4.819   3.117  11.311  0.0345  1.7559  3.0806
17125TIP3   OH272789   2.414   1.574  13.154  0.3694  0.3117 -0.5618
17125TIP3    H172790   2.381   1.598  13.241  1.4169  0.0108 -0.0657
17125TIP3    H272791   2.441   1.657  13.115 -2.8751  0.9142 -1.8732
17126TIP3   OH272792   3.816   5.030  11.542  0.0848  0.5526 -0.3769
17126TIP3    H172793   3.799   5.058  11.632 -0.1169 -1.2455  0.1885
17126TIP3    H272794   3.911   5.018  11.538  0.1139  0.8118 -0.4580
17127TIP3   OH272795   3.379   4.581   1.286  0.1387  0.1738 -0.3708
17127TIP3    H172796   3.316   4.559   1.355  0.4686  0.2083 -0.0520
17127TIP3    H272797   3.329   4.629   1.221 -0.4066 -0.7306 -0.6446
17128TIP3   OH272798   2.637   5.264   1.671  0.4112 -0.4771 -0.2504
17128TIP3    H172799   2.658   5.316   1.593  2.2616 -0.1758  0.4076
17128TIP3    H272800   2.596   5.326   1.731  1.8058  0.0562  0.1862
17129TIP3   OH272801   4.597   4.264  12.490  0.1718 -0.4174 -0.0147
17129TIP3    H172802   4.616   4.313  12.410 -0.4867 -1.1357 -0.6459
17129TIP3    H272803   4.600   4.172  12.462  1.4212 -0.7455  1.1418
17130TIP3   OH272804   4.676   6.163  12.114 -0.3965  0.2134 -0.0685
17130TIP3    H172805   4.712   6.244  12.153  1.1923 -0.6527  0.3662
17130TIP3    H272806   4.633   6.192  12.034 -1.7032  1.7510  1.1181
17131TIP3   OH272807   1.032   2.706   3.275 -0.2751  0.1186  0.0726
17131TIP3    H172808   1.017   2.682   3.183 -0.6502 -0.3698  0.2577
17131TIP3    H272809   0.964   2.661   3.323 -1.0112  1.5604  0.4474
17132TIP3   OH272810   1.792   0.087  14.710  0.1127  0.5925 -0.2454
17132TIP3    H172811   1.851   0.036  14.766  1.1819  0.7886 -1.1450
17132TIP3    H272812   1.731   0.023  14.673 -1.9557  0.7125  2.6533
17133TIP3   OH272813   2.253   3.184   1.711 -0.5678 -0.3954 -0.4481
17133TIP3    H172814   2.250   3.148   1.799  0.2552  1.4275  0.3894
17133TIP3    H272815   2.346   3.200   1.695 -0.8633  0.9782 -0.8964
17134TIP3   OH272816   1.404   4.001   4.031 -0.2650 -0.2705 -0.6124
17134TIP3    H172817   1.479   4.015   4.088 -0.1486 -0.9457 -0.5950
17134TIP3    H272818   1.418   3.914   3.993  0.2353  0.5959 -2.5557
17135TIP3   OH272819   3.364   2.809  15.788 -0.3112  0.2203 -0.3501
17135TIP3    H172820   3.325   2.895  15.799  2.1840  1.6314 -1.4902
17135TIP3    H272821   3.368   2.797  15.693 -0.8969 -1.3348 -0.2130
17136TIP3   OH272822   5.022   2.639   3.065 -0.0724  0.1341 -0.0066
17136TIP3    H172823   5.041   2.577   2.995  0.7409 -1.0827  1.2191
17136TIP3    H272824   5.084   2.710   3.052  1.8878 -1.2969  0.8828
17137TIP3   OH272825   4.198   5.687  11.731 -0.7956  0.1639 -0.1434
17137TIP3    H172826   4.172   5.648  11.814  2.2464 -0.7235  0.5255
17137TIP3    H272827   4.190   5.615  11.668 -0.9092  0.1768 -0.1437
17138TIP3   OH272828   5.328   5.080  12.823 -0.0588  0.3774  0.6344
17138TIP3    H172829   5.239   5.091  12.857 -0.0770  0.0762  0.6857
17138TIP3    H272830   5.384   5.077  12.900 -0.2201 -1.4355  0.7138
17139TIP3   OH272831   4.647   6.553  16.451  0.6133  0.3720 -0.4567
17139TIP3    H172832   4.728   6.603  16.462 -0.3896  1.7498  0.9576
17139TIP3    H272833   4.638   6.542  16.356  1.7213  1.4130 -0.6996
17140TIP3   OH272834   5.746   2.226   1.846 -0.9312  0.3173  0.1391
17140TIP3    H172835   5.690   2.255   1.774 -1.8725  1.4650  1.2975
17140TIP3    H272836   5.710   2.268   1.923  0.1419 -0.7812  1.2855
17141TIP3   OH272837   0.699   2.823   3.129 -0.0480 -0.0229  0.0695
17141TIP3    H172838   0.784   2.801   3.091 -0.2773  1.3460 -1.3379
17141TIP3    H272839   0.638   2.758   3.094 -0.0579  0.5945 -1.1135
17142TIP3   OH272840   6.271   2.114  12.312  0.1050 -0.3378  0.1696
17142TIP3    H172841   6.332   2.086  12.381  1.5022  2.5567  0.2823
17142TIP3    H272842   6.204   2.164  12.358 -1.0995 -1.5393 -0.2257
17143TIP3   OH272843   5.173   2.770   0.921  0.0677  0.2012 -0.5960
17143TIP3    H172844   5.172   2.716   1.000 -0.2199  1.2265  0.1221
17143TIP3    H272845   5.222   2.848   0.947  1.4736 -0.1809 -1.9455
17144TIP3   OH272846   3.399   4.972   5.995  0.2731  0.1001 -0.4841
17144TIP3    H172847   3.387   4.954   5.902  0.7926  1.1411 -0.7667
17144TIP3    H272848   3.406   4.885   6.035 -2.9453 -0.5293 -0.9620
17145TIP3   OH272849   4.674   4.584  12.078  0.1815  0.6236  0.4689
17145TIP3    H172850   4.699   4.672  12.049  1.7661 -0.2516 -1.0590
17145TIP3    H272851   4.757   4.535  12.078 -0.5205 -0.6658  2.1299
17146TIP3   OH272852   5.944   1.802  13.393 -0.5389  0.2372  0.2327
17146TIP3    H172853   5.907   1.743  13.328  0.7149  1.3412 -1.5794
17146TIP3    H272854   5.941   1.753  13.475 -2.8404 -0.9349 -0.4862
17147TIP3   OH272855   6.009   1.205  12.230  0.2802 -0.5857 -0.0420
17147TIP3    H172856   6.000   1.225  12.137 -1.3548 -1.0333 -0.0033
17147TIP3    H272857   5.924   1.225  12.268  0.7843 -0.8487  1.2875
17148TIP3   OH272858   5.093   5.936  13.410  0.5455 -0.1907  0.0551
17148TIP3    H172859   5.112   6.029  13.399 -0.0405 -0.0229  0.4193
17148TIP3    H272860   5.173   5.892  13.382  0.4435  0.3724 -1.1992
17149TIP3   OH272861   4.698   5.618   1.984  0.2492 -0.6257 -0.2047
17149TIP3    H172862   4.669   5.634   2.074  1.4201 -0.2467  0.1163
17149TIP3    H272863   4.696   5.704   1.942 -0.0204 -0.7559 -0.4609
17150TIP3   OH272864   0.183   0.113   0.459 -0.4820  0.3955 -0.6892
17150TIP3    H172865   0.136   0.196   0.462  1.1532  1.4045  3.3234
17150TIP3    H272866   0.250   0.126   0.392 -2.8011  0.5794 -3.1657
17151TIP3   OH272867   6.523   1.982   3.739 -0.1514  0.3851 -0.1866
17151TIP3    H172868   6.589   1.998   3.806 -0.8275  1.2369  0.3088
17151TIP3    H272869   6.541   2.047   3.671  0.2330 -0.1558 -0.6092
17152TIP3   OH272870   6.231   1.118   6.291  0.3206 -0.3814 -0.2952
17152TIP3    H172871   6.281   1.167   6.225  0.8146 -1.4740 -0.7615
17152TIP3    H272872   6.295   1.100   6.360  0.3872 -1.1285 -0.5431
17153TIP3   OH272873   3.861   2.079   3.208 -0.0008  0.0708  0.1353
17153TIP3    H172874   3.922   2.006   3.197 -0.6246 -0.7001  1.5412
17153TIP3    H272875   3.792   2.063   3.143  1.2672  1.0032 -1.5358
17154TIP3   OH272876   1.244   1.528  12.971  0.1957  0.4627 -0.1121
17154TIP3    H172877   1.178   1.580  13.018  1.4883  0.5321  1.7529
17154TIP3    H272878   1.202   1.506  12.888 -2.4761 -0.1426  1.2707
17155TIP3   OH272879   0.511   2.071   2.967 -0.0888  0.1388  0.6808
17155TIP3    H172880   0.567   2.081   2.890 -0.4349  1.0718  0.5418
17155TIP3    H272881   0.454   2.148   2.966 -0.0458  0.2080  1.9116
17156TIP3   OH272882   1.995   5.463  16.973  0.0244 -0.0041  0.0917
17156TIP3    H172883   1.909   5.493  16.944  0.6351  0.0793 -1.7952
17156TIP3    H272884   1.979   5.419  17.056 -1.5951  1.3339  0.5261
17157TIP3   OH272885   2.276   0.316   3.257  0.6558 -0.0531  0.2444
17157TIP3    H172886   2.351   0.298   3.313  0.7219 -1.4094 -0.2383
17157TIP3    H272887   2.254   0.231   3.217 -1.7123  0.0796  1.0864
17158TIP3   OH272888   1.130   0.636  10.700  0.0667  0.7941  0.8169
17158TIP3    H172889   1.127   0.578  10.776  0.3455 -1.0567 -0.5324
17158TIP3    H272890   1.048   0.621  10.655  0.5651  0.7009 -0.0823
17159TIP3   OH272891   0.960   3.768  15.104  0.5722  0.5643 -0.5854
17159TIP3    H172892   1.018   3.844  15.099  0.6456  1.1407  4.2604
17159TIP3    H272893   1.013   3.699  15.143 -1.2221  0.4283  1.9096
17160TIP3   OH272894   0.913   5.201   3.740 -0.3654 -0.2724  0.2704
17160TIP3    H172895   0.972   5.127   3.751  1.7235  1.4835  1.8600
17160TIP3    H272896   0.970   5.273   3.712 -2.0861  1.0650  0.0111
17161TIP3   OH272897   5.433   1.389   2.757  0.7783 -0.2382 -0.6824
17161TIP3    H172898   5.503   1.329   2.733  1.1953  0.4404 -1.2265
17161TIP3    H272899   5.353   1.348   2.724  1.1243 -0.2461 -1.5361
17162TIP3   OH272900   6.304   3.481  14.768  0.4542  0.9288 -0.2808
17162TIP3    H172901   6.399   3.474  14.776  0.3213 -0.3734  0.5909
17162TIP3    H272902   6.273   3.393  14.787 -1.0229  1.6995  1.1224
17163TIP3   OH272903   5.899   2.484  12.177 -0.0459  0.4116  0.4337
17163TIP3    H172904   5.837   2.443  12.236 -0.8777  0.0914 -0.6263
17163TIP3    H272905   5.918   2.569  12.217  0.2248 -0.2053  1.6714
17164TIP3   OH272906   6.011   5.256  16.352 -0.7505 -0.2421  0.4210
17164TIP3    H172907   5.941   5.223  16.295 -1.2415  0.6546  0.4867
17164TIP3    H272908   5.978   5.241  16.440 -1.8346  2.0940  0.4709
17165TIP3   OH272909   4.869   0.755   4.789 -0.1360  0.6399 -0.3782
17165TIP3    H172910   4.830   0.703   4.860 -0.1048  1.1659  0.0302
17165TIP3    H272911   4.960   0.726   4.787 -0.3762 -0.1057 -0.8852
17166TIP3   OH272912   2.711   1.502  16.043  0.0033  0.0087 -0.3771
17166TIP3    H172913   2.680   1.419  16.005 -2.4538  0.4927  0.4529
17166TIP3    H272914   2.675   1.504  16.131  0.4111  1.7651 -0.2082
17167TIP3   OH272915   5.630   5.680  12.859 -0.4854  0.3343  0.0770
17167TIP3    H172916   5.591   5.633  12.786  1.8119  0.3157 -1.2242
17167TIP3    H272917   5.560   5.738  12.891 -1.7716 -0.2344 -1.5882
17168TIP3   OH272918   0.553   0.799  13.900 -0.1978  0.0406 -0.2136
17168TIP3    H172919   0.568   0.778  13.992 -0.8191  2.0983  0.4192
17168TIP3    H272920   0.546   0.714  13.857  5.0250 -1.2113  0.6742
17169TIP3   OH272921   2.890   4.789  14.791 -0.4808 -0.2118  0.4902
17169TIP3    H172922   2.977   4.750  14.784 -0.2490  0.5664 -1.5830
17169TIP3    H272923   2.905   4.877  14.826 -0.2348  0.4728 -1.2688
17170TIP3   OH272924   0.244   1.030  15.770  0.4404  0.4364  0.1381
17170TIP3    H172925   0.246   1.005  15.677 -0.3846  1.2897 -0.1215
17170TIP3    H272926   0.328   0.999  15.805  0.1591 -1.1923 -0.5385
17171TIP3   OH272927   4.057   5.427  14.582 -0.2719  0.4754  0.2922
17171TIP3    H172928   4.142   5.469  14.570 -0.6169  1.0861 -0.0794
17171TIP3    H272929   4.051   5.363  14.511 -0.1215  0.4214  0.3273
17172TIP3   OH272930   1.834   0.810   3.883  0.1985  0.1268  0.3852
17172TIP3    H172931   1.827   0.782   3.792  1.2736 -0.7421  0.5541
17172TIP3    H272932   1.746   0.793   3.919 -0.7235  1.9484 -0.8467
17173TIP3   OH272933   5.854   6.652  15.742  0.4858 -0.5028  0.2180
17173TIP3    H172934   5.825   6.684  15.656  0.8288 -0.5828  0.0724
17173TIP3    H272935   5.773   6.636  15.790  0.2955 -0.2432 -0.0134
17174TIP3   OH272936   5.853   3.693  13.512 -0.9772  0.3350 -0.4148
17174TIP3    H172937   5.908   3.770  13.495 -2.4455  1.3474 -0.8196
17174TIP3    H272938   5.869   3.636  13.437  0.8233 -0.2300  0.3326
17175TIP3   OH272939   6.628   1.050   1.023  0.1003 -0.1278 -0.2990
17175TIP3    H172940   6.587   0.975   1.065  0.7648 -0.5128 -0.3245
17175TIP3    H272941   6.722   1.035   1.033  0.2621  0.0086 -1.5025
17176TIP3   OH272942   4.891   4.859   5.048  0.9951  0.1991  0.1008
17176TIP3    H172943   4.829   4.927   5.022 -0.3018 -1.0691 -0.1983
17176TIP3    H272944   4.970   4.908   5.072  0.7883  1.7183 -1.9616
17177TIP3   OH272945   3.070   2.353  15.555 -0.2400 -0.1360  0.1300
17177TIP3    H172946   3.165   2.346  15.562 -0.1413  0.5563 -0.4070
17177TIP3    H272947   3.044   2.406  15.630 -0.0531  0.7438 -0.4175
17178TIP3   OH272948   1.363   3.355   5.573  0.7080 -0.2224  0.1046
17178TIP3    H172949   1.448   3.325   5.606  0.7396 -0.2468  0.0034
17178TIP3    H272950   1.369   3.340   5.478 -0.3332 -2.6250  0.3344
17179TIP3   OH272951   0.925   3.338  14.559 -0.0193  0.5207  0.1348
17179TIP3    H172952   0.942   3.245  14.570  0.2963  0.1488 -2.8230
17179TIP3    H272953   0.969   3.380  14.633  1.4538 -1.5257  0.4840
17180TIP3   OH272954   3.967   6.489   2.848  0.0352  0.3217  0.1221
17180TIP3    H172955   4.053   6.469   2.812  0.1819  0.2213  0.5193
17180TIP3    H272956   3.980   6.568   2.900 -0.2859  0.7610 -0.4575
17181TIP3   OH272957   2.184   4.164  15.183 -0.5603  1.1748  0.0726
17181TIP3    H172958   2.249   4.095  15.168 -1.5048  0.6506 -1.9630
17181TIP3    H272959   2.157   4.154  15.274  0.2036 -0.3531  0.1513
17182TIP3   OH272960   6.359   3.250   3.894 -0.6067  0.5509 -0.4073
17182TIP3    H172961   6.411   3.264   3.815  1.4057  1.0106  0.9265
17182TIP3    H272962   6.421   3.216   3.958 -2.1257  0.4020  1.0662
17183TIP3   OH272963   2.271   0.803   1.200  0.1615 -0.3528 -0.0886
17183TIP3    H172964   2.264   0.874   1.264  0.4543 -0.5766  0.1958
17183TIP3    H272965   2.320   0.841   1.127 -2.1435  0.6147 -1.2261
17184TIP3   OH272966   3.917   6.273   2.236  0.5888  0.1359 -0.7883
17184TIP3    H172967   3.965   6.215   2.295 -1.9824  0.5768  1.9646
17184TIP3    H272968   3.964   6.356   2.241  1.5356 -0.3777 -0.9451
17185TIP3   OH272969   4.754   1.149   3.579  0.2106  0.1157 -0.0580
17185TIP3    H172970   4.723   1.220   3.636  1.0020  0.9038 -0.5881
17185TIP3    H272971   4.803   1.091   3.637 -0.7075 -0.1831  0.4419
17186TIP3   OH272972   5.060   0.611  16.759  0.2216  0.3198  0.0593
17186TIP3    H172973   4.978   0.629  16.714 -0.1225 -2.9712 -0.8793
17186TIP3    H272974   5.084   0.694  16.799 -3.1695  1.6059 -0.2437
17187TIP3   OH272975   5.949   5.892   1.486  0.1264 -0.1964  0.3223
17187TIP3    H172976   5.926   5.874   1.395 -0.0418 -2.6398  0.7859
17187TIP3    H272977   5.865   5.897   1.532  0.2003 -3.4609  1.0359
17188TIP3   OH272978   2.126   0.416  15.176  0.1953  0.1901  0.1340
17188TIP3    H172979   2.188   0.379  15.239 -0.7066 -0.5215  0.6198
17188TIP3    H272980   2.117   0.508  15.203 -0.4563 -0.1887  1.3048
17189TIP3   OH272981   1.869   0.185   6.273  0.3175  0.0609  0.1811
17189TIP3    H172982   1.864   0.093   6.300  1.4773 -0.1911 -0.3454
17189TIP3    H272983   1.783   0.204   6.235  0.0428 -0.7981  0.3476
17190TIP3   OH272984   0.771   1.475   1.698 -0.5292 -0.6347  0.0081
17190TIP3    H172985   0.760   1.394   1.648  0.5601 -1.6759  1.3815
17190TIP3    H272986   0.787   1.542   1.632  0.0805 -1.8221 -1.0900
17191TIP3   OH272987   1.336   4.204  14.668 -0.0779  0.1547  0.3384
17191TIP3    H172988   1.407   4.210  14.605 -0.3857  1.9511  0.1105
17191TIP3    H272989   1.345   4.117  14.706  0.3873 -0.8124 -1.8484
17192TIP3   OH272990   0.703   2.877   1.756  0.1051  0.6223 -0.4734
17192TIP3    H172991   0.770   2.819   1.721 -0.1381  0.4586 -0.6648
17192TIP3    H272992   0.753   2.947   1.799  0.3965  0.3570 -0.3766
17193TIP3   OH272993   3.071   0.538   4.741  0.3959 -0.5396  0.0442
17193TIP3    H172994   3.147   0.571   4.790  0.3653 -0.8680  0.3138
17193TIP3    H272995   3.002   0.531   4.807 -0.4812  1.6467 -0.5386
17194TIP3   OH272996   4.640   4.686  11.405 -0.5892  0.6044 -1.0612
17194TIP3    H172997   4.606   4.723  11.324  0.6101  3.0724 -0.5265
17194TIP3    H272998   4.611   4.747  11.473  1.4354  0.5697 -0.0967
17195TIP3   OH272999   4.051   2.746  12.269  0.5455  0.0160 -0.2413
17195TIP3    H173000   3.994   2.720  12.197  0.7909 -0.0871 -0.4006
17195TIP3    H273001   4.023   2.835  12.291  0.4649  0.0449 -0.4592
17196TIP3   OH273002   1.504   3.024  13.016  0.6565  0.0923  0.2922
17196TIP3    H173003   1.476   3.108  13.051  1.3904  0.0553  1.0052
17196TIP3    H273004   1.436   3.000  12.953 -0.0626  0.7447  0.8047
17197TIP3   OH273005   4.595   5.865  11.325  0.0788  0.1192 -0.3181
17197TIP3    H173006   4.577   5.842  11.234 -0.8565  1.2373 -0.4369
17197TIP3    H273007   4.570   5.787  11.375 -2.1970  0.4874 -0.7717
17198TIP3   OH273008   5.458   6.536  11.282  0.1023 -0.0439 -0.1735
17198TIP3    H173009   5.507   6.532  11.200 -0.3425  0.7678 -0.4905
17198TIP3    H273010   5.366   6.540  11.255 -0.0522  0.1714  0.3592
17199TIP3   OH273011   6.242   5.005   2.791  0.2556 -0.7096  0.0699
17199TIP3    H173012   6.165   5.059   2.811  1.3599  1.6222 -1.5573
17199TIP3    H273013   6.220   4.919   2.826 -2.5253  0.2122  0.8661
17200TIP3   OH273014   6.372   1.640  13.975 -0.1877  0.1056  0.5772
17200TIP3    H173015   6.312   1.615  13.905 -0.6827  2.0066  0.2694
17200TIP3    H273016   6.324   1.705  14.026  0.4848 -0.6176  2.1996
17201TIP3   OH273017   6.733   4.088  16.561 -0.2035 -0.0371 -0.3186
17201TIP3    H173018   6.768   4.076  16.649 -0.5086 -1.3280 -0.3544
17201TIP3    H273019   6.706   4.000  16.534  0.2017  0.2764 -1.8317
17202TIP3   OH273020   4.196   2.138  13.745 -0.0711  0.0718  0.8542
17202TIP3    H173021   4.178   2.055  13.700  0.4759  0.3875  0.0383
17202TIP3    H273022   4.272   2.173  13.700  0.0601  0.7350  1.5910
17203TIP3   OH273023   5.917   0.692  14.554 -0.4613  0.2470 -0.1561
17203TIP3    H173024   5.890   0.779  14.528 -2.5490 -0.8107 -1.7808
17203TIP3    H273025   5.836   0.647  14.579  0.4130 -1.5083 -0.2550
17204TIP3   OH273026   0.518   4.978  16.680 -0.0612  0.2583  0.1356
17204TIP3    H173027   0.463   4.997  16.756 -0.0649 -0.6495  0.3635
17204TIP3    H273028   0.560   4.895  16.701 -1.8953 -1.2794 -1.8784
17205TIP3   OH273029   3.153   6.537   2.213  0.4610  0.2937 -0.4499
17205TIP3    H173030   3.075   6.592   2.223 -0.5843 -1.3663  0.9294
17205TIP3    H273031   3.169   6.500   2.300  3.4130  1.3123 -0.4323
17206TIP3   OH273032   3.933   0.189   0.056  0.5009  0.2668 -0.5131
17206TIP3    H173033   3.949   0.196  -0.038 -0.1137 -2.9724 -0.9797
17206TIP3    H273034   3.875   0.113   0.065  1.6240 -0.3846  2.5873
17207TIP3   OH273035   4.340   3.140  11.092  0.0638 -0.8163  0.1917
17207TIP3    H173036   4.308   3.125  11.003 -0.3093  2.3853 -0.3379
17207TIP3    H273037   4.435   3.130  11.084  0.0539 -0.3547 -0.6145
17208TIP3   OH273038   6.090   1.541  12.251 -0.2272 -0.4446 -0.6019
17208TIP3    H173039   6.126   1.485  12.182  2.4003 -0.9762  1.0749
17208TIP3    H273040   6.143   1.522  12.328 -1.6737  1.6602  1.0334
17209TIP3   OH273041   6.739   6.123  13.250 -0.5472 -0.1847  0.6165
17209TIP3    H173042   6.782   6.199  13.211 -0.8738  0.1760  0.9514
17209TIP3    H273043   6.694   6.081  13.176  0.8953 -0.9388  0.1400
17210TIP3   OH273044   3.472   4.811  15.064 -0.3445  0.3506 -0.5073
17210TIP3    H173045   3.468   4.749  14.991  0.1919 -1.7754  1.1756
17210TIP3    H273046   3.556   4.856  15.052 -0.8897  1.0655 -1.9307
17211TIP3   OH273047   6.489   6.126   5.266 -0.0545 -0.3074  0.8637
17211TIP3    H173048   6.405   6.084   5.246  0.2548 -0.0232 -1.2505
17211TIP3    H273049   6.465   6.204   5.316 -1.1339  0.1547 -0.3161
17212TIP3   OH273050   6.467   2.290   2.540 -0.7995 -0.6112 -0.3346
17212TIP3    H173051   6.523   2.212   2.536 -0.4778 -0.3781 -0.4316
17212TIP3    H273052   6.415   2.278   2.620  1.4284  0.5213  1.3870
17213TIP3   OH273053   4.896   2.229  15.623  0.0494 -0.2413 -0.3005
17213TIP3    H173054   4.838   2.268  15.688 -0.2320 -1.4896  0.2254
17213TIP3    H273055   4.842   2.163  15.580  0.1632  0.7247 -1.9909
17214TIP3   OH273056   2.710   0.355   2.252 -0.2167 -0.2825  0.0131
17214TIP3    H173057   2.645   0.286   2.239 -0.3965  0.3299 -3.2630
17214TIP3    H273058   2.791   0.308   2.276 -0.9193 -1.3708  0.3268
17215TIP3   OH273059   6.083   0.286  14.049 -0.3362 -0.4452 -0.1198
17215TIP3    H173060   6.175   0.261  14.038  0.8429  2.0038  2.6649
17215TIP3    H273061   6.043   0.212  14.095  0.1745 -1.5421 -1.3760
17216TIP3   OH273062   3.892   1.368   1.920  0.0193 -0.3690  0.1225
17216TIP3    H173063   3.944   1.447   1.933  0.3280  0.0482 -2.8956
17216TIP3    H273064   3.953   1.306   1.880 -1.1137 -0.8381 -0.9107
17217TIP3   OH273065   2.076   2.850   0.533 -0.7227  0.0631  0.0068
17217TIP3    H173066   2.169   2.830   0.536 -0.1747  2.3336  0.6485
17217TIP3    H273067   2.052   2.868   0.624 -1.4661  0.7267 -0.3059
17218TIP3   OH273068   1.437   5.441  12.931  0.3995  0.7828  0.1879
17218TIP3    H173069   1.381   5.452  13.008  0.4402 -1.2185  0.5654
17218TIP3    H273070   1.526   5.446  12.965  0.4318 -1.1896  0.5325
17219TIP3   OH273071   2.545   6.376  16.456 -0.1990  0.5302  0.2318
17219TIP3    H173072   2.639   6.391  16.451 -0.0363 -0.4395  0.1832
17219TIP3    H273073   2.528   6.362  16.549 -0.2995  0.6968  0.2405
17220TIP3   OH273074   6.753   5.171  14.153 -0.2374  0.1070 -0.1451
17220TIP3    H173075   6.705   5.242  14.196 -0.7340 -0.7278  0.7213
17220TIP3    H273076   6.844   5.202  14.148 -0.0806  0.1127  1.8677
17221TIP3   OH273077   0.476   5.870   2.391 -0.3680  0.2610  0.3144
17221TIP3    H173078   0.458   5.916   2.472  0.5531 -0.9908  1.2718
17221TIP3    H273079   0.564   5.898   2.366  0.2813 -1.0760  1.0122
17222TIP3   OH273080   3.357   3.193   5.129 -0.0813 -0.1002 -0.0144
17222TIP3    H173081   3.411   3.266   5.099 -1.6549  1.5844  1.0600
17222TIP3    H273082   3.304   3.169   5.053  0.9379 -0.6288 -0.5760
17223TIP3   OH273083   6.166   3.224   0.875  0.3314  0.4243 -0.1250
17223TIP3    H173084   6.091   3.282   0.866 -0.1692  0.0141  1.0707
17223TIP3    H273085   6.234   3.278   0.914  0.6804  0.8109 -1.2607
17224TIP3   OH273086   0.600   0.439   0.681 -0.7964 -0.4061 -0.0549
17224TIP3    H173087   0.616   0.463   0.772  2.1708 -0.1074 -0.5548
17224TIP3    H273088   0.536   0.368   0.686  0.1755 -1.2108  2.3397
17225TIP3   OH273089   1.314   1.372  12.182 -0.3472  0.5288  0.2528
17225TIP3    H173090   1.219   1.365  12.167 -0.6048  2.3178  0.8334
17225TIP3    H273091   1.353   1.318  12.113 -1.7536  0.6427 -0.6749
17226TIP3   OH273092   3.770   0.057   3.924 -0.6018 -0.7297  0.0359
17226TIP3    H173093   3.793   0.052   4.016  0.1809  1.4402  0.0179
17226TIP3    H273094   3.677   0.082   3.923 -0.2130  0.8400  0.3091
17227TIP3   OH273095   1.801   0.226  13.799 -0.1120  0.1408  0.1634
17227TIP3    H173096   1.783   0.302  13.744  1.3383  0.7447  0.4840
17227TIP3    H273097   1.738   0.233  13.871  0.4409  1.4331  0.5482
17228TIP3   OH273098   3.703   0.936  13.401 -0.3631  0.2552 -0.2020
17228TIP3    H173099   3.662   0.867  13.453 -0.5967  0.2418 -0.4003
17228TIP3    H273100   3.644   1.011  13.411 -0.7802  0.0442 -1.0070
17229TIP3   OH273101   1.236   1.383  13.941  0.0400  0.5218  0.2779
17229TIP3    H173102   1.168   1.317  13.952 -0.1745  0.7809  0.4936
17229TIP3    H273103   1.287   1.380  14.022  0.3050  0.3066  0.1045
17230TIP3   OH273104   3.246   2.748   4.659  0.5185  0.4919 -0.2192
17230TIP3    H173105   3.272   2.752   4.751 -0.3228 -0.9238  0.1080
17230TIP3    H273106   3.166   2.800   4.654  0.6357  0.6757 -0.1802
17231TIP3   OH273107   6.295   2.678  11.419 -0.0688 -0.2221  0.3419
17231TIP3    H173108   6.382   2.719  11.415 -0.6080  0.9791  0.3211
17231TIP3    H273109   6.258   2.691  11.331 -1.7559  2.8387  1.3187
17232TIP3   OH273110   2.531   1.116   0.028  0.5000 -0.1915  0.1769
17232TIP3    H173111   2.453   1.156   0.067 -0.3325  0.3858 -1.9616
17232TIP3    H273112   2.518   1.124  -0.066  2.4688 -1.4424 -0.2613
17233TIP3   OH273113   0.451   0.721   2.197 -0.8068  0.7370 -0.1019
17233TIP3    H173114   0.469   0.660   2.268 -1.2353 -1.2280 -1.6151
17233TIP3    H273115   0.525   0.713   2.138 -0.7696  1.8711 -0.2418
17234TIP3   OH273116   2.077   0.598   3.876 -0.1848  0.1738 -0.0391
17234TIP3    H173117   2.055   0.565   3.963  0.3503 -0.5708 -0.1787
17234TIP3    H273118   2.004   0.656   3.854 -0.9337 -0.5784  0.4031
17235TIP3   OH273119   3.456   1.042  15.604 -0.2105  0.8257 -0.2746
17235TIP3    H173120   3.424   1.024  15.515  0.2053 -1.0891 -0.0679
17235TIP3    H273121   3.379   1.076  15.650 -1.3914 -1.4342 -0.4371
17236TIP3   OH273122   0.002   0.166  11.447  0.0348 -0.0894 -0.2182
17236TIP3    H173123  -0.080   0.212  11.468 -0.7472 -1.5206  0.0295
17236TIP3    H273124  -0.023   0.074  11.446  1.5573 -0.5159 -0.6667
17237TIP3   OH273125   5.578   5.995   0.853 -1.1469 -0.1985 -0.3190
17237TIP3    H173126   5.544   6.034   0.773 -1.4651  1.1723  0.4385
17237TIP3    H273127   5.673   6.012   0.850 -1.1441 -0.2350 -0.4457
17238TIP3   OH273128   3.075   2.040   0.037  0.5252  0.0178  0.2954
17238TIP3    H173129   3.004   2.007   0.091  0.2417  0.7757  0.4052
17238TIP3    H273130   3.038   2.045  -0.051  0.1545  1.1957  0.4964
17239TIP3   OH273131   1.636   3.670  14.876 -0.3529 -0.1673  0.1676
17239TIP3    H173132   1.701   3.617  14.831 -0.4264 -0.4762  0.4237
17239TIP3    H273133   1.560   3.671  14.817  0.2466  1.0846 -0.6364
17240TIP3   OH273134   6.215   2.619   3.715 -0.1949 -0.5371 -0.1950
17240TIP3    H173135   6.253   2.692   3.764 -0.2900 -0.3734 -0.3658
17240TIP3    H273136   6.132   2.654   3.681  0.0798 -0.5112 -0.8496
17241TIP3   OH273137   2.944   2.842  10.380 -0.3603 -0.0523 -0.1030
17241TIP3    H173138   2.873   2.864  10.440 -0.2495 -0.2126  0.0900
17241TIP3    H273139   2.901   2.809  10.301 -0.4874 -1.1113  0.3897
17242TIP3   OH273140   3.045   5.450  13.167  0.4473 -0.8918 -0.1412
17242TIP3    H173141   2.952   5.451  13.144  0.5577  1.4746 -0.8441
17242TIP3    H273142   3.090   5.459  13.082  1.2184 -0.1117  0.3336
17243TIP3   OH273143   1.519   3.663   5.628 -0.0120  0.0398  1.2279
17243TIP3    H173144   1.518   3.569   5.645  0.0480 -0.4430 -1.1092
17243TIP3    H273145   1.426   3.688   5.626 -0.3364 -0.9080 -2.2767
17244TIP3   OH273146   4.774   1.685  16.575 -0.0274  0.7332  0.5198
17244TIP3    H173147   4.718   1.609  16.595 -0.5910  0.6068 -1.3727
17244TIP3    H273148   4.859   1.662  16.612  0.0105 -1.1785 -0.6251
17245TIP3   OH273149   4.927   2.208   4.365 -0.2641  0.0912  0.2144
17245TIP3    H173150   4.924   2.112   4.367  0.3761  0.0712  0.3660
17245TIP3    H273151   4.948   2.229   4.274  0.8998  0.0417  0.4637
17246TIP3   OH273152   3.064   0.713  12.145  0.1265  0.0242 -0.5403
17246TIP3    H173153   3.093   0.769  12.072 -1.0110 -0.4618 -1.3821
17246TIP3    H273154   3.037   0.632  12.103 -1.1726 -0.0225  0.3600
17247TIP3   OH273155   1.041   2.902   1.846 -0.2414 -0.2856 -0.2727
17247TIP3    H173156   1.005   2.904   1.934 -0.4304  0.5812 -0.3558
17247TIP3    H273157   1.131   2.935   1.856  0.0294 -1.0095 -0.2827
17248TIP3   OH273158   2.760   2.020   0.071 -0.3379 -0.1820  0.3219
17248TIP3    H173159   2.713   1.941   0.097 -0.0812  0.0735  1.6678
17248TIP3    H273160   2.695   2.073   0.024 -1.2149 -0.1458  1.5365
17249TIP3   OH273161   0.764   1.395  14.167 -0.0531  0.3768  0.0143
17249TIP3    H173162   0.829   1.332  14.135 -1.2029 -0.2729 -1.0754
17249TIP3    H273163   0.809   1.480  14.161  1.9377 -0.3379  2.5701
17250TIP3   OH273164   6.804   2.828  10.137 -0.0107 -0.8490  0.0300
17250TIP3    H173165   6.766   2.911  10.108  0.5841  0.5420  2.8399
17250TIP3    H273166   6.729   2.769  10.145 -1.0221  0.5389  1.3984
17251TIP3   OH273167   3.862   3.103  12.837  0.0655  0.2271 -0.1709
17251TIP3    H173168   3.853   3.097  12.742 -2.0728  0.9429 -0.0525
17251TIP3    H273169   3.928   3.037  12.859 -0.2482 -0.7706 -2.0187
17252TIP3   OH273170   0.232   0.599   5.177 -0.4300 -0.4248 -0.0993
17252TIP3    H173171   0.310   0.570   5.130 -0.9874 -1.0908 -0.6423
17252TIP3    H273172   0.211   0.527   5.236  0.5935  0.6349  1.6395
17253TIP3   OH273173   4.143   5.713  16.522 -0.4628  0.3743 -0.0680
17253TIP3    H173174   4.223   5.746  16.564  0.2601 -1.0827 -0.2391
17253TIP3    H273175   4.091   5.678  16.593 -0.0010 -0.5502 -0.1692
17254TIP3   OH273176   4.906   3.987  10.692  0.4406 -0.0757  0.9023
17254TIP3    H173177   4.832   3.978  10.632 -0.1924  0.2687  1.6059
17254TIP3    H273178   4.910   3.903  10.738 -0.9811  0.6419  2.4636
17255TIP3   OH273179   3.932   4.957   5.735 -0.2767  0.1091 -0.0948
17255TIP3    H173180   3.978   4.986   5.657  2.5390 -0.4992  1.2018
17255TIP3    H273181   3.917   4.864   5.721  0.6571 -0.1068  0.2074
17256TIP3   OH273182   2.019   3.651  11.282 -0.4386 -0.1490 -0.4341
17256TIP3    H173183   2.059   3.630  11.366 -1.4836  0.6379  0.2882
17256TIP3    H273184   2.032   3.572  11.229  0.4791 -0.5541  0.3601
17257TIP3   OH273185   2.593   5.965   5.670 -0.0768 -0.0613  0.2390
17257TIP3    H173186   2.600   6.009   5.586 -0.1028 -0.2769  0.1248
17257TIP3    H273187   2.523   6.012   5.716  0.5026  0.5895  0.4693
17258TIP3   OH273188   1.302   4.406  11.479  0.1286  0.4837  0.1097
17258TIP3    H173189   1.259   4.322  11.493  0.6626  0.2041  0.0571
17258TIP3    H273190   1.229   4.468  11.469 -0.2662 -0.0540 -0.3990
17259TIP3   OH273191   2.794   0.400  13.822 -0.3112  0.6046  0.0203
17259TIP3    H173192   2.727   0.405  13.890 -0.3947 -0.5177  0.0383
17259TIP3    H273193   2.877   0.416  13.867 -0.4298  0.5198  0.2667
17260TIP3   OH273194   2.040   2.889   2.944 -0.1206 -0.8585  0.7647
17260TIP3    H173195   1.969   2.953   2.950  0.1978 -0.3729 -0.3859
17260TIP3    H273196   2.114   2.931   2.986  0.6473  0.3951 -1.6780
17261TIP3   OH273197   4.138   6.434  15.541 -0.0656 -0.1689  0.3455
17261TIP3    H173198   4.210   6.449  15.602 -0.4201  1.2389  0.4778
17261TIP3    H273199   4.178   6.436  15.454  0.0179  1.2484  0.3805
17262TIP3   OH273200   6.655   5.149   5.557 -0.2607  0.1033  0.2903
17262TIP3    H173201   6.726   5.159   5.619 -0.8327  1.1047  0.8085
17262TIP3    H273202   6.656   5.229   5.505 -0.3903 -0.3081 -0.3746
17263TIP3   OH273203   5.429   4.784   1.604  0.2107 -0.3705  0.4205
17263TIP3    H173204   5.350   4.732   1.616  0.0676 -0.3030 -0.1906
17263TIP3    H273205   5.489   4.753   1.672 -0.4706 -0.1592  1.1318
17264TIP3   OH273206   1.362   4.056  13.493  0.5910  0.2205  0.2152
17264TIP3    H173207   1.353   3.997  13.419  0.4952  0.4704  0.0251
17264TIP3    H273208   1.452   4.088  13.489  0.2262  1.2184 -0.5527
17265TIP3   OH273209   4.895   1.683  15.254 -0.1738  0.0069  0.2846
17265TIP3    H173210   4.923   1.598  15.286  1.5976  0.7213  0.7304
17265TIP3    H273211   4.868   1.731  15.333  1.9050  0.9321  0.5015
17266TIP3   OH273212   2.224   5.770   0.029  0.4704  0.0625  0.4262
17266TIP3    H173213   2.257   5.818   0.105 -0.8370 -0.2782  1.2434
17266TIP3    H273214   2.273   5.688   0.029 -1.6947 -1.4041  2.9237
17267TIP3   OH273215   0.324   2.888  10.780  0.1262  0.1814  0.0444
17267TIP3    H173216   0.354   2.941  10.705  0.3600 -1.9447 -1.4642
17267TIP3    H273217   0.235   2.861  10.756  0.3614 -0.8693  0.2900
17268TIP3   OH273218   0.169   2.037  16.672  0.3530  0.3068 -0.4999
17268TIP3    H173219   0.173   1.943  16.653 -1.8090 -0.0132  0.3017
17268TIP3    H273220   0.232   2.076  16.613  0.5312 -1.5587 -1.6249
17269TIP3   OH273221   0.988   0.565  13.702  0.1309  0.4617 -0.2140
17269TIP3    H173222   1.050   0.500  13.669  0.5407  0.3825  0.6665
17269TIP3    H273223   0.934   0.517  13.765  0.7055  1.0335  0.7559
17270TIP3   OH273224   5.871   6.198   1.547 -0.3508 -0.6046  0.2093
17270TIP3    H173225   5.878   6.293   1.536 -0.6465 -0.6142 -0.0889
17270TIP3    H273226   5.835   6.167   1.464  4.5067 -1.5672 -1.9157
17271TIP3   OH273227   6.680   6.731  16.058 -0.1265 -0.0080 -0.0381
17271TIP3    H173228   6.640   6.644  16.048 -0.8289  0.3644 -0.4609
17271TIP3    H273229   6.710   6.732  16.149 -0.5525 -0.5118  0.1149
17272TIP3   OH273230   4.369   2.156   1.030  0.4897 -0.2063  0.9027
17272TIP3    H173231   4.381   2.101   1.107 -0.2452 -1.4091  0.1958
17272TIP3    H273232   4.414   2.237   1.051  4.0437 -2.0109  0.9048
17273TIP3   OH273233   2.074   5.859   4.159 -0.6630  0.0802 -0.1008
17273TIP3    H173234   2.053   5.945   4.195  0.2777 -0.0062  0.6646
17273TIP3    H273235   2.050   5.866   4.066  1.2307  1.8264 -0.5320
17274TIP3   OH273236   6.614   4.509   4.784 -0.2396  0.0502  0.6245
17274TIP3    H173237   6.558   4.551   4.718  0.3981  0.4683  0.3435
17274TIP3    H273238   6.694   4.562   4.784  0.8719 -1.5681 -0.2377
17275TIP3   OH273239   4.687   3.008  14.094  0.0814 -0.1881  0.0761
17275TIP3    H173240   4.672   2.915  14.077 -2.0233  0.0415  0.4213
17275TIP3    H273241   4.747   3.035  14.025  0.1931 -1.6492 -0.4424
17276TIP3   OH273242   0.293   2.438   5.337 -0.1601 -0.1120 -0.0246
17276TIP3    H173243   0.297   2.343   5.346  1.0936  0.1415  4.1258
17276TIP3    H273244   0.211   2.463   5.379  0.4516  0.7239  0.7093
17277TIP3   OH273245   6.258   6.803  13.058  0.3263  0.1098  0.0917
17277TIP3    H173246   6.230   6.894  13.069 -1.0663 -0.3508  0.5704
17277TIP3    H273247   6.177   6.754  13.046  1.0996 -0.9975 -0.8043
17278TIP3   OH273248   3.690   1.403  13.377  0.1220  0.6328  0.0550
17278TIP3    H173249   3.632   1.407  13.301  1.2795  0.1827 -0.8917
17278TIP3    H273250   3.777   1.420  13.341  0.7145  0.2548  1.2616
17279TIP3   OH273251   6.632   0.841  15.496  0.5574 -0.2280 -0.1685
17279TIP3    H173252   6.686   0.762  15.506  1.9009  0.4522 -1.7047
17279TIP3    H273253   6.637   0.861  15.403 -1.5062  0.4911 -0.1650
17280TIP3   OH273254   1.671   2.414  16.690 -0.6228  0.1429  0.0932
17280TIP3    H173255   1.579   2.390  16.676 -0.4021  0.1194 -1.5141
17280TIP3    H273256   1.680   2.421  16.785 -2.7126  1.8083  0.2400
17281TIP3   OH273257   3.340   5.608  15.745 -0.5053  0.1294 -0.4357
17281TIP3    H173258   3.288   5.537  15.782  0.8702 -1.0218 -0.6377
17281TIP3    H273259   3.280   5.651  15.683 -1.8384  0.1491  0.8126
17282TIP3   OH273260   4.481   6.034  14.414  0.2852  0.0594 -0.3389
17282TIP3    H173261   4.483   6.118  14.367  0.0314  0.8366  0.9927
17282TIP3    H273262   4.405   5.988  14.379 -0.1759  0.8290 -0.3653
17283TIP3   OH273263   0.618   5.695  15.334 -0.1769 -0.0496  0.0554
17283TIP3    H173264   0.687   5.725  15.275 -0.4254 -0.6734 -0.5562
17283TIP3    H273265   0.665   5.672  15.415  0.2996 -0.2164 -0.2632
17284TIP3   OH273266   6.048   3.470  15.602 -0.6287  1.0172  0.0136
17284TIP3    H173267   6.022   3.509  15.685 -1.3716  0.1130  0.2172
17284TIP3    H273268   6.088   3.386  15.626 -2.7575 -0.2411 -0.6210
17285TIP3   OH273269   3.735   3.368   1.495 -0.4394  0.0173  0.1809
17285TIP3    H173270   3.815   3.387   1.544 -0.8027  0.2824  0.6768
17285TIP3    H273271   3.764   3.311   1.424  0.3760  0.9420 -0.2590
17286TIP3   OH273272   0.771   5.906   0.132  0.2283 -0.0633 -0.8655
17286TIP3    H173273   0.856   5.871   0.104  0.4344  0.6385 -1.1311
17286TIP3    H273274   0.787   5.999   0.147 -0.0435 -0.2830  0.9741
17287TIP3   OH273275   0.678   3.737  13.341 -0.1302 -0.0429  0.3657
17287TIP3    H173276   0.665   3.642  13.348 -0.5656 -0.0080  0.0927
17287TIP3    H273277   0.730   3.749  13.262 -0.4687 -0.0249  0.1443
17288TIP3   OH273278   5.311   1.237  16.583 -0.0594 -0.1277  0.2607
17288TIP3    H173279   5.300   1.306  16.517 -2.0261 -0.4612  0.1738
17288TIP3    H273280   5.390   1.190  16.556 -0.7753 -0.2307 -1.8639
17289TIP3   OH273281   1.313   2.779  15.788 -0.7671 -0.3140  0.0632
17289TIP3    H173282   1.279   2.705  15.838 -0.6723 -0.8118 -0.5926
17289TIP3    H273283   1.240   2.804  15.730 -0.9981  0.4811  0.6777
17290TIP3   OH273284   3.357   2.994  13.370  0.2101 -0.9482 -0.0713
17290TIP3    H173285   3.308   2.944  13.436 -0.8398 -2.1542 -1.6820
17290TIP3    H273286   3.431   2.938  13.349  1.0484 -0.1568  0.6961
17291TIP3   OH273287   2.766   6.579  11.428  0.4081 -0.3863 -0.3083
17291TIP3    H173288   2.811   6.498  11.403  2.2147  0.8430 -1.2305
17291TIP3    H273289   2.783   6.586  11.522  2.0854 -0.0519 -0.5935
17292TIP3   OH273290   4.424   3.042  13.204 -0.3238 -0.2240 -0.0130
17292TIP3    H173291   4.516   3.031  13.230  0.1123 -0.9014 -1.6934
17292TIP3    H273292   4.428   3.088  13.121 -1.5802  0.5696  0.3337
17293TIP3   OH273293   2.981   0.200   0.902 -0.2655 -0.9347  0.0497
17293TIP3    H173294   2.928   0.141   0.848 -0.7967 -0.2401 -0.1905
17293TIP3    H273295   3.069   0.163   0.897 -0.1402 -0.4458 -1.9433
17294TIP3   OH273296   0.973   1.893  14.744 -0.4125  0.2641 -0.2706
17294TIP3    H173297   0.953   1.901  14.651  1.1551 -1.2058 -0.7930
17294TIP3    H273298   1.066   1.914  14.750 -0.4515  0.1573  0.9395
17295TIP3   OH273299   4.930   3.875   0.504  0.5664 -0.0549  0.0115
17295TIP3    H173300   5.016   3.869   0.462  1.1658 -0.1518  1.1998
17295TIP3    H273301   4.883   3.797   0.474  0.7505  0.1932 -0.9424
17296TIP3   OH273302   3.439   4.640   1.002  0.1123  0.4182 -0.1592
17296TIP3    H173303   3.415   4.566   0.945  0.4622 -0.9652  1.4156
17296TIP3    H273304   3.355   4.681   1.023  0.0778  1.9971 -2.9105
17297TIP3   OH273305   0.577   0.598  11.666  0.2279 -0.3264 -0.0097
17297TIP3    H173306   0.551   0.689  11.653  1.2313 -0.0082  0.1204
17297TIP3    H273307   0.564   0.582  11.759 -1.9841 -0.9982 -0.3812
17298TIP3   OH273308   2.156   6.215   2.010 -0.0676  0.2055 -0.2392
17298TIP3    H173309   2.151   6.138   2.067  0.1957  0.5367  0.2381
17298TIP3    H273310   2.205   6.279   2.061  1.0007  0.1850 -1.2077
17299TIP3   OH273311   5.596   0.239  12.778 -0.3042 -0.1075  0.4914
17299TIP3    H173312   5.689   0.255  12.765 -0.3842  0.4388  0.5549
17299TIP3    H273313   5.592   0.156  12.826  0.0550 -1.2626 -1.4067
17300TIP3   OH273314   2.257   2.402  16.515  0.3310  0.5447 -0.6206
17300TIP3    H173315   2.171   2.366  16.540 -0.8787  2.9274 -1.0656
17300TIP3    H273316   2.306   2.405  16.598 -1.1159  1.8279  0.2604
17301TIP3   OH273317   2.335   1.014  12.703  0.0514  0.0772  0.0243
17301TIP3    H173318   2.332   0.956  12.780 -0.1151  1.6655  1.2666
17301TIP3    H273319   2.258   1.070  12.712 -1.0239 -0.8835 -2.3306
17302TIP3   OH273320   3.011   5.163   2.048 -0.4804  0.3965  0.1382
17302TIP3    H173321   3.003   5.087   1.990 -0.3561 -0.0606  0.7091
17302TIP3    H273322   2.936   5.155   2.107 -1.7804  1.9672 -1.2022
17303TIP3   OH273323   5.126   4.992   5.060 -0.4196  1.1080 -0.1708
17303TIP3    H173324   5.178   5.056   5.010  0.4163 -0.4282 -1.3390
17303TIP3    H273325   5.114   5.034   5.146 -0.0739  2.9113 -0.9474
17304TIP3   OH273326   2.558   6.152  14.355 -0.0027  0.0854 -0.2001
17304TIP3    H173327   2.490   6.217  14.339  0.6996  0.5594 -1.3536
17304TIP3    H273328   2.622   6.197  14.411 -1.3120 -0.8356  2.2028
17305TIP3   OH273329   5.121   3.377   5.221  0.1332  0.6048  0.5843
17305TIP3    H173330   5.099   3.459   5.266  0.1645  0.4473  0.8926
17305TIP3    H273331   5.199   3.345   5.266  0.5866  0.8028 -0.0482
17306TIP3   OH273332   0.817   1.231   4.320 -0.5442 -0.2710 -0.3063
17306TIP3    H173333   0.807   1.326   4.313 -2.9930 -0.2813  1.6694
17306TIP3    H273334   0.728   1.197   4.310  0.3395 -2.4204 -1.3607
17307TIP3   OH273335   1.941   3.401  15.804  0.5670  0.4122 -0.1105
17307TIP3    H173336   1.949   3.485  15.851 -0.7805  1.1206 -1.0833
17307TIP3    H273337   2.014   3.401  15.743  0.6897  0.7895  0.0313
17308TIP3   OH273338   1.831   3.081  11.475 -0.7662 -0.5737  0.3528
17308TIP3    H173339   1.786   3.157  11.439  0.5416  0.6351  1.1927
17308TIP3    H273340   1.760   3.024  11.506 -1.7680  0.3650 -0.1517
17309TIP3   OH273341   6.062   2.746   5.713 -0.0203  0.4395  0.1132
17309TIP3    H173342   6.131   2.680   5.702 -0.3043  0.5569 -3.4602
17309TIP3    H273343   6.095   2.824   5.668 -2.4949  0.4061 -2.0039
17310TIP3   OH273344   6.587   3.762  11.030 -0.2478 -0.0778  0.5328
17310TIP3    H173345   6.550   3.673  11.038  2.8608 -1.5783 -0.1748
17310TIP3    H273346   6.652   3.767  11.100 -0.2574  1.6177  0.4593
17311TIP3   OH273347   2.620   0.054   2.248 -0.3199  0.0210  0.2198
17311TIP3    H173348   2.550   0.102   2.203 -0.4183 -0.9917 -0.7674
17311TIP3    H273349   2.681   0.032   2.178  0.4342 -0.0522  0.8977
17312TIP3   OH273350   3.985   0.486   3.332 -0.5628  0.3202 -0.6857
17312TIP3    H173351   3.904   0.532   3.310 -1.7952 -1.4806 -0.1383
17312TIP3    H273352   3.957   0.397   3.353  1.5764 -0.3605 -0.4831
17313TIP3   OH273353   1.179   1.075   6.002 -0.2026 -0.2756 -0.3228
17313TIP3    H173354   1.083   1.071   6.009 -0.1572  0.3581  1.2410
17313TIP3    H273355   1.200   1.167   6.016  0.7176 -0.6809  1.1737
17314TIP3   OH273356   1.974   4.960   2.821  0.0437 -0.5008  0.9247
17314TIP3    H173357   1.917   4.963   2.897  0.8773 -0.9108  1.5760
17314TIP3    H273358   2.000   5.051   2.807 -2.0066 -0.0306 -0.3738
17315TIP3   OH273359   3.086   1.873  15.062 -0.6114  0.4394 -0.5254
17315TIP3    H173360   3.159   1.868  15.124 -1.3250  0.1971  0.3231
17315TIP3    H273361   3.127   1.889  14.978  0.2468  3.4252  0.3526
17316TIP3   OH273362   4.450   0.722  16.877 -0.7393  0.1921  0.2206
17316TIP3    H173363   4.421   0.730  16.967 -1.2680 -2.7324  0.4097
17316TIP3    H273364   4.539   0.686  16.883 -1.1837 -1.0953 -0.3494
17317TIP3   OH273365   0.354   4.620  12.156 -0.3055  0.1715  0.0245
17317TIP3    H173366   0.261   4.603  12.166 -0.5281  1.3991  0.2686
17317TIP3    H273367   0.393   4.535  12.137 -1.7963 -0.0296 -2.6033
17318TIP3   OH273368   1.765   0.619  10.812 -0.2793 -0.2243  0.4389
17318TIP3    H173369   1.811   0.549  10.767  0.5401 -0.2914  1.3500
17318TIP3    H273370   1.813   0.699  10.788  2.4169 -0.6127  3.8550
17319TIP3   OH273371   2.239   4.827  14.307  0.4862  0.4744  0.3348
17319TIP3    H173372   2.257   4.905  14.254  1.2843  0.5662  0.7246
17319TIP3    H273373   2.201   4.861  14.388 -1.8773  0.2649 -0.6023
17320TIP3   OH273374   2.222   6.032  14.653  0.0705  0.3426 -0.6176
17320TIP3    H173375   2.278   5.956  14.665 -0.3299  0.2629  0.9161
17320TIP3    H273376   2.133   5.997  14.649 -0.1706  0.7540  0.7283
17321TIP3   OH273377   4.944   1.945  16.905 -0.2289  0.5565 -0.9300
17321TIP3    H173378   4.915   1.870  16.957  1.1842  0.7389  0.1778
17321TIP3    H273379   4.864   1.996  16.889 -1.0425 -0.6558 -0.8615
17322TIP3   OH273380   4.431   6.054   4.250 -0.0525  0.1107 -0.5829
17322TIP3    H173381   4.498   6.008   4.198  0.2321  0.8140 -0.8458
17322TIP3    H273382   4.383   6.106   4.186 -0.4142  0.1322 -0.2943
17323TIP3   OH273383   3.375   3.933  13.018 -0.5680 -0.0524  0.0346
17323TIP3    H173384   3.293   3.981  13.005 -0.3400  0.0314 -1.2105
17323TIP3    H273385   3.433   3.964  12.949  1.1295  1.1143  1.8828
17324TIP3   OH273386   5.098   2.964  12.692 -0.3085 -0.1121 -0.2276
17324TIP3    H173387   5.171   2.998  12.744  0.4546 -2.0177  0.0354
17324TIP3    H273388   5.112   3.000  12.604 -0.2216  1.1566  0.2850
17325TIP3   OH273389   3.965   5.438   5.657  0.2190 -0.8287 -0.0332
17325TIP3    H173390   3.872   5.417   5.667 -0.2101  0.9179 -0.1312
17325TIP3    H273391   3.971   5.481   5.572  0.6196  1.5040  1.1098
17326TIP3   OH273392   5.983   5.367  13.254 -0.2548  0.9009  0.2570
17326TIP3    H173393   5.904   5.416  13.279 -1.6366 -0.3629 -1.3925
17326TIP3    H273394   6.050   5.435  13.243 -1.4456  2.1601  0.4311
17327TIP3   OH273395   1.724   3.862  13.450  0.3474 -0.0617 -0.5119
17327TIP3    H173396   1.673   3.837  13.373  0.3439 -1.9514  0.0669
17327TIP3    H273397   1.662   3.855  13.523  0.7295  0.2978 -0.1511
17328TIP3   OH273398   6.281   5.189  11.852 -0.2455  0.4064  0.1172
17328TIP3    H173399   6.320   5.136  11.781 -0.4285 -0.1501  0.4231
17328TIP3    H273400   6.282   5.278  11.818 -0.2771  0.1575 -0.5714
17329TIP3   OH273401   3.953   1.013  15.710 -0.3147  0.5060 -0.2119
17329TIP3    H173402   3.965   0.918  15.707  0.5866  0.5375  1.3689
17329TIP3    H273403   3.859   1.026  15.697 -0.5341 -0.6413  0.1269
17330TIP3   OH273404   5.902   4.808   1.275 -0.2644 -0.0657 -0.4926
17330TIP3    H173405   5.834   4.806   1.342  1.3965 -0.0184  1.2982
17330TIP3    H273406   5.902   4.720   1.237 -0.5091 -0.4482  0.3731
17331TIP3   OH273407   6.199   4.151  14.329 -0.1211  0.2888 -0.6916
17331TIP3    H173408   6.164   4.136  14.417  1.6020  1.1590  0.1937
17331TIP3    H273409   6.138   4.106  14.271 -1.8097  0.4589  0.8684
17332TIP3   OH273410   4.719   1.275   3.139 -0.4005  0.3713  0.1119
17332TIP3    H173411   4.813   1.294   3.133 -0.9510  3.4057 -0.1503
17332TIP3    H273412   4.715   1.180   3.154  2.6303 -0.1080 -1.3718
17333TIP3   OH273413   1.721   0.989  11.321 -0.4884  0.0965  0.4643
17333TIP3    H173414   1.659   1.050  11.361  0.3576  0.7687  0.8041
17333TIP3    H273415   1.682   0.966  11.237 -0.2740  2.0681 -0.2254
17334TIP3   OH273416   5.169   2.699   5.456  0.2794  0.4347  0.1178
17334TIP3    H173417   5.249   2.646   5.452 -0.6022 -1.0425  0.9057
17334TIP3    H273418   5.190   2.770   5.516  1.7677  1.5378 -1.6173
17335TIP3   OH273419   6.442   0.689   5.596  0.8092  0.4641  0.5353
17335TIP3    H173420   6.358   0.693   5.641 -0.7557 -1.7795 -1.8689
17335TIP3    H273421   6.483   0.609   5.628 -0.3095 -1.1412 -1.7685
17336TIP3   OH273422   3.668   4.565   1.786  0.2403  0.3304 -0.0049
17336TIP3    H173423   3.648   4.636   1.848 -3.8108 -0.2038 -0.4586
17336TIP3    H273424   3.627   4.487   1.824  1.2960 -0.9557 -1.3776
17337TIP3   OH273425   6.774   5.800   2.681 -0.2956 -0.3982  0.1925
17337TIP3    H173426   6.862   5.768   2.700 -0.6832 -1.1066  0.8379
17337TIP3    H273427   6.766   5.880   2.734 -0.0820 -0.3996  0.2265
17338TIP3   OH273428   0.734   6.382   0.175  0.3097 -0.1619 -0.0918
17338TIP3    H173429   0.744   6.412   0.266 -0.5602  0.2237 -0.1135
17338TIP3    H273430   0.743   6.461   0.122  0.6607 -0.3630 -0.3377
17339TIP3   OH273431   5.163   3.575  12.293 -0.0032  0.0188  0.5250
17339TIP3    H173432   5.161   3.484  12.262  0.6304 -0.5457  2.0050
17339TIP3    H273433   5.195   3.568  12.384 -1.9304  1.5338  1.3843
17340TIP3   OH273434   2.653   2.509   3.511 -0.5281 -0.3647  0.5205
17340TIP3    H173435   2.638   2.509   3.416  1.5099  1.5062  0.1010
17340TIP3    H273436   2.616   2.426   3.541 -1.0146 -1.1401 -1.9385
17341TIP3   OH273437   4.216   1.934   0.453  0.0633  0.3960  0.5334
17341TIP3    H173438   4.130   1.903   0.423 -0.7013  1.2606  1.7619
17341TIP3    H273439   4.241   2.000   0.389  0.5347 -0.9055 -0.6795
17342TIP3   OH273440   5.442   6.523   0.547 -0.3667 -1.5549 -0.1954
17342TIP3    H173441   5.349   6.507   0.567 -0.3027 -1.0773  0.5457
17342TIP3    H273442   5.482   6.539   0.633  0.2294 -0.8911 -0.5895
17343TIP3   OH273443   2.480   0.321   3.787  0.1952  0.8274 -0.1894
17343TIP3    H173444   2.571   0.330   3.813 -0.2772  0.6046  1.6603
17343TIP3    H273445   2.453   0.410   3.763  0.7600  0.9811 -0.2637
17344TIP3   OH273446   4.558   4.482   6.788 -0.0661  0.5172 -0.2694
17344TIP3    H173447   4.468   4.448   6.781 -0.4834  1.4089  0.5102
17344TIP3    H273448   4.611   4.420   6.738 -0.5341 -2.2021  2.3659
17345TIP3   OH273449   6.438   2.758   1.362  0.1581  0.5410  0.2715
17345TIP3    H173450   6.453   2.770   1.268 -1.0710  1.4286  0.1576
17345TIP3    H273451   6.423   2.664   1.372  1.8535  0.1929 -0.1499
17346TIP3   OH273452   6.357   3.373   3.172  0.1649  0.1333 -0.2855
17346TIP3    H173453   6.433   3.325   3.206  1.7277  0.7531 -2.6372
17346TIP3    H273454   6.299   3.305   3.138  0.8295 -0.2532 -0.6705
17347TIP3   OH273455   4.391   5.416  11.073 -0.4118 -0.2436  0.1305
17347TIP3    H173456   4.460   5.454  11.017 -0.3012 -0.1715  0.3131
17347TIP3    H273457   4.344   5.357  11.015  0.2038 -0.7757  0.1628
17348TIP3   OH273458   1.060   6.053  11.257 -0.1800 -0.3757 -0.3689
17348TIP3    H173459   1.051   6.066  11.162 -0.4272 -0.4857 -0.3630
17348TIP3    H273460   1.127   5.985  11.265  0.4920  0.2592 -0.4301
17349TIP3   OH273461   3.553   0.005   2.177  0.1638 -0.2141 -0.0475
17349TIP3    H173462   3.632  -0.047   2.192  1.1072  1.3914  0.7941
17349TIP3    H273463   3.537   0.049   2.260  0.2170  1.8987 -1.0921
17350TIP3   OH273464   4.910   6.652   5.010 -0.0388 -0.3495  0.2930
17350TIP3    H173465   4.886   6.745   5.002 -2.5144 -0.9869 -0.5493
17350TIP3    H273466   4.945   6.629   4.924  1.2893 -0.0577  0.7303
17351TIP3   OH273467   6.139   6.095   2.261  0.5079  0.5261 -0.7152
17351TIP3    H173468   6.232   6.118   2.264 -0.0597  3.1239 -0.6591
17351TIP3    H273469   6.112   6.115   2.172 -0.2116  0.8060 -0.4409
17352TIP3   OH273470   2.317   2.818  13.940 -0.3593 -0.3177  0.2256
17352TIP3    H173471   2.309   2.724  13.927 -1.6309 -0.1826 -0.0774
17352TIP3    H273472   2.275   2.834  14.025 -2.1053  0.2241 -0.6899
17353TIP3   OH273473   5.123   4.892  11.103 -0.4754 -0.2057  0.7319
17353TIP3    H173474   5.028   4.897  11.107 -0.3946  2.5341  0.7685
17353TIP3    H273475   5.142   4.798  11.113 -3.2322 -1.1849 -1.7199
17354TIP3   OH273476   3.875   2.699   0.765 -0.7109 -0.3337  0.2398
17354TIP3    H173477   3.856   2.688   0.858 -0.3882 -1.5314  0.1806
17354TIP3    H273478   3.897   2.611   0.734 -0.8913  0.0295 -0.9909
17355TIP3   OH273479   0.042   2.551  13.222 -0.5024  0.1215  0.1582
17355TIP3    H173480   0.058   2.472  13.171  2.6033  0.6517  0.1174
17355TIP3    H273481   0.085   2.621  13.173 -2.3369  1.7102  0.6800
17356TIP3   OH273482   2.076   3.647   1.792  0.2121 -0.7127  0.4066
17356TIP3    H173483   2.146   3.707   1.770  0.3564 -1.1140 -0.2722
17356TIP3    H273484   1.996   3.693   1.768  0.2951 -0.6236  0.3026
17357TIP3   OH273485   5.074   1.906  12.559 -0.2591  0.0395 -0.4114
17357TIP3    H173486   5.124   1.825  12.548  1.8008  1.1880 -0.0275
17357TIP3    H273487   5.139   1.970  12.589 -1.7853  1.8859 -0.8755
17358TIP3   OH273488   5.336   3.067  12.135  0.2069  0.1250  0.1084
17358TIP3    H173489   5.430   3.048  12.141  0.3594  0.8929  0.3468
17358TIP3    H273490   5.308   3.027  12.053  0.8445  0.2802 -0.1894
17359TIP3   OH273491   1.747   4.032   4.535 -0.3900 -0.6411  0.0624
17359TIP3    H173492   1.701   3.960   4.578 -1.6477 -0.6273 -1.1813
17359TIP3    H273493   1.687   4.106   4.540 -0.3158 -0.4700 -1.1046
17360TIP3   OH273494   1.968   4.636  10.899  0.8446 -0.6606 -0.0828
17360TIP3    H173495   2.004   4.548  10.910  0.0941 -0.7464  2.2072
17360TIP3    H273496   2.044   4.692  10.884  1.5150 -1.4268  0.4162
17361TIP3   OH273497   5.545   6.069  13.297 -0.5805  0.3777 -0.1309
17361TIP3    H173498   5.585   6.144  13.253 -0.4715  0.4795  0.1414
17361TIP3    H273499   5.598   5.994  13.271 -0.0186  0.5569  0.4834
17362TIP3   OH273500   0.872   6.179  11.973 -0.3045  0.8563 -0.2024
17362TIP3    H173501   0.902   6.269  11.954  1.5200  0.3880  0.2976
17362TIP3    H273502   0.871   6.137  11.887 -1.3214  1.3821 -0.4620
17363TIP3   OH273503   4.353   0.099   3.217 -0.2745 -0.3771  0.1248
17363TIP3    H173504   4.402   0.022   3.189  1.1339 -0.1213  1.7604
17363TIP3    H273505   4.400   0.173   3.180  0.4494 -0.1484  1.4293
17364TIP3   OH273506   6.339   5.440   0.328 -0.3099 -0.4479 -0.4715
17364TIP3    H173507   6.355   5.346   0.334 -2.3183 -0.7952  0.5944
17364TIP3    H273508   6.288   5.450   0.247  0.1785 -0.2323 -0.7511
17365TIP3   OH273509   2.756   0.425  11.830  0.4549  0.5253  0.4691
17365TIP3    H173510   2.798   0.358  11.775 -1.0378  1.5115 -2.0492
17365TIP3    H273511   2.772   0.395  11.920 -0.3779 -3.4030 -0.4737
17366TIP3   OH273512   4.835   3.315   6.225  0.5128  0.7117 -0.0032
17366TIP3    H173513   4.926   3.314   6.197  0.2318 -2.6884 -1.2942
17366TIP3    H273514   4.834   3.264   6.306 -0.1871  1.2064  0.3121
17367TIP3   OH273515   1.038   5.480  11.167 -0.0659 -0.0548 -0.4653
17367TIP3    H173516   1.106   5.473  11.100 -0.3061  0.0085 -0.7177
17367TIP3    H273517   0.982   5.404  11.152  0.8477 -1.0118  0.7613
17368TIP3   OH273518   5.716   6.402   2.954  1.0431  0.3513  0.9426
17368TIP3    H173519   5.765   6.455   3.016  1.8595  1.3552 -0.4930
17368TIP3    H273520   5.743   6.434   2.868 -0.0078 -1.0105  0.0488
17369TIP3   OH273521   0.981   1.344   3.017 -0.4777  0.3572  0.0523
17369TIP3    H173522   0.913   1.403   2.984 -1.9098 -0.6939  1.0291
17369TIP3    H273523   0.968   1.343   3.112 -0.6494 -1.6914  0.0419
17370TIP3   OH273524   0.477   5.070   2.428 -0.0652  0.5610  0.1239
17370TIP3    H173525   0.541   5.139   2.446  2.9523 -1.5028 -1.7421
17370TIP3    H273526   0.527   4.989   2.434 -2.3705 -1.1692 -2.0084
17371TIP3   OH273527   3.250   1.936   1.835 -0.0354  0.0363  0.0398
17371TIP3    H173528   3.324   1.894   1.792  0.5036  0.0775  0.8920
17371TIP3    H273529   3.208   1.866   1.884 -0.4876  0.0384 -0.3446
17372TIP3   OH273530   3.378   1.199  11.010  0.3665 -0.1101 -0.2069
17372TIP3    H173531   3.429   1.264  10.962  0.1260  0.6002  0.4629
17372TIP3    H273532   3.287   1.216  10.986  0.4239 -1.5199 -1.5709
17373TIP3   OH273533   1.317   6.442   4.174 -0.5907 -0.1828 -0.3684
17373TIP3    H173534   1.351   6.370   4.227  1.0442 -0.5538 -1.8325
17373TIP3    H273535   1.330   6.520   4.228  0.8620 -0.5731 -0.1027
17374TIP3   OH273536   0.838   1.273  10.764  0.2785 -0.1341 -0.1615
17374TIP3    H173537   0.766   1.253  10.824 -0.7717  1.8556 -0.6824
17374TIP3    H273538   0.881   1.349  10.803  0.5354  0.2340 -1.1367
17375TIP3   OH273539   1.223   1.325   1.818 -0.6841 -0.1909 -0.0155
17375TIP3    H173540   1.284   1.299   1.748  1.7563  1.6125  1.2774
17375TIP3    H273541   1.239   1.261   1.888 -0.0214  0.4531  0.4340
17376TIP3   OH273542   2.096   3.296  13.270  0.2725 -0.0667 -0.0997
17376TIP3    H173543   2.047   3.365  13.225  0.8246  0.7065  0.4661
17376TIP3    H273544   2.137   3.246  13.199 -0.0607  0.2369 -0.5141
17377TIP3   OH273545   4.214   2.639  10.746  0.0883  0.1347  0.0252
17377TIP3    H173546   4.134   2.673  10.706 -0.1841 -1.5599 -0.9598
17377TIP3    H273547   4.278   2.709  10.734 -0.3401  0.2087 -2.2441
17378TIP3   OH273548   5.215   0.048  12.246  0.2265  0.2593 -0.1290
17378TIP3    H173549   5.242  -0.013  12.177 -1.0374  0.4187 -0.8009
17378TIP3    H273550   5.233   0.134  12.210 -2.4870  0.4517 -1.2775
17379TIP3   OH273551   4.819   5.419   4.017 -0.2578 -0.1042  0.0080
17379TIP3    H173552   4.763   5.366   3.961 -0.1968  1.6329 -1.8237
17379TIP3    H273553   4.905   5.377   4.012 -0.1929  0.1382 -1.4754
17380TIP3   OH273554   2.633   6.523  13.798  0.5110 -0.2872 -0.4792
17380TIP3    H173555   2.614   6.484  13.883  1.7654  0.6643  0.2801
17380TIP3    H273556   2.608   6.615  13.808  0.3302 -0.2460 -1.2623
17381TIP3   OH273557   1.936   6.811   1.085 -0.5111  0.0827 -0.3089
17381TIP3    H173558   1.862   6.751   1.077 -0.1109 -0.8200  1.9455
17381TIP3    H273559   2.011   6.754   1.105 -0.0421  1.2533  1.5054
17382TIP3   OH273560   6.753   1.781  11.660  0.0629  0.5562  1.0072
17382TIP3    H173561   6.794   1.804  11.576 -0.5533  1.1883  0.8779
17382TIP3    H273562   6.788   1.694  11.680 -2.2721 -1.1333 -1.5600
17383TIP3   OH273563   0.602   3.299   2.720  0.2897  0.4030 -0.5745
17383TIP3    H173564   0.638   3.212   2.736 -2.1005 -0.9035 -1.7903
17383TIP3    H273565   0.556   3.322   2.801  0.5642  0.3501 -0.4030
17384TIP3   OH273566   2.959   2.749   4.529  0.1512 -0.1650 -0.4910
17384TIP3    H173567   2.873   2.707   4.532  0.2291 -0.3085  2.2066
17384TIP3    H273568   3.020   2.677   4.513 -0.1960 -0.0579 -2.4357
17385TIP3   OH273569   6.238   2.035   3.466 -0.7025 -0.1940  0.7307
17385TIP3    H173570   6.306   2.093   3.501 -0.2891  0.0484 -0.4341
17385TIP3    H273571   6.250   1.953   3.513  2.0054 -0.9778 -1.1157
17386TIP3   OH273572   3.833   2.485   3.075 -0.4567 -0.2413 -0.8040
17386TIP3    H173573   3.789   2.568   3.092  1.0829  0.9086 -2.1311
17386TIP3    H273574   3.833   2.439   3.159 -1.1237  1.2131  0.0065
17387TIP3   OH273575   0.050   6.325  10.779 -0.3374  0.5961 -0.9994
17387TIP3    H173576   0.079   6.254  10.837  0.4162  0.5335 -1.4464
17387TIP3    H273577   0.045   6.285  10.693  0.9132  1.2794 -1.4103
17388TIP3   OH273578   1.969   5.658   2.696 -0.0492  0.8572 -0.1299
17388TIP3    H173579   1.879   5.671   2.726  0.6337  1.5676  1.7878
17388TIP3    H273580   1.977   5.563   2.683 -1.0338  0.7796 -0.1799
17389TIP3   OH273581   4.858   1.049  16.204 -0.2198 -0.7453 -0.1465
17389TIP3    H173582   4.805   1.007  16.272 -0.6468  1.3104  0.8622
17389TIP3    H273583   4.939   1.074  16.248 -0.4688  0.5287 -0.3653
17390TIP3   OH273584   3.804   4.838  13.710 -0.6545  0.3596 -0.2974
17390TIP3    H173585   3.799   4.759  13.765  0.9537 -0.1603 -0.8325
17390TIP3    H273586   3.783   4.910  13.770 -0.7920 -0.3542  0.5415
17391TIP3   OH273587   1.174   2.155  15.264  0.1324  0.5401 -0.3338
17391TIP3    H173588   1.128   2.171  15.182  0.6866 -1.2808 -1.0389
17391TIP3    H273589   1.124   2.084  15.305 -0.1949  1.4812  0.9888
17392TIP3   OH273590   2.102   4.395  11.695 -0.1526 -0.2256  0.5398
17392TIP3    H173591   2.130   4.317  11.647 -1.7518 -1.2968  1.2486
17392TIP3    H273592   2.057   4.448  11.629 -1.2570 -1.1117  0.5508
17393TIP3   OH273593   4.480   2.984   3.255 -0.2656  0.0413  0.7784
17393TIP3    H173594   4.480   2.992   3.350 -0.3931  0.4870  0.7475
17393TIP3    H273595   4.427   3.058   3.225  2.0383  1.5897  0.2415
17394TIP3   OH273596   6.421   0.053   3.397  0.3002  0.0321  0.1611
17394TIP3    H173597   6.451   0.077   3.310  0.5751  0.3238  0.3353
17394TIP3    H273598   6.424  -0.043   3.398  0.4118  0.0332 -0.1105
17395TIP3   OH273599   2.636   3.616   4.099  0.1724 -0.3388 -0.4899
17395TIP3    H173600   2.686   3.536   4.115 -0.3439 -0.4877  0.4756
17395TIP3    H273601   2.561   3.588   4.046  0.3497 -0.3711 -0.7238
17396TIP3   OH273602   0.747   5.230   2.533  0.1393 -0.1920 -0.0527
17396TIP3    H173603   0.825   5.230   2.588  0.2156 -0.3476 -0.1619
17396TIP3    H273604   0.746   5.318   2.494  1.2617 -0.7681 -1.4737
17397TIP3   OH273605   3.273   2.906   2.435  0.2332  0.2788  0.2923
17397TIP3    H173606   3.205   2.928   2.499  1.1295  0.1828  1.3061
17397TIP3    H273607   3.285   2.986   2.384 -1.1405  0.0805 -0.3896
17398TIP3   OH273608   3.797   3.709   0.338  0.4584  0.2679  0.4068
17398TIP3    H173609   3.815   3.615   0.345 -0.7758  0.0102  0.4340
17398TIP3    H273610   3.868   3.751   0.386  1.8999 -0.5535 -0.9581
17399TIP3   OH273611   1.012   6.302  14.147 -0.2586 -0.2670 -0.4060
17399TIP3    H173612   0.964   6.377  14.180 -2.6960 -0.6277 -2.8090
17399TIP3    H273613   1.042   6.328  14.060 -1.2276 -1.9996 -1.3341
17400TIP3   OH273614   2.770   4.561   1.663  0.1833 -0.5805  0.2159
17400TIP3    H173615   2.695   4.592   1.714  1.0632 -1.1488  1.9276
17400TIP3    H273616   2.744   4.573   1.572 -1.9503 -0.7220  0.7697
17401TIP3   OH273617   4.249   2.800   3.613 -0.0465  0.0888  0.2171
17401TIP3    H173618   4.218   2.737   3.549  2.9516 -1.3493  0.0450
17401TIP3    H273619   4.281   2.747   3.686  1.6895  1.3988  0.4742
17402TIP3   OH273620   5.712   6.413  13.439  0.2574 -0.0341  0.0207
17402TIP3    H173621   5.645   6.421  13.507  0.7498  1.0582  0.4118
17402TIP3    H273622   5.778   6.355  13.477  0.1753 -0.0210  0.1857
17403TIP3   OH273623   5.063   4.521   0.621 -0.5551 -0.3817  0.3555
17403TIP3    H173624   4.994   4.534   0.685  0.1950  2.4057  0.7272
17403TIP3    H273625   5.140   4.562   0.660 -0.2962  2.4517 -2.6329
17404TIP3   OH273626   3.443   4.545   5.011  0.1663 -0.0828 -0.2620
17404TIP3    H173627   3.488   4.629   5.005 -0.8175  0.5651  1.0360
17404TIP3    H273628   3.504   4.489   5.059  0.2044  0.3687  0.2362
17405TIP3   OH273629   6.049   6.073   1.726 -0.7005  0.3023 -0.3068
17405TIP3    H173630   5.990   6.110   1.660  0.2182  0.1867 -1.2149
17405TIP3    H273631   6.122   6.038   1.676  0.1421  0.4330  0.7894
17406TIP3   OH273632   1.105   4.524   4.927  0.1954  0.2811  0.4801
17406TIP3    H173633   1.072   4.439   4.955  0.6690  0.0982  0.4908
17406TIP3    H273634   1.101   4.521   4.831  0.2932  0.2155  0.4782
17407TIP3   OH273635   3.443   0.001   1.557  0.1436 -0.0009  0.3680
17407TIP3    H173636   3.359  -0.012   1.513  0.0990  0.0861  0.4259
17407TIP3    H273637   3.496  -0.074   1.531  0.1396  0.0813  0.1154
17408TIP3   OH273638   1.933   3.293   2.131  0.5703 -0.7632 -0.1456
17408TIP3    H173639   1.925   3.369   2.188 -0.1812 -2.2351  1.7918
17408TIP3    H273640   1.847   3.287   2.088  0.2849 -1.0786  0.4563
17409TIP3   OH273641   0.412   2.407  12.501  0.0116  0.0789  0.1338
17409TIP3    H173642   0.405   2.355  12.421  0.6232 -1.2785  0.9185
17409TIP3    H273643   0.504   2.400  12.526 -0.4620 -0.9487  1.8288
17410TIP3   OH273644   1.315   5.391  15.679 -0.0630 -0.3852  0.1636
17410TIP3    H173645   1.362   5.414  15.599  1.3414 -3.3197  0.0240
17410TIP3    H273646   1.233   5.351  15.648 -2.4015  3.6385  0.4006
17411TIP3   OH273647   2.794   6.256   2.532  0.4728 -0.0594 -0.8429
17411TIP3    H173648   2.734   6.243   2.605  1.3986  0.7454  0.0926
17411TIP3    H273649   2.802   6.169   2.492  0.9606 -0.8260  0.8313
17412TIP3   OH273650   4.264   5.903  14.383  0.4826 -0.5698  0.2470
17412TIP3    H173651   4.300   5.858  14.459  0.4531 -0.3987  0.3631
17412TIP3    H273652   4.171   5.913  14.403  0.5898  0.0467  0.4757
17413TIP3   OH273653   3.767   5.227  11.160 -0.1332  0.0301 -0.3252
17413TIP3    H173654   3.842   5.284  11.143 -1.6922  1.9235 -1.2716
17413TIP3    H273655   3.700   5.256  11.098 -1.9914 -0.8944  1.1360
17414TIP3   OH273656   1.284   0.046   5.210 -0.4023  0.5807 -0.7300
17414TIP3    H173657   1.278   0.053   5.114 -2.2752  4.0533 -0.5062
17414TIP3    H273658   1.364   0.093   5.232 -1.8968  3.2275 -0.4998
17415TIP3   OH273659   6.187   2.221  14.472 -0.3399 -0.0798 -0.3996
17415TIP3    H173660   6.279   2.197  14.456 -0.1534 -0.0624  0.5577
17415TIP3    H273661   6.189   2.264  14.558 -0.8028  2.5293 -1.6122
17416TIP3   OH273662   5.548   2.914   3.267  0.3221  0.1558  0.4231
17416TIP3    H173663   5.471   2.857   3.279 -1.0148  1.5639 -1.0314
17416TIP3    H273664   5.548   2.971   3.345 -0.4769  0.5380  0.1529
17417TIP3   OH273665   3.540   5.695   1.321  0.0841 -0.2357 -0.0284
17417TIP3    H173666   3.496   5.650   1.393 -1.2600  0.9941 -0.0426
17417TIP3    H273667   3.631   5.665   1.326 -0.1368 -0.7081  1.7244
17418TIP3   OH273668   4.471   2.378   2.853  0.5537 -0.2617 -0.0485
17418TIP3    H173669   4.412   2.308   2.880  0.9843 -1.2549 -1.5367
17418TIP3    H273670   4.419   2.458   2.860 -0.0004 -0.7231  1.5305
17419TIP3   OH273671   3.049   5.300  10.194 -0.2025  0.0901 -0.3635
17419TIP3    H173672   2.982   5.231  10.196 -2.0551  1.7199 -1.9140
17419TIP3    H273673   3.053   5.333  10.283 -0.9030 -0.5490 -0.0869
17420TIP3   OH273674   6.397   2.520   2.064 -0.5066  0.0935  0.2282
17420TIP3    H173675   6.396   2.476   2.149 -1.1253 -1.9217 -0.7555
17420TIP3    H273676   6.394   2.614   2.085 -0.6953 -0.3499  2.3952
17421TIP3   OH273677   1.006   3.905  16.962 -0.1867 -0.2256  0.6756
17421TIP3    H173678   0.952   3.984  16.965 -1.4806 -1.1068  1.4131
17421TIP3    H273679   1.096   3.938  16.951 -0.6566  1.3488  1.2728
17422TIP3   OH273680   5.412   0.393  14.207  0.4414 -0.3789  0.5136
17422TIP3    H173681   5.325   0.373  14.172 -0.6987  1.2574  2.1934
17422TIP3    H273682   5.429   0.324  14.270  0.1639 -0.4884  0.4714
17423TIP3   OH273683   6.367   1.425   2.065  0.2090 -1.2318  0.1484
17423TIP3    H173684   6.301   1.420   2.134 -1.1847 -0.1026 -1.0190
17423TIP3    H273685   6.345   1.505   2.017  1.1382 -1.9620 -1.5809
17424TIP3   OH273686   6.508   0.272  15.770 -0.0881 -0.4397 -0.2146
17424TIP3    H173687   6.479   0.301  15.683 -1.6704 -1.0651  0.0766
17424TIP3    H273688   6.572   0.338  15.797 -0.1334  0.1715 -1.5303
17425TIP3   OH273689   4.049   3.988   5.675 -0.7137  0.1549 -0.1361
17425TIP3    H173690   4.090   4.074   5.689 -1.0154  0.7595 -2.5172
17425TIP3    H273691   3.975   3.987   5.735 -0.0479  1.0685  0.7471
17426TIP3   OH273692   4.651   2.277  15.396  0.0255 -0.6005  0.2616
17426TIP3    H173693   4.744   2.299  15.400 -0.1755  0.2109  0.7029
17426TIP3    H273694   4.606   2.359  15.417 -0.8542 -0.4161 -2.0573
17427TIP3   OH273695   0.147   6.515  12.305 -0.1610  0.4815 -0.1712
17427TIP3    H173696   0.224   6.466  12.333  1.1601  2.1130 -0.7418
17427TIP3    H273697   0.083   6.501  12.375  0.2779 -1.6708 -0.1350
17428TIP3   OH273698   3.739   1.913  16.273  0.2117 -0.0767  0.5518
17428TIP3    H173699   3.828   1.932  16.303  0.9789 -1.2029 -0.8899
17428TIP3    H273700   3.748   1.899  16.179 -1.9056  2.1873 -0.1089
17429TIP3   OH273701   2.781   2.353  11.679  0.5123 -0.1542 -0.3968
17429TIP3    H173702   2.837   2.322  11.749  1.0387  0.5689 -0.4859
17429TIP3    H273703   2.792   2.448  11.679  0.7767 -0.1586 -1.6572
17430TIP3   OH273704   5.978   3.408   2.350 -0.2756 -0.8644  0.1922
17430TIP3    H173705   6.013   3.445   2.431 -0.6204 -0.2561  0.0743
17430TIP3    H273706   5.958   3.484   2.296 -1.2902 -1.2058  0.0653
17431TIP3   OH273707   6.271   5.740   5.038 -0.5470 -0.6815  0.1428
17431TIP3    H173708   6.341   5.679   5.014 -1.3321 -1.1779 -1.0083
17431TIP3    H273709   6.213   5.689   5.094 -0.2330 -0.4079  0.7250
17432TIP3   OH273710   6.774   1.461  14.058  0.5703  0.2742 -0.7549
17432TIP3    H173711   6.728   1.456  14.142 -0.4270 -0.2572 -1.3210
17432TIP3    H273712   6.818   1.377  14.049 -2.3853 -1.2686 -2.4407
17433TIP3   OH273713   2.656   5.150   5.574  0.2843 -0.4108  0.0915
17433TIP3    H173714   2.716   5.157   5.648 -0.3898  0.9532  0.5654
17433TIP3    H273715   2.666   5.061   5.542 -0.0117 -1.3492  2.3811
17434TIP3   OH273716   3.200   2.639   0.053  0.0459  0.2510  0.0109
17434TIP3    H173717   3.166   2.726   0.030  0.8852  0.1765 -1.6799
17434TIP3    H273718   3.158   2.580  -0.009 -1.1436 -0.7353  1.6635
17435TIP3   OH273719   3.843   0.517   1.288 -0.3188 -0.4145  0.2725
17435TIP3    H173720   3.791   0.451   1.242  0.7501 -0.2376 -1.2571
17435TIP3    H273721   3.793   0.598   1.280  0.2173 -0.2032 -1.3588
17436TIP3   OH273722   1.250   5.395   1.321 -0.0882  0.0151  0.5759
17436TIP3    H173723   1.216   5.453   1.389 -0.1165  0.9060 -0.1722
17436TIP3    H273724   1.298   5.453   1.262  1.0360 -0.9305  0.5262
17437TIP3   OH273725   6.067   6.509   2.952 -0.4669 -0.1302 -0.4779
17437TIP3    H173726   6.103   6.426   2.919 -0.2316  0.0604 -0.7051
17437TIP3    H273727   6.075   6.569   2.878  0.5058  0.4404  0.0636
17438TIP3   OH273728   3.520   1.823  12.120 -0.0911 -0.3197 -0.3010
17438TIP3    H173729   3.534   1.843  12.212 -0.2966  1.5614 -0.6376
17438TIP3    H273730   3.491   1.732  12.119 -3.0975  0.4657  1.8181
17439TIP3   OH273731   3.233   2.463   6.361  0.2702  0.1903  0.5751
17439TIP3    H173732   3.307   2.407   6.385 -0.3465 -0.7467  0.3269
17439TIP3    H273733   3.274   2.542   6.325  1.1626 -1.0699 -1.3396
17440TIP3   OH273734   2.263   2.697   1.013 -0.4996 -0.2275  0.2642
17440TIP3    H173735   2.233   2.690   0.922 -0.2459  1.5777  0.0125
17440TIP3    H273736   2.355   2.670   1.009 -0.5300 -0.3028  0.0227
17441TIP3   OH273737   3.363   4.698   3.870  0.6205  0.0908 -0.4757
17441TIP3    H173738   3.427   4.639   3.830 -0.3968 -0.0090 -2.0139
17441TIP3    H273739   3.400   4.785   3.858  1.0473 -0.0576 -0.2532
17442TIP3   OH273740   6.297   4.286  12.295 -0.1141 -0.6884  0.0367
17442TIP3    H173741   6.221   4.228  12.294 -1.0258  0.4877 -0.2365
17442TIP3    H273742   6.341   4.270  12.211 -0.8108 -0.4035 -0.3854
17443TIP3   OH273743   0.407   6.693  13.159 -0.0948 -0.1464  0.0635
17443TIP3    H173744   0.482   6.654  13.114 -0.8743  1.1762 -2.6041
17443TIP3    H273745   0.335   6.632  13.143 -0.7884  1.1645 -2.1603
17444TIP3   OH273746   0.376   2.383  13.023  0.0052  0.7086  0.0518
17444TIP3    H173747   0.303   2.444  13.034 -3.0178 -2.2597 -1.3836
17444TIP3    H273748   0.381   2.336  13.106 -1.3545 -0.5924 -0.5616
17445TIP3   OH273749   3.746   5.626  15.468  0.3733 -0.1517  0.4261
17445TIP3    H173750   3.781   5.709  15.437  2.2926  0.4430  3.6905
17445TIP3    H273751   3.728   5.575  15.389 -0.4102  3.1279 -1.6625
17446TIP3   OH273752   0.327   6.521   2.293 -0.5943  0.5114  0.3280
17446TIP3    H173753   0.285   6.435   2.304 -1.4792  0.8792 -0.0696
17446TIP3    H273754   0.406   6.516   2.347 -0.4784 -0.6595  0.0791
17447TIP3   OH273755   4.101   3.092   1.587  0.3661 -0.1174  0.0913
17447TIP3    H173756   4.036   3.081   1.657 -1.2266 -0.3248 -1.3554
17447TIP3    H273757   4.054   3.138   1.517  0.9634 -2.5367 -2.0495
17448TIP3   OH273758   2.976   4.921   0.317  0.5242  0.1392  0.1414
17448TIP3    H173759   3.017   4.896   0.400  1.3554  1.0080  0.0195
17448TIP3    H273760   2.976   5.017   0.318  1.7030  0.2073 -1.3766
17449TIP3   OH273761   1.330   5.874  15.431  0.2704  0.0021 -0.5127
17449TIP3    H173762   1.311   5.802  15.371  0.0878  0.5627 -1.1428
17449TIP3    H273763   1.273   5.945  15.402  2.3279  1.2923 -1.6136
17450TIP3   OH273764   2.522   4.239   1.048 -0.2604 -0.8275 -0.0347
17450TIP3    H173765   2.430   4.261   1.062 -0.2731 -0.7329 -0.2645
17450TIP3    H273766   2.568   4.323   1.052  0.0310 -1.0210  1.6663
17451TIP3   OH273767   3.891   1.116  16.091  0.6004 -0.0829 -0.0284
17451TIP3    H173768   3.981   1.084  16.086  0.9843  0.7687  1.0097
17451TIP3    H273769   3.894   1.204  16.054  0.4761  0.4415  1.1464
17452TIP3   OH273770   3.352   6.090  14.455 -0.5549  0.0285 -0.1163
17452TIP3    H173771   3.337   6.048  14.539 -1.3536  0.0460 -0.2435
17452TIP3    H273772   3.267   6.125  14.429 -0.1242  0.8463 -0.4941
17453TIP3   OH273773   1.565   2.797  14.457 -1.0506  0.3245  0.7522
17453TIP3    H173774   1.533   2.882  14.426  0.2683  1.1714  1.5899
17453TIP3    H273775   1.660   2.804  14.449 -0.9429 -1.4079  0.0687
17454TIP3   OH273776   0.982   0.317  13.900  0.1270 -0.2912  0.2061
17454TIP3    H173777   0.904   0.318  13.844  0.2785  0.4573  0.0044
17454TIP3    H273778   1.030   0.239  13.872 -0.3463 -0.5328  0.0530
17455TIP3   OH273779   5.152   3.477  14.440 -0.0321  0.4465  0.1374
17455TIP3    H173780   5.119   3.555  14.486 -2.9187 -0.3202 -0.3911
17455TIP3    H273781   5.082   3.455  14.378  1.0451 -2.0856 -0.3114
17456TIP3   OH273782   2.667   2.797   3.411 -0.2320 -0.1992  0.2727
17456TIP3    H173783   2.581   2.838   3.407 -0.8051 -1.2956  0.9547
17456TIP3    H273784   2.650   2.709   3.445  1.1443 -0.4642  0.3184
17457TIP3   OH273785   5.991   3.710  14.668  0.0945  0.6561  0.1608
17457TIP3    H173786   5.907   3.667  14.652  0.7962 -0.1538 -1.5960
17457TIP3    H273787   5.969   3.804  14.673 -0.9414  0.4321  0.0734
17458TIP3   OH273788   3.217   1.184  13.820 -0.2160 -0.2482 -0.3227
17458TIP3    H173789   3.208   1.214  13.729  0.3375 -0.1850 -0.3548
17458TIP3    H273790   3.139   1.130  13.834 -0.7754  0.4729 -0.5435
17459TIP3   OH273791   1.497   3.066  16.896 -0.4095 -0.4279 -0.4061
17459TIP3    H173792   1.451   3.092  16.976  1.3368 -0.0472  0.5333
17459TIP3    H273793   1.568   3.130  16.887 -0.7992 -0.2095 -2.5210
17460TIP3   OH273794   4.474   2.103  15.233 -0.3940  0.4956 -0.3725
17460TIP3    H173795   4.514   2.161  15.298  1.3783 -1.3240  0.2866
17460TIP3    H273796   4.384   2.134  15.225 -0.6226  0.9768  2.7766
17461TIP3   OH273797   6.192   0.502   5.990 -0.2373  0.2012  0.1747
17461TIP3    H173798   6.166   0.412   5.973 -0.5649  0.2604  0.3592
17461TIP3    H273799   6.114   0.544   6.027 -0.1558  0.6208 -0.1188
17462TIP3   OH273800   3.145   2.409   1.578 -0.2498 -0.1808  0.6237
17462TIP3    H173801   3.126   2.462   1.656  0.3326 -1.0177  1.3438
17462TIP3    H273802   3.180   2.327   1.612 -2.9057 -1.8784 -0.3491
17463TIP3   OH273803   1.303   1.513  11.861 -0.4151  0.5475 -0.2670
17463TIP3    H173804   1.235   1.559  11.911  1.4687  1.6004  1.4849
17463TIP3    H273805   1.308   1.560  11.778 -1.3345  0.8740 -0.1519
17464TIP3   OH273806   6.543   2.694   0.877 -0.1801  0.0479  0.0713
17464TIP3    H173807   6.449   2.679   0.869  0.0420 -0.7449 -1.3339
17464TIP3    H273808   6.582   2.645   0.805  1.2638  0.9090  0.2153
17465TIP3   OH273809   2.104   3.842   5.255 -0.0039  0.2748  0.3648
17465TIP3    H173810   2.138   3.931   5.250 -2.3576  1.2256 -0.1797
17465TIP3    H273811   2.035   3.838   5.189 -0.8029 -1.5616  1.2145
17466TIP3   OH273812   5.036   2.901  14.497  0.3409  0.4189 -0.0403
17466TIP3    H173813   4.997   2.887  14.584 -0.6930  1.0833 -0.3845
17466TIP3    H273814   4.995   2.981  14.465  2.9582  1.9367  0.1149
17467TIP3   OH273815   2.901   2.344  15.077 -0.0724 -0.4021 -0.3386
17467TIP3    H173816   2.847   2.285  15.130  0.4732  0.1639  0.8767
17467TIP3    H273817   2.842   2.417  15.057 -0.7029 -1.2487 -1.7193
17468TIP3   OH273818   4.630   1.358   2.862 -0.4171 -0.3476  0.2961
17468TIP3    H173819   4.619   1.299   2.787 -0.4086  1.0696 -0.8755
17468TIP3    H273820   4.614   1.303   2.938  0.5728 -2.0802 -0.6843
17469TIP3   OH273821   6.444   1.223  16.335  0.4130  0.1076 -0.6114
17469TIP3    H173822   6.388   1.147  16.316  1.0859 -0.1786 -1.5290
17469TIP3    H273823   6.467   1.258  16.249  1.6873  0.1925 -0.2582
17470TIP3   OH273824   1.574   0.006   4.679  0.1494 -0.5940 -0.7822
17470TIP3    H173825   1.504   0.062   4.712 -0.1036  0.2543 -2.6138
17470TIP3    H273826   1.655   0.048   4.709 -0.0727 -1.6370  1.4328
17471TIP3   OH273827   1.017   3.217  16.543 -0.3681  0.4823  0.3732
17471TIP3    H173828   1.046   3.126  16.544 -1.4138  0.1335  0.4119
17471TIP3    H273829   1.097   3.268  16.531  0.4887 -0.3354  2.1437
17472TIP3   OH273830   2.201   6.035   4.604  0.3698 -0.4788  0.4706
17472TIP3    H173831   2.177   5.975   4.675  0.4488 -0.8298  0.1966
17472TIP3    H273832   2.161   5.998   4.526 -2.5012  1.5584  0.8042
17473TIP3   OH273833   2.391   3.416  14.812 -1.2342 -0.1766  0.1143
17473TIP3    H173834   2.427   3.328  14.799 -0.1059  0.7115 -4.1118
17473TIP3    H273835   2.441   3.452  14.885  0.3546 -1.9805 -0.0034
17474TIP3   OH273836   3.287   1.117  15.838  0.5343 -0.8090 -0.4998
17474TIP3    H173837   3.290   1.209  15.864  1.5742 -1.1116  0.5268
17474TIP3    H273838   3.193   1.098  15.830  0.2859  0.1667 -0.0892
17475TIP3   OH273839   2.856   1.739  11.918 -0.3321 -0.3772  0.6898
17475TIP3    H173840   2.851   1.788  11.836 -0.8124 -0.2683  0.7820
17475TIP3    H273841   2.943   1.699  11.917  0.2532  0.8494  0.8187
17476TIP3   OH273842   0.571   2.522   5.043 -0.0605  0.1368  0.1412
17476TIP3    H173843   0.612   2.509   5.129 -1.5923 -0.9324  0.7650
17476TIP3    H273844   0.501   2.457   5.040 -0.7005  0.8427 -1.5144
17477TIP3   OH273845   0.207   1.719   1.214 -0.2586 -0.7551 -0.5762
17477TIP3    H173846   0.188   1.786   1.148  1.5062 -0.5260 -0.8796
17477TIP3    H273847   0.143   1.650   1.197 -0.5192 -0.2256 -1.8332
17478TIP3   OH273848   1.197   3.322   1.900  0.0357  0.8826 -0.1742
17478TIP3    H173849   1.275   3.376   1.885  0.3294  0.6754  0.5608
17478TIP3    H273850   1.219   3.237   1.860 -0.0246  0.9820 -0.4245
17479TIP3   OH273851   1.009   3.997  14.319  0.3729  0.3265  0.4744
17479TIP3    H173852   1.056   4.037  14.392  0.5653  0.4463  0.2868
17479TIP3    H273853   1.060   3.919  14.297  0.8547  0.8125 -0.1567
17480TIP3   OH273854   1.744   5.666  11.809 -0.1882  0.1334 -0.1596
17480TIP3    H173855   1.721   5.666  11.716  2.3645 -0.1284 -0.8598
17480TIP3    H273856   1.762   5.574  11.829 -1.3187  0.1060  0.7734
17481TIP3   OH273857   0.522   0.996   3.334  0.1708  0.1321  0.7375
17481TIP3    H173858   0.528   0.988   3.429  0.8591  0.2460  0.7096
17481TIP3    H273859   0.613   0.993   3.304 -0.1138 -1.4407 -0.0541
17482TIP3   OH273860   1.887   6.614  11.904  0.2548 -0.2274  0.1055
17482TIP3    H173861   1.880   6.577  11.991  0.6100  1.3412  0.8414
17482TIP3    H273862   1.824   6.687  11.903  0.2661 -0.2061 -0.9326
17483TIP3   OH273863   3.554   0.808   6.568 -0.2014  0.0630  0.7847
17483TIP3    H173864   3.566   0.714   6.556 -0.9195 -0.1968  1.9607
17483TIP3    H273865   3.460   0.818   6.584 -0.3920  1.1666 -0.7893
17484TIP3   OH273866   1.495   1.026   2.655  0.4008  0.0189  0.3677
17484TIP3    H173867   1.432   1.073   2.601  1.4503  0.4172 -0.5394
17484TIP3    H273868   1.442   0.979   2.720 -0.8586 -0.1806 -0.7883
17485TIP3   OH273869   5.782   1.526   1.162  0.3663  0.2717 -0.6354
17485TIP3    H173870   5.780   1.452   1.101  0.4159  0.3346 -0.7140
17485TIP3    H273871   5.845   1.587   1.123  1.1292 -0.1140 -0.0211
17486TIP3   OH273872   3.819   6.314   1.305  0.4202 -0.2581  0.2273
17486TIP3    H173873   3.730   6.281   1.295  0.7574 -1.6490  1.4872
17486TIP3    H273874   3.875   6.246   1.268  0.9818  0.5571 -0.4561
17487TIP3   OH273875   6.774   3.492  13.202 -0.2144 -0.0027  0.6537
17487TIP3    H173876   6.791   3.504  13.296 -1.3590  1.0928  0.7478
17487TIP3    H273877   6.825   3.561  13.160  0.9248 -0.9784  0.3770
17488TIP3   OH273878   4.741   3.404   4.885 -0.3087 -0.2885 -0.2015
17488TIP3    H173879   4.815   3.452   4.848 -2.0442  1.5725 -1.4353
17488TIP3    H273880   4.737   3.324   4.834  0.1522  0.1269 -0.9076
17489TIP3   OH273881   4.086   0.056   5.211 -0.0292  0.1123 -0.1598
17489TIP3    H173882   4.099  -0.021   5.157 -2.1287  0.2804 -0.9998
17489TIP3    H273883   4.062   0.125   5.149 -3.2394  0.1279  0.9157
17490TIP3   OH273884   4.720   1.363   0.832 -0.0363 -0.2002  0.4148
17490TIP3    H173885   4.774   1.411   0.769 -1.4710  0.2260 -0.5454
17490TIP3    H273886   4.633   1.402   0.824 -1.1428 -2.5052  0.0332
17491TIP3   OH273887   4.376   0.482  11.643  0.2013  0.4401  0.1829
17491TIP3    H173888   4.392   0.401  11.691 -0.3609 -0.3993 -0.9839
17491TIP3    H273889   4.337   0.541  11.707  0.7806 -0.1547  1.0975
17492TIP3   OH273890   2.440   4.068  12.095  0.1854 -0.2153 -0.3529
17492TIP3    H173891   2.375   4.010  12.056 -2.9037  1.9332  1.2552
17492TIP3    H273892   2.493   4.098  12.020 -2.0217 -0.4220 -2.0898
17493TIP3   OH273893   6.417   6.614  13.652 -0.4563 -0.3520  0.0839
17493TIP3    H173894   6.424   6.589  13.559 -2.2576  0.2999 -0.2669
17493TIP3    H273895   6.506   6.641  13.676  0.0498 -0.5311 -1.4447
17494TIP3   OH273896   4.480   0.892  10.446  1.2499 -0.0068 -0.1887
17494TIP3    H173897   4.515   0.933  10.367  1.2891  0.1250 -0.1025
17494TIP3    H273898   4.505   0.800  10.438  0.7462 -0.1082 -0.6132
17495TIP3   OH273899   0.291   2.488   2.755  0.0416 -0.4891  0.0352
17495TIP3    H173900   0.252   2.485   2.668  2.1633 -1.4422 -0.9737
17495TIP3    H273901   0.370   2.542   2.743 -0.0443  0.0017  1.5510
17496TIP3   OH273902   2.706   0.335   4.429 -0.5053 -0.0551 -0.0715
17496TIP3    H173903   2.760   0.281   4.486  0.6802 -1.2226 -2.1693
17496TIP3    H273904   2.690   0.415   4.479  3.2969  0.4370  0.6926
17497TIP3   OH273905   0.092   1.444   3.041  0.8298  1.1211  0.6201
17497TIP3    H173906   0.133   1.363   3.008  0.6104  0.6064  1.5741
17497TIP3    H273907   0.157   1.481   3.100  0.2515  0.7130  1.5355
17498TIP3   OH273908   2.420   6.548   5.563 -0.1942 -0.2784 -0.0262
17498TIP3    H173909   2.476   6.489   5.512  1.0259 -0.7647  1.7390
17498TIP3    H273910   2.429   6.633   5.521  0.6401 -0.6856 -0.6995
17499TIP3   OH273911   3.250   0.240   4.969 -0.4446 -0.2750  0.3694
17499TIP3    H173912   3.311   0.225   5.041 -1.0168  0.4388  1.0281
17499TIP3    H273913   3.164   0.225   5.008 -0.7556  0.0355 -0.1834
17500TIP3   OH273914   2.895   5.872  11.936  0.5059  0.4999  0.2360
17500TIP3    H173915   2.897   5.904  12.027  0.4018 -1.9729  1.2013
17500TIP3    H273916   2.982   5.834  11.923 -0.0530 -0.7216 -0.0587
17501TIP3   OH273917   1.958   5.950  13.613 -0.2734 -0.4213  0.3281
17501TIP3    H173918   1.975   5.945  13.707 -0.1274  1.4444  0.4406
17501TIP3    H273919   1.871   5.990  13.606  0.1680  0.4746 -0.3068
17502TIP3   OH273920   1.771   4.874   2.159  0.1866 -0.1829  0.7128
17502TIP3    H173921   1.682   4.862   2.193 -0.4638 -2.5619 -1.5215
17502TIP3    H273922   1.825   4.818   2.214 -0.5207 -2.3799 -0.7099
17503TIP3   OH273923   5.716   0.160   5.331  0.5123 -0.4617  0.6746
17503TIP3    H173924   5.711   0.183   5.424  0.0880  0.2536  0.4840
17503TIP3    H273925   5.806   0.132   5.318  0.4810 -0.9041  1.3813
17504TIP3   OH273926   6.753   6.820  12.704  0.4127  0.2574  0.2978
17504TIP3    H173927   6.675   6.828  12.759  1.2438  1.6126  1.3635
17504TIP3    H273928   6.720   6.809  12.615 -0.9903  1.3676  0.6541
17505TIP3   OH273929   4.626   6.544   1.977  0.6168  0.6591  0.0083
17505TIP3    H173930   4.686   6.613   2.006  0.4596  1.1517 -0.8171
17505TIP3    H273931   4.611   6.562   1.884 -0.7816  0.5341  0.1849
17506TIP3   OH273932   0.907   2.122   5.946 -0.7689 -0.3996 -0.5760
17506TIP3    H173933   0.820   2.117   5.984 -1.1537  0.9296 -1.2366
17506TIP3    H273934   0.893   2.108   5.852 -0.3932  0.6454 -0.7972
17507TIP3   OH273935   4.065   5.756   2.831  0.0518  0.1428 -0.3060
17507TIP3    H173936   4.041   5.738   2.922  0.2860  0.4108 -0.1934
17507TIP3    H273937   3.991   5.807   2.796 -1.2994 -2.1487 -1.0290
17508TIP3   OH273938   1.087   6.723   1.892  0.3259  0.3456  0.4015
17508TIP3    H173939   1.173   6.703   1.854  0.5287  1.9777 -0.0544
17508TIP3    H273940   1.055   6.638   1.923  1.5288 -0.5081 -0.5823
17509TIP3   OH273941   1.523   5.207  15.714 -0.6004  0.8846  0.5886
17509TIP3    H173942   1.511   5.121  15.753 -1.3766  0.6861 -0.0743
17509TIP3    H273943   1.440   5.252  15.726 -0.3824  1.3409  0.4312
17510TIP3   OH273944   6.538   4.494  11.343 -0.2565  0.0159 -0.1039
17510TIP3    H173945   6.612   4.442  11.312  0.4970  0.3599  1.0545
17510TIP3    H273946   6.508   4.542  11.265  3.6834  3.4372  0.1478
17511TIP3   OH273947   5.530   6.639  13.715  0.1889 -0.3409 -0.4029
17511TIP3    H173948   5.529   6.598  13.801 -0.5967  0.9639  0.2340
17511TIP3    H273949   5.617   6.678  13.708  0.5589 -1.1666 -0.5761
17512TIP3   OH273950   0.863   3.242  16.996  0.0321  0.2752 -0.4897
17512TIP3    H173951   0.905   3.312  17.045  0.1067 -0.0914 -0.0210
17512TIP3    H273952   0.874   3.267  16.904  1.4720  0.0838 -0.3976
17513TIP3   OH273953   4.440   2.553  12.454 -0.4902 -0.2123  0.4029
17513TIP3    H173954   4.421   2.619  12.387  0.1003  0.3867  0.8179
17513TIP3    H273955   4.364   2.495  12.452  0.1733 -1.1542 -1.9025
17514TIP3   OH273956   5.034   0.206  10.685  0.2316 -0.1680  0.1509
17514TIP3    H173957   4.977   0.133  10.710 -1.4182  0.7493 -0.7430
17514TIP3    H273958   4.996   0.283  10.727  1.5598  0.2951  0.5495
17515TIP3   OH273959   2.621   3.260  13.991  0.7198  0.4009 -0.0050
17515TIP3    H173960   2.664   3.179  13.963  0.1637  0.6219 -1.6121
17515TIP3    H273961   2.541   3.230  14.035  0.7921  0.0681 -0.0978
17516TIP3   OH273962   2.105   6.285   4.554 -0.2656  0.0373 -0.0732
17516TIP3    H173963   2.160   6.219   4.594  0.9954  1.1926  0.1530
17516TIP3    H273964   2.075   6.340   4.627 -2.0474 -0.7772 -0.1389
17517TIP3   OH273965   3.205   0.199   5.834  0.0028 -0.6359 -0.6089
17517TIP3    H173966   3.153   0.240   5.903  0.7337 -0.0081 -0.4193
17517TIP3    H273967   3.295   0.223   5.854  0.1588  0.4936 -2.3799
17518TIP3   OH273968   0.962   5.921   0.773 -0.3164  0.2829  0.8416
17518TIP3    H173969   0.914   5.945   0.694  0.0644 -0.5200  0.3566
17518TIP3    H273970   1.044   5.884   0.741  0.1844  0.6859  1.6393
17519TIP3   OH273971   4.125   0.641  14.966  0.0995 -0.1483  0.7662
17519TIP3    H173972   4.109   0.729  14.933  0.4622 -0.0862  0.7544
17519TIP3    H273973   4.134   0.587  14.887  2.2898  0.2237  0.6812
17520TIP3   OH273974   4.208   4.147   3.678  0.2819  0.0812 -0.6456
17520TIP3    H173975   4.227   4.079   3.743  0.9856  0.1715 -0.7466
17520TIP3    H273976   4.290   4.157   3.630  0.1957  1.0336 -0.6115
17521TIP3   OH273977   2.483   4.607   3.785 -0.0419 -0.0107  0.0135
17521TIP3    H173978   2.507   4.552   3.860 -0.4930  0.4373  0.5048
17521TIP3    H273979   2.389   4.622   3.796  0.1183  1.0500  0.0305
17522TIP3   OH273980   1.072   2.058  11.535 -0.3869 -0.0573 -0.4834
17522TIP3    H173981   1.066   2.121  11.463 -0.2322 -1.9908 -2.2757
17522TIP3    H273982   0.982   2.050  11.566 -0.6323  0.0578 -1.1335
17523TIP3   OH273983   5.863   1.606   0.454 -0.0508 -0.3754 -0.2380
17523TIP3    H173984   5.913   1.608   0.535  0.9045  2.3935 -0.7874
17523TIP3    H273985   5.785   1.658   0.473 -0.9838 -1.6528 -0.4495
17524TIP3   OH273986   6.044   5.196   4.419 -0.1425  0.3096 -0.6280
17524TIP3    H173987   5.950   5.209   4.410 -0.3174  0.4039  1.0811
17524TIP3    H273988   6.083   5.276   4.385 -0.8279  1.4933  1.2355
17525TIP3   OH273989   3.367   1.380  16.439 -0.1416  0.1719 -0.1250
17525TIP3    H173990   3.335   1.423  16.519  0.5821  2.1171 -0.8168
17525TIP3    H273991   3.412   1.449  16.391 -0.2806 -1.0215 -2.0975
17526TIP3   OH273992   1.175   2.581  15.916  0.4505 -0.0014 -0.0726
17526TIP3    H173993   1.171   2.542  16.003  0.6905  0.2885  0.0698
17526TIP3    H273994   1.222   2.517  15.863  2.1159  0.7038  0.4958
17527TIP3   OH273995   0.140   6.504  14.620 -0.1480  0.7581 -0.1483
17527TIP3    H173996   0.227   6.470  14.602  0.0210  0.0914  1.6647
17527TIP3    H273997   0.155   6.576  14.682 -0.8204  1.2152 -0.5112
17528TIP3   OH273998   2.543   3.186   4.087 -0.4449  0.0438 -0.1365
17528TIP3    H173999   2.506   3.106   4.126 -1.3221  0.3749 -0.2659
17528TIP3    H274000   2.531   3.175   3.993  0.5187 -0.1869 -0.2469
17529TIP3   OH274001   2.181   1.251   5.255  0.2604 -0.1283  0.1484
17529TIP3    H174002   2.182   1.329   5.199  1.9737  0.3282  0.7411
17529TIP3    H274003   2.105   1.264   5.312 -0.5387  0.2014 -0.9452
17530TIP3   OH274004   1.226   2.146  11.117 -0.2978  0.1412  0.2519
17530TIP3    H174005   1.152   2.086  11.109 -0.8486  0.8946 -0.4376
17530TIP3    H274006   1.237   2.183  11.029  1.6561 -0.8135  0.0372
17531TIP3   OH274007   3.867   0.842  11.772 -0.4792  0.6039  0.0949
17531TIP3    H174008   3.841   0.814  11.860 -0.1574  0.4231  0.1336
17531TIP3    H274009   3.793   0.894  11.741 -0.0652  1.7599  0.9685
17532TIP3   OH274010   2.361   0.402   2.715 -0.1106  0.0700 -0.1332
17532TIP3    H174011   2.350   0.496   2.730  2.1448  0.2985  0.4597
17532TIP3    H274012   2.406   0.396   2.630 -1.2055 -0.5499 -0.6888
17533TIP3   OH274013   5.201   1.393  14.183 -0.2602 -0.0977  0.7853
17533TIP3    H174014   5.263   1.398  14.110  0.2585  0.3280  1.2416
17533TIP3    H274015   5.115   1.398  14.143 -0.0007 -0.8666  0.1216
17534TIP3   OH274016   6.419   2.102  14.405 -0.5985  0.2192  0.0998
17534TIP3    H174017   6.469   2.029  14.442 -0.3409 -0.5229 -1.6172
17534TIP3    H274018   6.481   2.175  14.408  1.4173 -1.0842 -3.5908
17535TIP3   OH274019   0.765   2.687  10.894  0.1964 -0.3019 -0.0366
17535TIP3    H174020   0.843   2.742  10.886 -1.1755  1.6815 -0.6394
17535TIP3    H274021   0.735   2.674  10.804 -0.6335 -0.2968  0.2275
17536TIP3   OH274022   5.810   6.618  16.235 -0.8664 -0.4827 -0.1244
17536TIP3    H174023   5.869   6.693  16.238 -0.1635 -1.0673  1.3887
17536TIP3    H274024   5.774   6.620  16.146 -0.0190  0.9842 -0.4676
17537TIP3   OH274025   3.668   2.686  11.902 -0.3071  0.5842 -0.5465
17537TIP3    H174026   3.721   2.690  11.823 -1.2845  0.8586 -1.1964
17537TIP3    H274027   3.579   2.702  11.873 -0.4533  2.7780  0.8672
17538TIP3   OH274028   2.739   4.571  14.650  0.6918 -0.1680 -0.0333
17538TIP3    H174029   2.805   4.501  14.650  0.5398 -0.3525 -1.6499
17538TIP3    H274030   2.779   4.641  14.700  1.7329 -0.6477 -0.1607
17539TIP3   OH274031   6.407   0.420  13.822  0.0403 -0.3322 -0.1740
17539TIP3    H174032   6.368   0.483  13.762  2.1120 -0.1915 -1.4688
17539TIP3    H274033   6.358   0.339  13.806  1.9857 -0.9805 -3.9413
17540TIP3   OH274034   5.199   6.254  11.373 -0.6272 -0.0233 -0.3285
17540TIP3    H174035   5.137   6.276  11.442  0.0970  0.8703  0.0622
17540TIP3    H274036   5.159   6.181  11.326 -1.7168  0.1996  0.2390
17541TIP3   OH274037   1.884   0.214   1.441 -0.2451  0.3278 -0.1647
17541TIP3    H174038   1.881   0.202   1.346  1.4417  3.3611 -0.6947
17541TIP3    H274039   1.944   0.146   1.472  0.3411  0.2508 -1.4330
17542TIP3   OH274040   2.573   1.853  11.748 -0.5641  0.1323 -0.1364
17542TIP3    H174041   2.497   1.861  11.691 -0.4909  0.7402 -0.1596
17542TIP3    H274042   2.594   1.943  11.773 -0.5012 -0.1099  0.7268
17543TIP3   OH274043   2.037   2.548   1.118  0.5782  0.3621  0.2131
17543TIP3    H174044   2.026   2.573   1.027  1.8660  0.1750 -0.0212
17543TIP3    H274045   2.107   2.605   1.150  2.6779 -1.9118  0.0294
17544TIP3   OH274046   3.272   2.152   0.891 -0.0501  0.4685 -0.1627
17544TIP3    H174047   3.291   2.079   0.833  1.9899 -0.2310  1.2789
17544TIP3    H274048   3.185   2.133   0.926 -0.1837 -0.4591 -0.9683
17545TIP3   OH274049   1.669   5.548  16.748  0.8338  0.0280  0.2605
17545TIP3    H174050   1.684   5.600  16.827  3.1307 -1.3645  0.8266
17545TIP3    H274051   1.743   5.569  16.691  0.2577 -0.4850 -0.7091
17546TIP3   OH274052   6.182   3.103  16.380 -0.3683  0.0068  0.3912
17546TIP3    H174053   6.120   3.054  16.435  1.0281 -0.9034  1.1937
17546TIP3    H274054   6.221   3.167  16.439 -0.0134  0.0898  0.0717
17547TIP3   OH274055   5.677   4.693  11.607 -0.0471 -0.0500 -0.4265
17547TIP3    H174056   5.617   4.695  11.532 -1.9728  0.6306  1.0681
17547TIP3    H274057   5.704   4.601  11.613 -0.6964 -0.3131 -1.3085
17548TIP3   OH274058   3.607   0.185  14.518 -0.4236  0.3169 -0.3632
17548TIP3    H174059   3.516   0.157  14.518 -0.0489 -1.0859 -1.7740
17548TIP3    H274060   3.657   0.104  14.506  1.0665  0.9554  1.0794
17549TIP3   OH274061   1.223   1.222  13.062 -0.5723 -0.4203  0.4907
17549TIP3    H174062   1.225   1.318  13.060  2.9560 -0.3542 -2.1387
17549TIP3    H274063   1.162   1.198  12.993 -0.5382 -0.0256  0.3180
17550TIP3   OH274064   6.538   6.512   4.263 -0.6435  0.2266  0.7169
17550TIP3    H174065   6.588   6.590   4.239  0.1298 -0.3438  0.4478
17550TIP3    H274066   6.604   6.444   4.276 -1.3903 -0.7600 -0.4474
17551TIP3   OH274067   3.248   6.034   3.066 -0.1093 -0.1364  0.5841
17551TIP3    H174068   3.240   5.958   3.009  0.2247 -0.3782  0.8555
17551TIP3    H274069   3.278   5.998   3.150 -1.6380  0.0708  1.2584
17552TIP3   OH274070   0.333   3.585   3.905  0.0129 -0.0213  0.2533
17552TIP3    H174071   0.287   3.512   3.947 -2.1421  0.2863 -1.3709
17552TIP3    H274072   0.349   3.555   3.815 -2.4541  1.9958 -0.9797
17553TIP3   OH274073   6.420   3.855   1.383 -0.5496  0.2931 -0.0730
17553TIP3    H174074   6.386   3.872   1.471  0.4299 -0.3849  0.4622
17553TIP3    H274075   6.514   3.840   1.397 -0.5265 -0.6415 -1.1203
17554TIP3   OH274076   3.942   0.643   3.597  0.7682 -0.4004  0.2840
17554TIP3    H174077   3.992   0.586   3.538 -0.9966  0.1671 -1.8763
17554TIP3    H274078   3.866   0.590   3.621  0.2903  0.2090  0.1269
17555TIP3   OH274079   4.998   1.046   0.067 -0.5530 -0.0300 -0.6005
17555TIP3    H174080   5.055   1.119   0.047  0.3341 -0.6922 -0.5436
17555TIP3    H274081   4.929   1.083   0.122 -0.9600  1.0513 -1.7812
17556TIP3   OH274082   2.705   1.037  11.961 -0.1282  0.1180  0.5391
17556TIP3    H174083   2.763   0.984  11.905 -3.1472 -2.8633 -0.1106
17556TIP3    H274084   2.662   1.097  11.901 -0.7783 -0.6342  0.2349
17557TIP3   OH274085   2.475   5.815  15.597  0.0631  0.0869  0.1754
17557TIP3    H174086   2.488   5.766  15.678 -0.8963 -1.5367 -0.6090
17557TIP3    H274087   2.428   5.755  15.540 -1.3952  2.0230 -0.7663
17558TIP3   OH274088   5.339   1.794  15.829  0.5631  0.2411  0.2631
17558TIP3    H174089   5.373   1.821  15.744  1.6397  1.0647  0.9309
17558TIP3    H274090   5.403   1.827  15.893 -0.7036  0.4720  1.4672
17559TIP3   OH274091   4.785   5.862  11.950 -0.1453  0.4521 -0.8863
17559TIP3    H174092   4.807   5.955  11.962 -0.6498  0.4686  0.0377
17559TIP3    H274093   4.869   5.820  11.933  0.5778  0.6392  1.7296
17560TIP3   OH274094   3.132   1.445   3.942 -0.5766 -0.4307  0.5353
17560TIP3    H174095   3.190   1.493   4.001 -0.7514 -2.2297  2.2932
17560TIP3    H274096   3.161   1.354   3.950 -1.3238 -0.8761 -1.3650
17561TIP3   OH274097   4.987   6.201   1.402 -0.0099 -0.0148  0.4308
17561TIP3    H174098   5.021   6.161   1.322 -0.2889 -0.4133  0.5089
17561TIP3    H274099   5.020   6.291   1.399 -0.0024 -0.0294 -0.1236
17562TIP3   OH274100   6.601   5.363  14.344  0.2796 -0.6946  0.4643
17562TIP3    H174101   6.659   5.333  14.415  0.3071  0.1365  0.8015
17562TIP3    H274102   6.521   5.390  14.389 -0.2247 -1.4233  0.0393
17563TIP3   OH274103   5.604   3.480   1.455 -0.0821  0.7319  0.0551
17563TIP3    H174104   5.576   3.395   1.490 -1.0828  0.3367 -1.5501
17563TIP3    H274105   5.673   3.458   1.393 -0.1266  1.1156 -0.1303
17564TIP3   OH274106   4.684   5.181  16.154  0.3898  0.0683 -0.2283
17564TIP3    H174107   4.753   5.231  16.197  1.9072 -1.0861 -1.2115
17564TIP3    H274108   4.658   5.234  16.079  1.9060 -0.5207 -1.2018
17565TIP3   OH274109   4.547   2.153   5.325  0.0622  0.2122  0.3403
17565TIP3    H174110   4.482   2.141   5.256 -1.1466  0.1509  1.4473
17565TIP3    H274111   4.631   2.140   5.281 -0.7288 -1.6047 -0.7550
17566TIP3   OH274112   2.837   2.122  10.591 -0.6620 -0.0289 -0.1774
17566TIP3    H174113   2.810   2.076  10.511 -1.8791 -1.0185  0.7516
17566TIP3    H274114   2.781   2.085  10.659 -0.9517  2.1136  0.8216
17567TIP3   OH274115   0.424   0.213   1.228  0.4109  0.0412 -0.3462
17567TIP3    H174116   0.379   0.148   1.281  1.2070 -0.8836 -0.7703
17567TIP3    H274117   0.429   0.290   1.284  2.9009 -1.4564  1.7005
17568TIP3   OH274118   0.453   5.863   3.167 -0.7583  0.0516  0.2030
17568TIP3    H174119   0.424   5.947   3.201 -0.6759 -0.0928  0.6343
17568TIP3    H274120   0.516   5.831   3.232 -0.7632 -0.3249  0.0256
17569TIP3   OH274121   6.561   4.058  11.357 -0.6801  0.1485  0.6258
17569TIP3    H174122   6.492   4.046  11.422 -1.0891  0.9413  0.3515
17569TIP3    H274123   6.604   3.973  11.351 -1.2932 -0.2047  1.1909
17570TIP3   OH274124   6.087   3.000   5.106  0.4205  0.0901  0.2707
17570TIP3    H174125   6.004   2.965   5.073 -0.3562  2.7230 -0.7677
17570TIP3    H274126   6.153   2.940   5.070 -0.7854 -0.0038 -2.0052
17571TIP3   OH274127   4.689   2.408  12.540 -0.2939 -0.4113  0.0663
17571TIP3    H174128   4.667   2.317  12.521 -1.1840 -0.3002  0.5269
17571TIP3    H274129   4.606   2.455  12.534  0.2403  0.4805 -0.7151
17572TIP3   OH274130   3.585   0.874  11.718  0.6426 -0.7272 -0.7156
17572TIP3    H174131   3.606   0.813  11.646 -0.1672 -1.2905 -0.4976
17572TIP3    H274132   3.543   0.819  11.784  0.1548  0.0255 -0.3847
17573TIP3   OH274133   1.016   5.900   1.701 -0.1719 -0.0145  0.6766
17573TIP3    H174134   0.968   5.818   1.708 -1.4227  0.6111 -0.1144
17573TIP3    H274135   0.956   5.966   1.736 -0.5706  1.0117 -1.7652
17574TIP3   OH274136   1.009   4.664   0.378 -0.0315 -0.4507 -0.3528
17574TIP3    H174137   0.954   4.741   0.365 -0.1975 -0.5285 -0.1133
17574TIP3    H274138   1.031   4.665   0.471  2.1522  0.7845 -0.7975
17575TIP3   OH274139   0.377   2.387  15.407  0.5928 -0.2282 -0.3422
17575TIP3    H174140   0.302   2.441  15.382  1.1833  1.8045  1.8265
17575TIP3    H274141   0.452   2.429  15.364  0.7830 -0.7205 -0.4912
17576TIP3   OH274142   0.368   2.532  11.330  0.0413  0.1035  0.1270
17576TIP3    H174143   0.355   2.443  11.364 -1.8066 -0.0841 -0.9240
17576TIP3    H274144   0.438   2.568  11.384  0.8681 -1.9952  0.5721
17577TIP3   OH274145   3.479   5.387   2.932 -0.2961 -0.4457  0.2211
17577TIP3    H174146   3.556   5.351   2.888  0.2179  1.7400 -0.8395
17577TIP3    H274147   3.446   5.316   2.987  1.4569 -1.9797 -0.6216
17578TIP3   OH274148   3.491   6.662  11.584 -0.0952  0.2290 -0.6487
17578TIP3    H174149   3.402   6.631  11.572  0.7647 -2.5168 -0.4960
17578TIP3    H274150   3.546   6.597  11.541  1.8438  2.3336 -1.5664
17579TIP3   OH274151   2.952   0.702  14.563 -0.2011 -0.7190 -0.0219
17579TIP3    H174152   3.022   0.740  14.618 -0.1485  0.9162 -1.1541
17579TIP3    H274153   2.884   0.769  14.562 -0.7592 -1.2884 -0.8819
17580TIP3   OH274154   4.359   3.105   0.094 -0.1887 -0.2206 -0.0286
17580TIP3    H174155   4.286   3.060   0.136 -0.0327  0.2822  0.7948
17580TIP3    H274156   4.436   3.079   0.145  0.0592  0.1281 -0.2189
17581TIP3   OH274157   5.411   3.364   2.183 -0.4954 -0.1077  0.7031
17581TIP3    H174158   5.344   3.342   2.247 -1.1491  0.8324  0.3633
17581TIP3    H274159   5.381   3.323   2.102 -0.0194 -0.7228  0.8330
17582TIP3   OH274160   0.408   6.389  11.938 -0.1273 -0.1966  0.3579
17582TIP3    H174161   0.475   6.329  11.971  2.5899  1.6351 -1.4270
17582TIP3    H274162   0.386   6.356  11.851 -0.6773 -0.1237  0.4658
17583TIP3   OH274163   3.623   6.609   1.598 -0.3055  0.2062 -0.4836
17583TIP3    H174164   3.558   6.550   1.637 -0.9389  0.6014 -0.9084
17583TIP3    H274165   3.688   6.622   1.666 -1.4011  0.9058  0.4760
17584TIP3   OH274166   5.226   0.497   5.595 -0.3524 -0.3482 -0.2031
17584TIP3    H174167   5.239   0.562   5.664 -1.2773 -0.2780 -0.0703
17584TIP3    H274168   5.142   0.522   5.555 -0.3160 -0.9785 -0.6876
17585TIP3   OH274169   2.694   5.113  16.228  0.6264 -0.5286 -0.1479
17585TIP3    H174170   2.719   5.034  16.277 -1.8729 -1.7438 -0.6791
17585TIP3    H274171   2.768   5.172  16.240  2.2308 -2.6067  1.0083
17586TIP3   OH274172   2.274   0.917  15.792  0.7649  0.1360 -0.1136
17586TIP3    H174173   2.313   0.832  15.774 -0.7732 -0.7014  0.2561
17586TIP3    H274174   2.275   0.924  15.888 -2.0137 -1.0221  0.1136
17587TIP3   OH274175   0.043   3.522   5.442 -0.4959 -0.2138 -0.2933
17587TIP3    H174176   0.058   3.549   5.533  0.2941 -0.6421 -0.2889
17587TIP3    H274177   0.019   3.603   5.397  1.0638  0.4043 -0.1065
17588TIP3   OH274178   4.434   5.025  14.866 -0.2744 -0.6795  0.0325
17588TIP3    H174179   4.405   5.048  14.954 -1.5713 -1.7614 -0.0848
17588TIP3    H274180   4.368   5.066  14.808  1.1601  0.9674 -0.5354
17589TIP3   OH274181   3.858   2.274  16.434  0.2673 -0.1088 -0.1000
17589TIP3    H174182   3.782   2.242  16.386  0.4228  1.8610 -1.8122
17589TIP3    H274183   3.826   2.352  16.480  0.6625 -0.7431  1.2993
17590TIP3   OH274184   5.752   2.801   3.616 -0.1511 -0.5314 -0.2452
17590TIP3    H174185   5.828   2.749   3.589 -1.3908 -2.9121  0.5630
17590TIP3    H274186   5.790   2.882   3.651  1.8789 -0.8001 -1.6413
17591TIP3   OH274187   6.208   2.235  13.038  0.1815 -0.0945  0.1316
17591TIP3    H174188   6.150   2.176  12.991 -1.2168  1.2308  0.1194
17591TIP3    H274189   6.263   2.275  12.971 -0.0167 -0.1383 -0.0550
17592TIP3   OH274190   5.618   2.302   4.422  0.5442 -0.0673  0.1026
17592TIP3    H174191   5.651   2.310   4.332  0.5965  1.0221  0.2113
17592TIP3    H274192   5.692   2.269   4.472  0.2441 -1.6326 -0.4115
17593TIP3   OH274193   5.126   3.550   1.092  0.0548  0.3832 -0.7773
17593TIP3    H174194   5.187   3.619   1.066  1.6946 -1.1763 -1.3218
17593TIP3    H274195   5.154   3.525   1.180 -0.7715  0.6313 -0.4293
17594TIP3   OH274196   6.316   6.508   4.453  0.3492  0.7468 -0.4979
17594TIP3    H174197   6.321   6.420   4.489  0.3658 -0.1675 -2.5641
17594TIP3    H274198   6.388   6.513   4.390 -1.1572  1.2942 -2.2725
17595TIP3   OH274199   3.961   6.245  12.893  0.0543  0.3238 -0.3406
17595TIP3    H174200   4.012   6.299  12.833  0.0978  2.0225  1.1625
17595TIP3    H274201   4.019   6.172  12.915  1.6262  1.8378  0.7780
17596TIP3   OH274202   0.270   2.212  12.329  0.0876 -0.6921  0.2951
17596TIP3    H174203   0.292   2.130  12.374 -0.8982 -0.7537  0.7050
17596TIP3    H274204   0.190   2.192  12.280 -0.3650  0.0940  0.6707
17597TIP3   OH274205   4.772   2.337   1.542  0.3560  0.5071  0.4148
17597TIP3    H174206   4.692   2.386   1.526  0.5593  0.7796  0.2195
17597TIP3    H274207   4.841   2.403   1.538  0.2994  1.0369  4.2748
17598TIP3   OH274208   5.701   1.794  13.710 -0.0151  0.2908 -0.0689
17598TIP3    H174209   5.653   1.772  13.791  0.3928 -0.5711 -0.0520
17598TIP3    H274210   5.777   1.843  13.741 -0.3767  0.8379 -0.0209
17599TIP3   OH274211   3.310   4.305   0.511 -0.3491  0.3466 -0.7608
17599TIP3    H174212   3.401   4.331   0.522  0.1753 -1.7382  0.3135
17599TIP3    H274213   3.295   4.309   0.416  0.8969  0.5132 -0.9633
17600TIP3   OH274214   5.758   5.790   0.663 -0.3475  0.3665 -0.3869
17600TIP3    H174215   5.664   5.800   0.681 -0.8077 -2.4377 -0.7295
17600TIP3    H274216   5.778   5.859   0.599 -1.9633  1.4975  0.2649
17601TIP3   OH274217   6.618   3.341   4.520 -0.0937 -0.2515  0.6043
17601TIP3    H174218   6.655   3.416   4.474 -0.9267 -0.4439 -0.4152
17601TIP3    H274219   6.529   3.368   4.543 -1.9850 -2.2043 -3.3708
17602TIP3   OH274220   5.675   5.547   2.414  0.0312 -0.7485 -0.3983
17602TIP3    H174221   5.613   5.505   2.353 -1.7485 -0.8000  1.3439
17602TIP3    H274222   5.693   5.632   2.373 -1.6825 -0.4836 -0.7110
17603TIP3   OH274223   4.570   3.425   1.601  0.2124  0.4319  0.0208
17603TIP3    H174224   4.644   3.455   1.653  0.3008 -1.0754  0.8146
17603TIP3    H274225   4.609   3.386   1.523  0.4069 -1.6984  1.1128
17604TIP3   OH274226   3.338   4.871   5.127 -0.2019 -0.1141  0.8755
17604TIP3    H174227   3.261   4.822   5.099 -1.3280  1.7261  0.5759
17604TIP3    H274228   3.354   4.842   5.217 -1.9622  0.2619  1.3515
17605TIP3   OH274229   5.295   2.889  14.389  0.1288 -0.3269  0.3468
17605TIP3    H174230   5.203   2.902  14.411 -0.9851 -2.3558 -2.4489
17605TIP3    H274231   5.322   2.972  14.348 -0.9905 -0.2464 -0.2697
17606TIP3   OH274232   2.529   5.463  11.678 -0.4729 -0.1877  0.0466
17606TIP3    H174233   2.530   5.446  11.773 -2.8369 -0.3528  0.1121
17606TIP3    H274234   2.545   5.556  11.670 -0.1469 -0.1926  0.6145
17607TIP3   OH274235   3.020   0.539  13.419  0.3187 -0.4445 -0.4189
17607TIP3    H174236   3.007   0.530  13.514 -0.6109  0.6533 -0.4298
17607TIP3    H274237   3.111   0.511  13.405  0.7302  0.1329  0.9180
17608TIP3   OH274238   2.332   3.630  16.843 -0.0190  0.1301  0.7364
17608TIP3    H174239   2.274   3.584  16.782  1.1173  0.9295 -1.0200
17608TIP3    H274240   2.404   3.569  16.859  0.3237  0.4048  0.2533
17609TIP3   OH274241   1.399   1.725  13.200 -0.2336  0.1352 -0.1435
17609TIP3    H174242   1.464   1.793  13.220 -0.7582  0.7295 -0.4409
17609TIP3    H274243   1.449   1.657  13.155  0.2191  0.5125 -0.2188
17610TIP3   OH274244   3.392   0.237  11.448 -0.2413 -1.0057 -0.2749
17610TIP3    H174245   3.485   0.241  11.427 -0.2726  2.1566 -0.4137
17610TIP3    H274246   3.348   0.260  11.366 -1.0437 -0.8465  0.1847
17611TIP3   OH274247   6.680   6.642   2.302  0.3008  0.1792 -0.2947
17611TIP3    H174248   6.655   6.551   2.282 -1.8805  0.2242  1.7931
17611TIP3    H274249   6.696   6.682   2.216 -0.3532 -1.7213 -1.3695
17612TIP3   OH274250   4.657   0.612  13.477  0.0829 -0.3172  0.1629
17612TIP3    H174251   4.726   0.678  13.464 -2.1461  1.7619 -2.7514
17612TIP3    H274252   4.701   0.528  13.465  2.3509  0.8284 -0.1369
17613TIP3   OH274253   1.450   3.606   3.333  0.4770 -0.0059  0.0218
17613TIP3    H174254   1.441   3.637   3.423  0.0794 -0.5981  0.1941
17613TIP3    H274255   1.463   3.511   3.342 -0.8257 -0.2610 -0.5982
17614TIP3   OH274256   6.608   3.188  11.182 -0.1206  0.2157  0.1352
17614TIP3    H174257   6.621   3.152  11.270  0.7869 -0.8711 -0.4084
17614TIP3    H274258   6.696   3.209  11.152 -0.5236  1.5991 -0.1173
17615TIP3   OH274259   5.724   4.394  16.473  0.6780  0.5265  0.4752
17615TIP3    H174260   5.652   4.423  16.529 -0.2756 -0.2138 -0.3315
17615TIP3    H274261   5.769   4.475  16.449  0.3406  0.9696  1.2806
17616TIP3   OH274262   1.203   6.309   0.396 -0.1111 -0.0781  0.5355
17616TIP3    H174263   1.245   6.393   0.384 -2.0013  0.8656  0.0550
17616TIP3    H274264   1.258   6.262   0.458  2.5473  0.3635 -1.3442
17617TIP3   OH274265   4.895   5.451   1.824 -0.7867 -0.1824 -0.5170
17617TIP3    H174266   4.877   5.475   1.733  1.9191  2.1890 -0.5611
17617TIP3    H274267   4.833   5.503   1.875 -0.5212  0.5499 -0.9302
17618TIP3   OH274268   1.750   1.287  14.599  0.5323  0.0590 -0.5016
17618TIP3    H174269   1.718   1.303  14.510 -0.1800  1.8305  0.0294
17618TIP3    H274270   1.671   1.266  14.649  0.8538 -0.3515 -0.1556
17619TIP3   OH274271   3.605   2.178  14.865 -0.5141 -0.0916 -0.1787
17619TIP3    H174272   3.574   2.250  14.919 -2.4708 -1.3439  0.4837
17619TIP3    H274273   3.545   2.175  14.791 -0.3548 -0.9163 -0.2907
17620TIP3   OH274274   0.360   3.581  11.184 -0.8627  0.3947  0.3938
17620TIP3    H174275   0.407   3.571  11.102 -0.6057  0.5798  0.5187
17620TIP3    H274276   0.358   3.493  11.222  1.1305  0.7106  1.3439
17621TIP3   OH274277   4.648   4.810   1.738 -0.0204 -0.2245 -0.7072
17621TIP3    H174278   4.697   4.888   1.761 -0.8329  0.2789 -0.6225
17621TIP3    H274279   4.614   4.778   1.821  0.9432 -1.1232 -0.6414
17622TIP3   OH274280   2.814   5.360   1.923 -0.0714 -0.2148  0.3187
17622TIP3    H174281   2.853   5.401   1.846 -0.9649  0.9061  0.4273
17622TIP3    H274282   2.857   5.275   1.930  0.4055 -0.1152 -1.0995
17623TIP3   OH274283   3.749   0.821   3.736  0.2045  0.3860  0.5608
17623TIP3    H174284   3.825   0.784   3.691  0.8581  2.1128  0.1390
17623TIP3    H274285   3.786   0.888   3.794 -0.8777  0.1270  1.5879
17624TIP3   OH274286   2.603   4.891   5.011 -0.0460 -0.0944  0.1469
17624TIP3    H174287   2.548   4.813   5.010 -1.2842  0.7594 -0.2466
17624TIP3    H274288   2.593   4.927   5.100 -0.2004  0.1113  0.0474
17625TIP3   OH274289   6.203   2.235   0.186  0.6464  0.2087 -0.0481
17625TIP3    H174290   6.253   2.286   0.123 -0.3154 -0.2878 -1.2806
17625TIP3    H274291   6.268   2.179   0.229  1.5211  1.5486  0.4301
17626TIP3   OH274292   1.370   1.007   4.359  0.0265 -0.2436 -0.2069
17626TIP3    H174293   1.348   1.091   4.399 -1.2422 -1.2360  1.3529
17626TIP3    H274294   1.335   1.012   4.270  0.5611  1.0961 -0.3587
17627TIP3   OH274295   2.351   5.690   1.489  0.3949 -0.8459  0.3865
17627TIP3    H174296   2.272   5.639   1.469  0.2914 -1.2557  1.7655
17627TIP3    H274297   2.419   5.650   1.435 -0.2547 -0.6806 -0.5911
17628TIP3   OH274298   3.793   0.806  14.846 -0.1711  0.2515  0.0924
17628TIP3    H174299   3.718   0.861  14.869  0.5824  1.5072 -0.3716
17628TIP3    H274300   3.820   0.837  14.760  0.1324 -1.0279 -0.3000
17629TIP3   OH274301   4.439   1.681  15.171  0.1240 -0.0750  0.3987
17629TIP3    H174302   4.458   1.588  15.184  1.6226  0.3687  1.7258
17629TIP3    H274303   4.374   1.682  15.102  0.1082 -2.1125  0.3048
17630TIP3   OH274304   1.457   1.196  16.705 -0.2324  0.4811  0.0254
17630TIP3    H174305   1.424   1.124  16.759  1.7795 -0.4806  0.1011
17630TIP3    H274306   1.433   1.275  16.752 -0.6270 -0.2464  1.0820
17631TIP3   OH274307   0.938   2.178  11.170  0.5324  0.5635 -0.2906
17631TIP3    H174308   0.906   2.088  11.179 -1.3992  1.2453  0.3209
17631TIP3    H274309   0.936   2.195  11.076 -0.9287  0.5392 -0.2911
17632TIP3   OH274310   1.083   6.462   2.926 -0.4687 -0.0074 -0.0737
17632TIP3    H174311   0.998   6.491   2.959  0.2038 -0.0121  1.7722
17632TIP3    H274312   1.100   6.380   2.973  0.9897  0.5188  0.3764
17633TIP3   OH274313   1.740   4.565   3.549 -0.5244  0.2613  0.3776
17633TIP3    H174314   1.789   4.494   3.508  0.1743  1.5308 -1.0371
17633TIP3    H274315   1.804   4.609   3.605 -0.8455  0.0522  0.9153
17634TIP3   OH274316   1.738   1.093   3.073  0.5138 -0.2097 -0.6148
17634TIP3    H174317   1.686   1.138   3.007 -0.2430  0.5743  0.4776
17634TIP3    H274318   1.681   1.022   3.104  0.3329  0.2355  0.1039
17635TIP3   OH274319   3.922   2.001   2.329  0.1876 -0.1627 -0.6732
17635TIP3    H174320   3.943   2.095   2.332 -1.4460  0.2543 -1.3239
17635TIP3    H274321   3.833   1.998   2.295  0.5629 -2.0215 -1.5880
17636TIP3   OH274322   4.301   5.767  15.920  0.0138 -0.1222  0.1096
17636TIP3    H174323   4.266   5.690  15.965 -0.0425  0.4031  0.9825
17636TIP3    H274324   4.234   5.790  15.856  0.4553 -1.3715 -0.8616
17637TIP3   OH274325   3.007   6.418   1.805 -0.0937  0.4717  0.4608
17637TIP3    H174326   3.018   6.497   1.752 -1.6303  1.3542  1.4066
17637TIP3    H274327   3.046   6.348   1.752  2.0183  1.9350 -0.0633
17638TIP3   OH274328   0.293   1.660  13.474 -0.5831  0.2424 -0.0992
17638TIP3    H174329   0.268   1.595  13.408 -2.5464 -0.0832  0.8598
17638TIP3    H274330   0.280   1.614  13.557 -1.2542  1.6085  0.5796
17639TIP3   OH274331   2.312   3.737  13.315  0.2177 -0.1950  0.1530
17639TIP3    H174332   2.335   3.689  13.395 -0.5480 -0.9751 -0.0814
17639TIP3    H274333   2.381   3.715  13.253  1.2636  1.0560  0.8314
17640TIP3   OH274334   2.283   2.031   1.842 -0.0482  0.6178 -0.4279
17640TIP3    H174335   2.333   1.956   1.875  0.7518  0.5620 -1.6987
17640TIP3    H274336   2.334   2.107   1.867 -0.5425  0.7188  0.3127
17641TIP3   OH274337   2.863   2.157   1.001 -0.8853  0.2377 -0.1339
17641TIP3    H174338   2.844   2.248   1.023 -0.2000  0.4079 -0.2186
17641TIP3    H274339   2.932   2.163   0.935 -0.8540 -0.3429 -0.1546
17642TIP3   OH274340   3.812   6.434   0.842 -0.5784 -0.4256 -0.0099
17642TIP3    H174341   3.838   6.386   0.920  0.8569  1.1546  0.5681
17642TIP3    H274342   3.717   6.436   0.844 -0.5707  0.4276  2.3023
17643TIP3   OH274343   4.226   5.853   1.286  0.5977  0.1792 -0.5936
17643TIP3    H174344   4.219   5.888   1.197  0.3253 -1.3043 -1.1755
17643TIP3    H274345   4.222   5.758   1.275 -1.3796 -0.0183  1.1567
17644TIP3   OH274346   0.361   3.976   2.895  0.0439 -0.2899 -0.0618
17644TIP3    H174347   0.304   3.990   2.971  0.4314 -2.1919  0.6386
17644TIP3    H274348   0.310   3.920   2.837  0.1948  0.2101 -0.6832
17645TIP3   OH274349   2.877   0.259  11.625 -0.6413 -0.1037 -0.2752
17645TIP3    H174350   2.805   0.211  11.585 -0.3334  0.0086 -0.9688
17645TIP3    H274351   2.956   0.228  11.580 -0.4740  1.3469 -1.0668
17646TIP3   OH274352   0.521   1.496  14.993 -1.1032 -0.0588 -0.5977
17646TIP3    H174353   0.583   1.423  14.994  0.1882  0.9780  1.0557
17646TIP3    H274354   0.545   1.546  14.915  0.5826  0.6223  0.3007
17647TIP3   OH274355   4.037   0.919  15.273  0.9794  0.4188  0.8389
17647TIP3    H174356   4.011   0.970  15.196  3.2599 -0.9231 -0.9487
17647TIP3    H274357   4.055   0.985  15.340 -3.9588  1.5536  1.4505
17648TIP3   OH274358   6.411   0.704  11.309  0.0262  0.0048 -0.0844
17648TIP3    H174359   6.388   0.727  11.220  0.9780  0.6097 -0.1842
17648TIP3    H274360   6.504   0.684  11.306  0.0572 -0.0330  0.7608
17649TIP3   OH274361   1.444   5.660   1.176 -0.4719 -0.0225  0.0031
17649TIP3    H174362   1.351   5.676   1.164 -0.1800  1.7750 -0.1458
17649TIP3    H274363   1.462   5.688   1.266 -0.2539 -1.3640  0.3974
17650TIP3   OH274364   5.860   3.519   2.670 -0.6242 -0.0388  0.1655
17650TIP3    H174365   5.916   3.597   2.675  0.0963 -0.4368 -1.2988
17650TIP3    H274366   5.796   3.540   2.602 -1.4634 -0.1036  0.9147
17651TIP3   OH274367   6.670   4.279   4.631 -0.1583  0.0314 -0.3263
17651TIP3    H174368   6.681   4.339   4.557 -0.2218 -0.7966 -1.0139
17651TIP3    H274369   6.649   4.337   4.705 -2.9288  0.7345 -1.5184
17652TIP3   OH274370   6.757   5.350  12.220 -0.2915 -0.1028 -0.1301
17652TIP3    H174371   6.744   5.309  12.306 -0.4070 -0.5461 -0.3553
17652TIP3    H274372   6.693   5.308  12.163  1.4321 -1.6667 -1.0460
17653TIP3   OH274373   3.136   2.712   4.137 -0.5884 -0.3807 -0.2759
17653TIP3    H174374   3.125   2.674   4.049 -3.9878  1.0606 -0.6125
17653TIP3    H274375   3.113   2.641   4.197 -0.7891 -0.6504 -0.6694
17654TIP3   OH274376   1.643   6.769  11.965 -0.3615 -0.9900 -0.2565
17654TIP3    H174377   1.601   6.847  12.000  1.0460 -0.2620 -0.1313
17654TIP3    H274378   1.636   6.778  11.870  0.2661 -0.4311 -0.2551
17655TIP3   OH274379   3.563   4.294  16.750  0.0519 -0.4564  0.0429
17655TIP3    H174380   3.473   4.270  16.774 -0.9275  0.8149 -2.0167
17655TIP3    H274381   3.554   4.378  16.706  2.3371 -0.1358  0.0730
17656TIP3   OH274382   2.220   0.222  16.404  0.0993  0.3090  0.1093
17656TIP3    H174383   2.254   0.164  16.472 -1.1625  1.3419  1.7288
17656TIP3    H274384   2.197   0.303  16.451 -0.5822  1.1669 -1.6001
17657TIP3   OH274385   2.600   0.095  16.189  0.0979  0.3682  0.1146
17657TIP3    H174386   2.539   0.164  16.162  0.5913  0.0577 -1.9530
17657TIP3    H274387   2.687   0.134  16.176  0.3836 -0.0184  0.7683
17658TIP3   OH274388   3.604   4.063   2.994  0.0686 -0.3256  0.4069
17658TIP3    H174389   3.596   4.002   2.921 -0.4088 -0.3273  0.4531
17658TIP3    H274390   3.653   4.015   3.061  0.3413 -0.3905  0.1590
17659TIP3   OH274391   1.734   3.012   3.967 -0.3712  0.2154  0.3209
17659TIP3    H174392   1.724   3.084   4.029  1.7436  0.1603  0.7974
17659TIP3    H274393   1.790   3.047   3.898 -0.6693 -0.4743 -0.2801
17660TIP3   OH274394   5.731   2.940  13.185  0.0753  0.2436  0.0868
17660TIP3    H174395   5.743   3.034  13.198  2.4311 -0.2012  2.0270
17660TIP3    H274396   5.809   2.913  13.137 -0.7585 -0.7050 -0.7825
17661TIP3   OH274397   5.802   2.091   0.981  0.6432 -0.3417 -0.7515
17661TIP3    H174398   5.753   2.031   1.037 -0.5310  0.7356 -0.5616
17661TIP3    H274399   5.736   2.124   0.919  0.4961  2.7689  0.8187
17662TIP3   OH274400   5.447   5.077  14.954  0.4178  0.2661  0.0785
17662TIP3    H174401   5.525   5.099  14.904  0.8043  0.3274  0.7037
17662TIP3    H274402   5.435   5.151  15.014 -0.2864  0.3952 -0.2027
17663TIP3   OH274403   4.596   2.543   1.510 -0.4419 -0.2420 -0.4052
17663TIP3    H174404   4.505   2.521   1.489 -0.1808 -0.7777 -1.0263
17663TIP3    H274405   4.621   2.608   1.445  0.0711 -1.2015 -1.2097
17664TIP3   OH274406   2.752   5.327   3.121 -0.0330 -0.7146 -0.0902
17664TIP3    H174407   2.745   5.259   3.189 -1.0063 -1.4692 -0.8999
17664TIP3    H274408   2.718   5.406   3.163  0.2916 -0.9313  0.6033
17665TIP3   OH274409   3.303   5.513  10.069  0.2472 -0.4123  0.1465
17665TIP3    H174410   3.219   5.537  10.031 -0.2127  0.8417  1.8476
17665TIP3    H274411   3.312   5.569  10.146  1.6475 -2.0154  1.2338
17666TIP3   OH274412   4.542   5.725   6.047 -0.2385 -0.6808  0.1177
17666TIP3    H174413   4.556   5.634   6.022  1.1512 -0.7478  1.0299
17666TIP3    H274414   4.533   5.723   6.143  1.9782  0.3323  0.4062
17667TIP3   OH274415   5.232   4.016  15.290 -0.1993  0.8302 -0.4917
17667TIP3    H174416   5.244   4.111  15.290 -0.9616  0.9468  0.6966
17667TIP3    H274417   5.219   3.994  15.382  1.5581 -0.6558 -0.5540
17668TIP3   OH274418   4.875   6.013   2.681  0.3796  0.5078 -0.2146
17668TIP3    H174419   4.970   6.000   2.687  0.5576  1.9832  0.8417
17668TIP3    H274420   4.865   6.104   2.656 -0.7352  0.9093  1.4894
17669TIP3   OH274421   3.487   3.052  14.607 -0.5186 -0.7290  0.5017
17669TIP3    H174422   3.408   3.106  14.609 -0.6561 -0.8996 -0.1366
17669TIP3    H274423   3.456   2.964  14.586 -0.0609 -0.5967 -0.7827
17670TIP3   OH274424   0.341   3.541  13.262 -0.1018  0.4403  0.2772
17670TIP3    H174425   0.275   3.480  13.294  0.4674 -0.3790 -0.0736
17670TIP3    H274426   0.399   3.557  13.337  1.1576 -1.3785 -0.2464
17671TIP3   OH274427   2.286   1.525  11.470  0.4126  0.4763  0.8773
17671TIP3    H174428   2.347   1.577  11.418  0.7915 -0.4498  0.3688
17671TIP3    H274429   2.201   1.568  11.457  0.7260  1.0086  0.5358
17672TIP3   OH274430   3.463   3.274   0.249 -0.6213  0.5852  0.5230
17672TIP3    H174431   3.413   3.198   0.276 -1.7682 -0.1852 -3.1247
17672TIP3    H274432   3.553   3.242   0.239 -0.3318  0.7135  2.3927
17673TIP3   OH274433   0.236   0.470  14.711  0.2874 -0.2483  0.7240
17673TIP3    H174434   0.185   0.464  14.630 -3.5876 -0.6962  2.9401
17673TIP3    H274435   0.249   0.380  14.738  1.3266 -0.0915  0.7830
17674TIP3   OH274436   0.165   0.804   3.121 -0.8467  0.3830 -0.2734
17674TIP3    H174437   0.224   0.802   3.197 -0.3536  1.7975 -0.5870
17674TIP3    H274438   0.111   0.882   3.135 -2.9472 -1.0832  0.1879
17675TIP3   OH274439   5.430   3.999   0.342 -0.0579 -0.2806  0.4161
17675TIP3    H174440   5.525   4.005   0.331  0.0738 -0.7147  1.2563
17675TIP3    H274441   5.408   4.068   0.404 -0.1418 -0.8521  1.0314
17676TIP3   OH274442   2.240   0.373   0.566  0.1674  0.0768  0.0348
17676TIP3    H174443   2.186   0.396   0.491  0.0626  2.6835  0.7849
17676TIP3    H274444   2.225   0.280   0.580 -2.6787  0.3114 -0.9045
17677TIP3   OH274445   2.037   4.153   1.884 -0.1466 -0.2909 -0.0813
17677TIP3    H174446   2.063   4.085   1.822  1.0659 -1.2500  1.3730
17677TIP3    H274447   2.065   4.118   1.969 -3.0441  0.2793  1.2134
17678TIP3   OH274448   3.368   0.755   1.492 -0.1649 -0.4261 -0.3298
17678TIP3    H174449   3.384   0.849   1.484 -2.5747  0.0291 -0.7419
17678TIP3    H274450   3.388   0.735   1.583  1.3526  0.2533 -0.4944
17679TIP3   OH274451   3.296   1.074   5.125 -0.3393 -0.3751  0.2553
17679TIP3    H174452   3.292   1.047   5.034 -2.8669  1.6382 -0.3414
17679TIP3    H274453   3.390   1.070   5.147  0.2262 -1.8195 -2.0747
17680TIP3   OH274454   0.590   6.153  12.037  0.1188  0.1174  0.2091
17680TIP3    H174455   0.684   6.171  12.024  0.5390 -1.1376  1.3270
17680TIP3    H274456   0.581   6.059  12.021 -1.0981  0.3316 -0.5276
17681TIP3   OH274457   0.591   5.080   3.668  0.0923  0.1083 -0.7694
17681TIP3    H174458   0.530   5.014   3.702  0.4500 -0.3304 -0.9545
17681TIP3    H274459   0.594   5.063   3.574 -0.3650  0.8645 -0.9225
17682TIP3   OH274460   0.898   6.815  15.587 -0.1469  0.5737 -0.3723
17682TIP3    H174461   0.976   6.794  15.536 -0.8587 -0.9893 -0.8738
17682TIP3    H274462   0.869   6.900  15.554  0.4326  0.4158 -1.3131
17683TIP3   OH274463   2.963   0.220   0.053  0.2332 -0.0609 -0.3889
17683TIP3    H174464   3.037   0.271   0.021  0.8957 -0.9256 -0.2704
17683TIP3    H274465   2.969   0.226   0.148 -0.7044  1.0480 -0.3766
17684TIP3   OH274466   6.041   6.532   4.708  0.0331  0.2014 -0.2414
17684TIP3    H174467   6.000   6.464   4.654 -0.7646  0.1403  0.4192
17684TIP3    H274468   6.128   6.544   4.670 -0.1109 -0.6246 -0.8582
17685TIP3   OH274469   0.744   5.708   2.803 -0.1147  0.7139 -0.2718
17685TIP3    H174470   0.763   5.675   2.891  1.4348 -1.1177 -1.2094
17685TIP3    H274471   0.683   5.781   2.817  0.3437  0.7008  2.3211
17686TIP3   OH274472   4.620   5.450   6.060 -0.0879  0.0362  1.0205
17686TIP3    H174473   4.582   5.377   6.108 -0.0387  0.3560  1.5593
17686TIP3    H274474   4.710   5.423   6.041 -0.5763 -0.7492 -0.3139
17687TIP3   OH274475   2.565   0.825  14.131  0.8510 -0.1081 -0.4222
17687TIP3    H174476   2.481   0.816  14.176  0.0485 -2.5221 -2.2304
17687TIP3    H274477   2.555   0.904  14.077 -1.8923 -2.3756 -3.6120
17688TIP3   OH274478   2.580   4.859   5.273 -0.6413  0.3564  0.4305
17688TIP3    H174479   2.630   4.866   5.355  0.0991 -0.3371  0.0576
17688TIP3    H274480   2.525   4.781   5.286  0.8409 -0.8977 -0.3988
17689TIP3   OH274481   4.001   3.837   1.252  0.1156 -0.1463  0.3271
17689TIP3    H174482   4.074   3.858   1.310  1.0920  1.1094 -1.2443
17689TIP3    H274483   3.995   3.912   1.193 -0.3844 -1.6017 -1.6035
17690TIP3   OH274484   4.785   1.159   0.223 -0.4035  0.0947 -0.6869
17690TIP3    H174485   4.725   1.157   0.149  0.2214 -0.7041 -1.1965
17690TIP3    H274486   4.769   1.243   0.266 -2.3664 -0.3954 -0.3880
17691TIP3   OH274487   2.592   1.702   4.242  0.3542 -0.1957  0.5278
17691TIP3    H174488   2.608   1.782   4.191  0.1026 -0.8949 -0.6853
17691TIP3    H274489   2.660   1.641   4.214 -0.0665 -0.7518  0.6925
17692TIP3   OH274490   6.680   0.351  10.657  0.1629 -0.2436 -0.6844
17692TIP3    H174491   6.618   0.311  10.717  1.1860 -1.3815 -0.3573
17692TIP3    H274492   6.725   0.278  10.615  2.4037  0.4968  0.2628
17693TIP3   OH274493   5.561   3.887  16.137 -0.4616  0.5502  0.4100
17693TIP3    H174494   5.600   3.880  16.050 -0.2080  2.0865  0.3800
17693TIP3    H274495   5.602   3.815  16.187  1.6137  1.4238  0.0625
17694TIP3   OH274496   4.311   2.575   0.887  0.0710  0.0265 -0.7059
17694TIP3    H174497   4.244   2.606   0.948  0.3524  0.5514 -0.6631
17694TIP3    H274498   4.271   2.498   0.845  0.6630 -1.6770  1.6677
17695TIP3   OH274499   6.087   2.704  15.075  0.8000  0.3530  0.8981
17695TIP3    H174500   6.113   2.676  14.987 -0.0199  0.8234  0.5008
17695TIP3    H274501   6.039   2.785  15.062  1.3547  0.8569  1.8574
17696TIP3   OH274502   4.709   0.502   5.494 -0.2973  0.0448 -0.2354
17696TIP3    H174503   4.748   0.480   5.578 -1.0340 -0.6527 -0.0590
17696TIP3    H274504   4.778   0.549   5.446  0.3498 -0.1502  0.4908
17697TIP3   OH274505   5.267   0.514  12.670  0.1284 -0.2655  0.0967
17697TIP3    H174506   5.326   0.505  12.745  0.3008  1.0954  0.1625
17697TIP3    H274507   5.299   0.452  12.605  0.4190 -0.9425  0.8729
17698TIP3   OH274508   1.949   5.029   2.472 -0.8589  0.0341  0.1853
17698TIP3    H174509   1.879   4.971   2.500 -1.5602 -0.6698 -2.7326
17698TIP3    H274510   1.985   5.064   2.554 -0.0332 -4.7978  2.2329
17699TIP3   OH274511   4.018   5.693   2.041  0.1866 -0.2161  0.4041
17699TIP3    H174512   3.934   5.657   2.012 -1.1645  1.3424  2.1345
17699TIP3    H274513   4.062   5.620   2.085 -0.3721 -0.9767 -0.2741
17700TIP3   OH274514   5.965   0.781   5.609 -0.0403 -0.2546 -0.5038
17700TIP3    H174515   5.949   0.824   5.693 -2.1131 -1.3535 -0.2896
17700TIP3    H274516   6.050   0.739   5.620  0.7467  1.4097  0.2372
17701TIP3   OH274517   1.984   2.933   3.398  0.2430 -0.4561  0.0132
17701TIP3    H174518   2.054   2.964   3.456 -0.2780 -3.3641  2.4408
17701TIP3    H274519   1.905   2.977   3.430  0.4395  0.3433 -0.5874
17702TIP3   OH274520   4.137   6.342   3.946 -0.0843 -0.2314 -0.1302
17702TIP3    H174521   4.136   6.424   3.996 -1.1563 -0.2792 -0.0415
17702TIP3    H274522   4.186   6.362   3.867 -0.6493  0.6046 -0.2768
17703TIP3   OH274523   6.074   0.996   6.776 -0.7317 -0.4196  0.0548
17703TIP3    H174524   6.045   1.014   6.687 -1.0683  1.6722  0.5284
17703TIP3    H274525   6.013   1.044   6.832  1.3357  0.9836  1.2468
17704TIP3   OH274526   3.623   6.304  14.032 -0.0140  0.4120  0.6305
17704TIP3    H174527   3.558   6.307  14.103 -0.6894 -0.2268  0.0560
17704TIP3    H274528   3.571   6.306  13.952  0.6057 -1.0311  0.1536
17705TIP3   OH274529   3.681   2.315   4.558 -0.3172  0.5221  0.0083
17705TIP3    H174530   3.736   2.383   4.519  2.2292 -0.6670  1.3268
17705TIP3    H274531   3.651   2.264   4.483 -0.1918  1.5891 -0.8036
17706TIP3   OH274532   2.851   4.651   2.871 -0.2162 -0.0356 -0.5347
17706TIP3    H174533   2.923   4.604   2.912  1.4588  3.2189  0.5670
17706TIP3    H274534   2.772   4.612   2.910  1.0758 -1.2898  0.9585
17707TIP3   OH274535   0.902   3.578   0.941 -0.2840  0.1459  0.1024
17707TIP3    H174536   0.970   3.585   1.008 -0.2142  1.3393 -0.0740
17707TIP3    H274537   0.854   3.499   0.964  1.5763 -1.1340 -0.1653
17708TIP3   OH274538   5.819   2.691   4.643 -0.0286  0.2789  0.0784
17708TIP3    H174539   5.727   2.673   4.625 -0.1720 -0.1576  1.2116
17708TIP3    H274540   5.863   2.607   4.630 -0.1835 -0.1340  1.9815
17709TIP3   OH274541   3.347   5.861   3.276  0.1730  0.1892 -0.1722
17709TIP3    H174542   3.337   5.767   3.260  0.9589  0.1876 -0.7050
17709TIP3    H274543   3.269   5.885   3.326 -0.1847 -0.6866 -0.2870
17710TIP3   OH274544   1.206   3.135   4.627 -0.0785  0.1581  0.2569
17710TIP3    H174545   1.163   3.192   4.691 -1.0997  1.0834 -1.2139
17710TIP3    H274546   1.230   3.057   4.677 -1.2111  0.6779  1.6775
17711TIP3   OH274547   6.244   6.226   2.858  0.0056 -0.0595 -0.2858
17711TIP3    H174548   6.179   6.192   2.796  1.9040 -1.5229 -1.6029
17711TIP3    H274549   6.318   6.252   2.803  0.5837  1.4789  1.1692
17712TIP3   OH274550   1.134   3.658   3.376 -0.1085 -0.2801 -0.2974
17712TIP3    H174551   1.161   3.569   3.396  0.3383 -0.0889 -0.0263
17712TIP3    H274552   1.111   3.656   3.283 -1.7932 -1.0811  0.1009
17713TIP3   OH274553   2.434   3.318  13.804 -0.6966  0.0778  0.1657
17713TIP3    H174554   2.483   3.292  13.882  0.6892  0.8740 -0.3971
17713TIP3    H274555   2.464   3.257  13.736 -0.3772  0.6574 -0.2175
17714TIP3   OH274556   5.750   2.691  12.560  0.4669 -0.0441 -0.1287
17714TIP3    H174557   5.733   2.749  12.487  1.1490 -0.5318 -0.6840
17714TIP3    H274558   5.670   2.640  12.570  0.4360 -0.0937 -0.6450
17715TIP3   OH274559   0.104   3.549   3.575 -0.3080  0.9234  0.4590
17715TIP3    H174560   0.159   3.571   3.500 -0.6019 -0.9692 -0.3785
17715TIP3    H274561   0.162   3.498   3.632 -1.2197 -1.6733 -0.7413
17716TIP3   OH274562   5.912   5.107   5.360 -0.3366 -0.5656  0.1761
17716TIP3    H174563   5.919   5.186   5.307  1.9277 -0.3932  0.6136
17716TIP3    H274564   6.001   5.093   5.394 -1.2144 -1.8932  2.1399
17717TIP3   OH274565   2.856   5.124   3.314  0.4961  0.2033  0.1946
17717TIP3    H174566   2.787   5.097   3.375  1.3670 -1.7752  0.3775
17717TIP3    H274567   2.893   5.042   3.281 -0.7293  1.1277 -4.0084
17718TIP3   OH274568   4.225   0.455   0.801  0.5268  0.5364 -0.3735
17718TIP3    H174569   4.208   0.528   0.742 -0.6946  0.5334 -0.0482
17718TIP3    H274570   4.143   0.443   0.849  1.2116 -0.0184  0.7085
17719TIP3   OH274571   0.166   1.656  11.562  0.1553  0.1870  0.0526
17719TIP3    H174572   0.229   1.729  11.561 -0.6765  0.9340  0.9393
17719TIP3    H274573   0.149   1.639  11.469  2.2908 -0.6118 -0.2524
17720TIP3   OH274574   0.889   2.817  10.602  0.3666 -0.5092  0.0703
17720TIP3    H174575   0.959   2.752  10.605 -0.0864 -1.2535 -2.6031
17720TIP3    H274576   0.909   2.870  10.524 -0.6925  0.8968  0.7136
17721TIP3   OH274577   4.147   2.902   3.284  0.2234  0.0874 -0.5344
17721TIP3    H174578   4.218   2.840   3.298 -0.1579 -0.2012  0.1922
17721TIP3    H274579   4.153   2.962   3.358 -0.0418  0.2940 -0.6798
17722TIP3   OH274580   1.471   4.106  15.722  0.2028  0.0745 -0.0540
17722TIP3    H174581   1.538   4.041  15.743  0.6151 -0.3089 -2.2568
17722TIP3    H274582   1.512   4.190  15.743  0.7132 -0.2455  0.2589
17723TIP3   OH274583   5.194   1.737  15.474  0.2873 -0.1440  0.5252
17723TIP3    H174584   5.151   1.652  15.462  0.2594  0.1159 -1.7851
17723TIP3    H274585   5.138   1.784  15.536 -0.7954 -1.1063  0.3182
17724TIP3   OH274586   6.808   0.097  13.151  0.2855  0.0294  0.2428
17724TIP3    H174587   6.876   0.144  13.199  1.7277  0.7248 -2.2538
17724TIP3    H274588   6.854   0.023  13.111  0.0737  1.3719 -2.7786
17725TIP3   OH274589   1.628   5.000  16.451  0.2697 -0.5328  0.3906
17725TIP3    H174590   1.541   4.985  16.489  0.2272 -0.5473  0.2855
17725TIP3    H274591   1.643   4.923  16.395 -0.4448  0.3748 -1.0900
17726TIP3   OH274592   4.169   4.913  14.566  0.2612  0.0515 -0.0207
17726TIP3    H174593   4.168   5.002  14.529  1.2631  0.6192  1.2425
17726TIP3    H274594   4.091   4.909  14.621  1.1952  0.8863  1.4583
17727TIP3   OH274595   0.354   4.003  14.262  0.1494  0.1813 -0.1917
17727TIP3    H174596   0.354   3.963  14.348  1.1616  0.4377 -0.0600
17727TIP3    H274597   0.331   4.095  14.278  3.3383  1.0261  0.2542
17728TIP3   OH274598   0.091   4.789  12.795  0.5080  0.2429  0.3386
17728TIP3    H174599   0.155   4.848  12.833 -0.6157  0.8339  1.3691
17728TIP3    H274600   0.131   4.760  12.713  1.0851  2.4323 -0.2184
17729TIP3   OH274601   2.788   6.016   2.313  0.1230  0.2153  0.0737
17729TIP3    H174602   2.880   5.990   2.317  0.2050  0.4132 -0.3774
17729TIP3    H274603   2.740   5.935   2.324  0.3862 -0.5825 -3.4375
17730TIP3   OH274604   0.121   0.389   1.010 -0.0233  0.4815 -0.3359
17730TIP3    H174605   0.032   0.424   1.003 -1.0249 -0.9835  3.0742
17730TIP3    H274606   0.110   0.294   1.000  1.1546  0.2973 -0.0120
17731TIP3   OH274607   4.196   3.286  15.022 -0.2471  0.5968 -0.3899
17731TIP3    H174608   4.284   3.255  15.001 -0.4192 -0.4718  0.3578
17731TIP3    H274609   4.142   3.207  15.022 -1.0188  1.1012  0.0844
17732TIP3   OH274610   3.313   5.499   3.341  0.1931 -0.4327  0.0331
17732TIP3    H174611   3.358   5.445   3.406  1.1184  1.2913  0.9143
17732TIP3    H274612   3.229   5.520   3.382 -0.3675 -1.5524 -0.5126
17733TIP3   OH274613   3.767   4.651  13.913  0.3162 -0.1462 -0.3813
17733TIP3    H174614   3.852   4.607  13.924 -0.0464 -0.2107  4.4891
17733TIP3    H274615   3.702   4.582  13.925 -0.2952  0.6135  0.9966
17734TIP3   OH274616   2.570   0.708   4.224  0.4312 -0.3673 -0.2918
17734TIP3    H174617   2.571   0.664   4.138 -1.7243 -1.3480  0.1282
17734TIP3    H274618   2.509   0.657   4.276 -0.5161  1.8882  0.9340
17735TIP3   OH274619   0.752   6.420  13.307 -0.4434 -0.4405  0.6634
17735TIP3    H174620   0.704   6.350  13.351 -0.4105 -1.5359 -0.9479
17735TIP3    H274621   0.707   6.500  13.334 -1.8077 -1.2504  0.9244
17736TIP3   OH274622   6.084   1.373   4.493  0.0567 -0.3644  0.3145
17736TIP3    H174623   6.161   1.369   4.550 -0.3923 -2.5440  0.8490
17736TIP3    H274624   6.010   1.383   4.553 -0.2538 -0.5661 -0.0316
17737TIP3   OH274625   6.360   4.051  11.555 -0.4734 -0.0696 -0.0045
17737TIP3    H174626   6.300   3.985  11.519  0.9989 -0.2374 -2.3422
17737TIP3    H274627   6.303   4.124  11.580 -1.7402 -0.6102 -1.2081
17738TIP3   OH274628   3.480   3.496  16.513 -0.2380 -0.6785  0.4692
17738TIP3    H174629   3.541   3.542  16.455 -0.2292  3.2183  3.1352
17738TIP3    H274630   3.393   3.516  16.478 -0.1417 -1.4114 -0.1895
17739TIP3   OH274631   2.017   5.870   5.422 -0.3857  0.1668 -0.1617
17739TIP3    H174632   2.097   5.914   5.451 -1.2725  0.1977  2.4380
17739TIP3    H274633   1.986   5.923   5.349  1.0735  1.1050 -0.1487
17740TIP3   OH274634   6.095   5.827   5.402 -0.4904 -0.0404  0.3056
17740TIP3    H174635   6.034   5.779   5.458  0.9169 -0.5965  1.4032
17740TIP3    H274636   6.117   5.905   5.452  1.3525 -0.9039  0.9014
17741TIP3   OH274637   1.490   3.718  13.327 -0.0971  0.3044 -0.0748
17741TIP3    H174638   1.427   3.663  13.280  1.3523 -0.3586 -1.3022
17741TIP3    H274639   1.480   3.805  13.289 -0.5566  0.3046  0.0373
17742TIP3   OH274640   0.206   0.888   3.595 -0.4314  0.1386 -0.1442
17742TIP3    H174641   0.171   0.973   3.569  1.4664  1.8186  2.3132
17742TIP3    H274642   0.146   0.857   3.662  0.4800  1.1107  1.1871
17743TIP3   OH274643   5.673   2.901  12.343 -0.2272  0.6017 -0.3073
17743TIP3    H174644   5.648   2.885  12.252 -0.3476 -3.4750  0.2409
17743TIP3    H274645   5.606   2.962  12.376 -2.1530 -0.4086 -2.1212
17744TIP3   OH274646   5.576   6.361  16.370 -0.5383  0.5719  0.1862
17744TIP3    H174647   5.542   6.436  16.420 -1.2325 -1.3796  2.8633
17744TIP3    H274648   5.506   6.296  16.374  0.4284 -0.6158 -1.1882
17745TIP3   OH274649   1.963   1.023   0.976  0.2284  0.3434 -0.5585
17745TIP3    H174650   1.936   0.944   0.930 -0.4566  0.8856 -1.1257
17745TIP3    H274651   1.925   1.094   0.924 -0.6546  0.9767  0.8966
17746TIP3   OH274652   3.308   2.055  13.261  0.3706  0.4117  0.0419
17746TIP3    H174653   3.226   2.028  13.303  0.8827  1.0221  1.4959
17746TIP3    H274654   3.282   2.126  13.202 -0.1093  0.8423  0.7513
17747TIP3   OH274655   1.168   0.619  11.367 -0.4518  0.2244 -0.6612
17747TIP3    H174656   1.262   0.630  11.379 -0.3874  0.4494 -1.3281
17747TIP3    H274657   1.129   0.689  11.420 -0.2284  0.3822 -0.7040
17748TIP3   OH274658   1.362   4.032   6.438  0.2205  0.3120 -0.3178
17748TIP3    H174659   1.412   3.960   6.399 -1.6478 -0.4397 -1.4304
17748TIP3    H274660   1.378   4.106   6.380 -0.4061 -0.0866 -1.0102
17749TIP3   OH274661   3.150   4.877  16.905 -0.4433  0.2226 -0.0193
17749TIP3    H174662   3.111   4.960  16.878 -0.6246 -0.0123 -0.4996
17749TIP3    H274663   3.102   4.811  16.855  1.6310  0.0183 -1.9334
17750TIP3   OH274664   5.188   5.493  15.743 -0.3433 -0.4583 -0.4258
17750TIP3    H174665   5.277   5.504  15.776 -0.7214  0.3181  0.4174
17750TIP3    H274666   5.165   5.579  15.708 -0.3526 -0.9799 -1.7375
17751TIP3   OH274667   0.039   4.762   1.509 -0.0511 -0.5802  0.1103
17751TIP3    H174668   0.120   4.757   1.559 -0.3101 -2.3273  0.4348
17751TIP3    H274669   0.061   4.725   1.423 -0.3752 -0.5576  0.0141
17752TIP3   OH274670   4.265   1.013  11.766 -0.0600 -0.3580 -1.0453
17752TIP3    H174671   4.252   1.083  11.830  0.9079 -1.3111  0.2580
17752TIP3    H274672   4.318   1.054  11.698  0.7880  0.1310 -0.1341
17753TIP3   OH274673   1.537   6.797   2.674 -0.2303  0.7269  0.3853
17753TIP3    H174674   1.622   6.840   2.668 -0.9755  2.3235  0.6520
17753TIP3    H274675   1.554   6.705   2.654  1.3276  1.2665 -0.8873
17754TIP3   OH274676   2.571   5.458   3.565 -0.0881 -0.1794 -0.2562
17754TIP3    H174677   2.633   5.512   3.613 -0.6546  0.3654 -0.1259
17754TIP3    H274678   2.623   5.384   3.534  0.8142  0.7099 -0.9034
17755TIP3   OH274679   5.807   6.749  14.339  0.0229  0.1403  0.0202
17755TIP3    H174680   5.865   6.698  14.283  1.3023 -0.3745  1.7212
17755TIP3    H274681   5.726   6.699  14.343  0.2041 -0.2189 -0.7309
17756TIP3   OH274682   6.633   3.359   2.169 -0.0014 -0.3424  0.2925
17756TIP3    H174683   6.592   3.352   2.256 -1.0110 -1.3881 -0.2318
17756TIP3    H274684   6.626   3.270   2.133  0.9963 -0.0688 -0.6051
17757TIP3   OH274685   4.466   0.865  11.554  0.3711 -0.4555 -0.0936
17757TIP3    H174686   4.402   0.845  11.486 -0.0118 -0.9805  0.4141
17757TIP3    H274687   4.416   0.869  11.635  0.8360  0.0905  0.1747
17758TIP3   OH274688   3.217   0.018   3.359 -0.2696 -0.2114  0.3444
17758TIP3    H174689   3.203  -0.022   3.445 -0.2704 -1.3751 -0.1750
17758TIP3    H274690   3.144   0.078   3.348 -1.2523 -1.3611  0.4310
17759TIP3   OH274691   1.362   4.370   2.852 -0.5317  0.8751  0.1141
17759TIP3    H174692   1.416   4.415   2.917 -0.5822 -1.3220  1.8013
17759TIP3    H274693   1.281   4.349   2.899  0.1793 -2.4616  0.0578
17760TIP3   OH274694   6.638   0.054  11.021  0.0371 -0.4686  0.1577
17760TIP3    H174695   6.674   0.102  10.947  1.7832  0.4592  1.5287
17760TIP3    H274696   6.708   0.053  11.086 -1.9214  0.1602  2.4476
17761TIP3   OH274697   4.867   4.094  11.055  0.3956 -0.3394  0.0677
17761TIP3    H174698   4.928   4.052  11.115 -0.5084 -4.0708 -1.3246
17761TIP3    H274699   4.922   4.129  10.985  1.1362 -0.6539  0.4815
17762TIP3   OH274700   2.940   4.128  16.238 -0.2926 -0.5732  0.0051
17762TIP3    H174701   2.853   4.165  16.226 -0.3388 -0.8292 -0.4390
17762TIP3    H274702   2.969   4.162  16.323 -0.2006  0.7542 -0.5379
17763TIP3   OH274703   2.349   3.378  16.668  0.0991  0.1062  0.1509
17763TIP3    H174704   2.292   3.377  16.591 -0.6188  1.1050  0.6438
17763TIP3    H274705   2.424   3.432  16.642 -0.6339  1.3042  0.4688
17764TIP3   OH274706   0.890   1.635  16.205  0.2059 -0.0990  0.2901
17764TIP3    H174707   0.954   1.677  16.262 -0.7020 -0.6901  1.8102
17764TIP3    H274708   0.909   1.541  16.213 -0.7468 -0.2728  0.6734
17765TIP3   OH274709   6.149   5.964   0.909 -0.1156  0.0649  0.5191
17765TIP3    H174710   6.090   5.890   0.923  0.0292  0.3375  3.2835
17765TIP3    H274711   6.112   6.034   0.962  1.2069  1.1162  0.1100
17766TIP3   OH274712   4.839   5.861  13.507  0.1114  0.5648  0.2242
17766TIP3    H174713   4.893   5.801  13.455 -0.1862 -0.5060  1.0994
17766TIP3    H274714   4.898   5.894  13.574  0.9114  3.1156 -1.5606
17767TIP3   OH274715   4.306   1.539   1.029 -0.0435 -0.2330  0.3971
17767TIP3    H174716   4.301   1.559   0.935 -0.1539  0.5296  0.5588
17767TIP3    H274717   4.246   1.465   1.040 -0.8769  0.3672  0.0410
17768TIP3   OH274718   6.477   4.649  11.114  0.8973  0.8489 -0.0491
17768TIP3    H174719   6.407   4.603  11.068  0.4488  1.9188 -0.4638
17768TIP3    H274720   6.457   4.742  11.102  1.9058  1.1647  0.5751
17769TIP3   OH274721   5.408   0.598  12.224  0.5931 -0.6736  0.2713
17769TIP3    H174722   5.329   0.652  12.221  0.5191 -0.5487  2.7426
17769TIP3    H274723   5.440   0.597  12.134 -1.8872 -0.2489 -0.6822
17770TIP3   OH274724   4.703   2.069   2.029 -0.6351 -0.0283 -0.1475
17770TIP3    H174725   4.648   2.147   2.031  0.0342  0.4533 -0.0220
17770TIP3    H274726   4.695   2.032   2.117 -2.0893 -0.9264 -0.6342
17771TIP3   OH274727   6.695   3.821   3.403  0.0536 -0.8098 -0.0831
17771TIP3    H174728   6.654   3.907   3.395 -1.1303 -1.4855 -1.8449
17771TIP3    H274729   6.682   3.798   3.496 -2.6518 -0.4950 -0.2901
17772TIP3   OH274730   2.036   3.016  14.332 -0.1153  0.5623  0.3598
17772TIP3    H174731   2.047   3.101  14.289 -0.7665  1.4096  1.7649
17772TIP3    H274732   2.010   3.038  14.421 -1.4290 -1.1276  0.4528
17773TIP3   OH274733   2.192   6.085  10.672  0.6728 -0.2882 -0.3769
17773TIP3    H174734   2.262   6.021  10.685 -0.1263 -1.4296 -1.4934
17773TIP3    H274735   2.115   6.033  10.649 -0.8060  0.8764  1.6005
17774TIP3   OH274736   2.305   2.444  14.752  0.0505 -0.2773 -0.2904
17774TIP3    H174737   2.235   2.410  14.695  1.1681 -0.9507 -1.3126
17774TIP3    H274738   2.341   2.366  14.794  1.4707 -0.1904 -1.2855
17775TIP3   OH274739   2.987   3.702   2.656 -0.6441  0.1160 -0.2522
17775TIP3    H174740   3.009   3.795   2.658 -0.9079  0.2345 -1.7299
17775TIP3    H274741   3.042   3.663   2.723  0.4895  1.1351 -0.5497
17776TIP3   OH274742   2.654   6.151  15.747  0.6226 -0.1229  0.0060
17776TIP3    H174743   2.576   6.133  15.695  0.6014  0.2360 -0.0934
17776TIP3    H274744   2.637   6.237  15.786  0.7371 -0.2851  0.4227
17777TIP3   OH274745   4.740   3.460   2.861 -0.3402 -0.2558  0.1875
17777TIP3    H174746   4.817   3.407   2.881  0.0176  0.2540  0.1966
17777TIP3    H274747   4.745   3.475   2.766  0.9946  1.8790  0.5136
17778TIP3   OH274748   2.830   6.476  14.523  0.1731  0.4624  0.4543
17778TIP3    H174749   2.776   6.525  14.460  0.3657 -0.9705 -0.8892
17778TIP3    H274750   2.800   6.506  14.609 -2.4029  0.0817 -0.2392
17779TIP3   OH274751   0.066   1.399   3.863  0.2028  0.1477 -0.2258
17779TIP3    H174752   0.008   1.341   3.814  1.0216 -0.1219 -0.9016
17779TIP3    H274753   0.073   1.359   3.950 -0.8362  0.3391 -0.0510
17780TIP3   OH274754   1.878   5.639  10.599  0.1069  0.0498 -0.7513
17780TIP3    H174755   1.940   5.593  10.656 -0.2949  0.8172  0.3309
17780TIP3    H274756   1.812   5.572  10.577 -1.1839  0.3587  1.8635
17781TIP3   OH274757   1.009   2.915   4.919 -0.4644  0.6088  0.2372
17781TIP3    H174758   0.936   2.881   4.971 -0.5815  2.1799  1.1515
17781TIP3    H274759   0.977   2.915   4.829 -0.9262 -0.4137  0.3896
17782TIP3   OH274760   5.637   6.527  16.994 -0.4644 -0.4540 -0.5129
17782TIP3    H174761   5.614   6.617  17.018 -1.4293 -0.7120 -0.4193
17782TIP3    H274762   5.589   6.472  17.056 -1.4539 -1.0709 -1.7713
17783TIP3   OH274763   0.192   2.501  12.058  0.4035  0.3362  0.0782
17783TIP3    H174764   0.170   2.545  11.976  0.8900  1.2581  0.4226
17783TIP3    H274765   0.237   2.421  12.032  2.2705  1.5290 -0.5568
17784TIP3   OH274766   2.106   1.582  14.839 -0.0961 -0.3080  0.0340
17784TIP3    H174767   2.106   1.676  14.854 -0.3998 -0.1647 -0.7872
17784TIP3    H274768   2.042   1.569  14.769 -1.6394 -1.3800  1.5790
17785TIP3   OH274769   0.725   2.895   4.939  0.6025 -0.4630 -0.2066
17785TIP3    H174770   0.716   2.903   4.844 -0.9000  0.4312 -0.0252
17785TIP3    H274771   0.715   2.984   4.971 -1.5657 -1.0396  0.9312
17786TIP3   OH274772   4.307   5.414   2.916 -0.3084  0.0792  0.0224
17786TIP3    H174773   4.392   5.442   2.950  0.9567  1.3605 -3.6546
17786TIP3    H274774   4.319   5.323   2.891 -0.4562 -0.1174  0.6455
17787TIP3   OH274775   6.089   4.908  16.129 -0.3819  0.5862 -0.1538
17787TIP3    H174776   6.070   4.935  16.219 -0.0072 -1.0298  0.4464
17787TIP3    H274777   6.055   4.979  16.075 -1.4686  1.1538  1.2146
17788TIP3   OH274778   5.191   2.925  13.809 -0.3184  0.4423  0.3474
17788TIP3    H174779   5.263   2.863  13.802 -2.0963 -2.1796  2.9130
17788TIP3    H274780   5.152   2.928  13.722  1.1950 -0.2637 -0.3757
17789TIP3   OH274781   2.270   1.810  10.361  0.0471 -0.1373  0.4868
17789TIP3    H174782   2.330   1.753  10.313  0.2645  0.3780  0.1493
17789TIP3    H274783   2.238   1.755  10.433 -0.6271 -1.0646 -0.4788
17790TIP3   OH274784   2.357   1.454  16.237  0.2429 -0.0055 -0.3428
17790TIP3    H174785   2.269   1.441  16.271  0.3718  0.1266  0.0397
17790TIP3    H274786   2.347   1.448  16.142 -0.3006  0.7174 -0.3396
17791TIP3   OH274787   2.439   4.302  11.615 -0.4828  0.2982  0.2736
17791TIP3    H174788   2.470   4.372  11.672 -0.7986 -1.2059  2.4344
17791TIP3    H274789   2.519   4.263  11.580 -0.1419 -0.0880  1.4284
17792TIP3   OH274790   4.144   4.713   5.596  0.1652  0.3823  0.1635
17792TIP3    H174791   4.128   4.643   5.659  0.7416  0.7495  0.7323
17792TIP3    H274792   4.185   4.783   5.648  0.0694  0.9392 -0.4941
17793TIP3   OH274793   0.818   4.623  12.212  0.4316  0.4504 -0.3595
17793TIP3    H174794   0.810   4.530  12.191 -1.9028  0.6720 -0.8120
17793TIP3    H274795   0.826   4.667  12.127  0.1901  0.7229 -0.2483
17794TIP3   OH274796   0.289   2.346  16.737  0.4884 -0.0221 -0.2979
17794TIP3    H174797   0.277   2.411  16.667 -3.9618  0.1513  0.3104
17794TIP3    H274798   0.306   2.397  16.815 -0.8209  0.3388 -0.2196
17795TIP3   OH274799   3.363   3.200  12.759  0.0525 -0.3230  0.1099
17795TIP3    H174800   3.376   3.242  12.845  1.6321  1.0222 -0.7148
17795TIP3    H274801   3.423   3.126  12.760  1.0339  0.4364 -0.2574
17796TIP3   OH274802   2.488   6.506  14.616 -0.1167  0.0619 -0.1576
17796TIP3    H174803   2.519   6.447  14.685 -0.9222 -0.8670 -0.5648
17796TIP3    H274804   2.413   6.552  14.655 -0.0638  0.1345 -0.1423
17797TIP3   OH274805   2.622   0.520   3.549 -0.3425  0.0204  0.2239
17797TIP3    H174806   2.573   0.600   3.529 -0.7584 -0.0042  1.0732
17797TIP3    H274807   2.706   0.532   3.506 -0.7581  0.4801 -0.4781
17798TIP3   OH274808   0.298   3.657   0.584 -0.2161  0.4120 -0.4111
17798TIP3    H174809   0.389   3.631   0.598 -0.1939  0.7040  0.0278
17798TIP3    H274810   0.274   3.618   0.500 -0.6076 -2.1259  0.7809
17799TIP3   OH274811   4.867   4.253  15.144 -0.3351  0.2363 -0.5048
17799TIP3    H174812   4.852   4.317  15.213  0.2181  0.5455 -0.6608
17799TIP3    H274813   4.960   4.264  15.121 -0.6896  0.6839 -1.8270
17800TIP3   OH274814   5.679   4.538  13.745  0.1207  0.2890  0.6474
17800TIP3    H174815   5.766   4.517  13.778  0.0624  0.0800  0.6638
17800TIP3    H274816   5.694   4.602  13.675  0.3250 -0.2139  0.2328
17801TIP3   OH274817   0.022   1.368  15.682 -0.1535 -0.2087 -0.3657
17801TIP3    H174818   0.034   1.402  15.594 -0.9279 -1.4275 -0.9752
17801TIP3    H274819   0.106   1.330  15.705 -0.4994 -1.6979 -1.4262
17802TIP3   OH274820   2.819   1.572   4.151  0.2866 -0.3700 -0.3160
17802TIP3    H174821   2.850   1.482   4.151 -0.2404 -0.5569 -0.1280
17802TIP3    H274822   2.894   1.624   4.179  0.3071 -0.8499  0.5488
17803TIP3   OH274823   6.179   1.872   6.371 -0.3148  0.9715 -0.0950
17803TIP3    H174824   6.227   1.870   6.454  0.3040  0.8521 -0.4528
17803TIP3    H274825   6.190   1.784   6.335  0.4399  1.3713 -0.8761
17804TIP3   OH274826   5.690   1.446  14.751  0.7177 -0.0056 -0.2639
17804TIP3    H174827   5.600   1.430  14.722  0.2002  0.8524  0.7579
17804TIP3    H274828   5.686   1.437  14.847  1.4158  1.2834 -0.0859
17805TIP3   OH274829   0.002   0.113  15.820  0.2627 -0.9028  0.4302
17805TIP3    H174830  -0.059   0.039  15.826  1.0134 -1.5471  0.2700
17805TIP3    H274831  -0.043   0.176  15.763 -0.8479 -0.7491  1.4319
17806TIP3   OH274832   2.980   0.486  14.024  0.2899  0.0185  0.0790
17806TIP3    H174833   3.048   0.422  14.001  1.7603  2.0747 -1.8556
17806TIP3    H274834   3.020   0.539  14.094 -0.0903  0.0417  0.2776
17807TIP3   OH274835   4.283   6.731   1.453  0.4947 -0.6072 -0.1455
17807TIP3    H174836   4.271   6.687   1.369  1.3411 -2.3224  0.5826
17807TIP3    H274837   4.361   6.786   1.440  0.1303 -0.2039 -0.7078
17808TIP3   OH274838   0.365   6.597  11.485  0.6939 -0.1413 -0.5475
17808TIP3    H174839   0.367   6.648  11.565 -0.5279  0.4454 -0.8613
17808TIP3    H274840   0.456   6.592  11.456  0.9968  0.6166  0.2612
17809TIP3   OH274841   0.507   4.221  13.547  0.2321  0.3072  0.1344
17809TIP3    H174842   0.419   4.216  13.583  0.0617  1.9019  0.0089
17809TIP3    H274843   0.529   4.130  13.525 -1.8685  0.0142 -1.0127
17810TIP3   OH274844   0.446   0.584  15.234 -0.4582 -0.2151  0.2781
17810TIP3    H174845   0.460   0.622  15.148 -2.4584  0.2874  0.1155
17810TIP3    H274846   0.401   0.501  15.217  2.1887 -1.8359  0.7241
17811TIP3   OH274847   4.639   2.074  11.948  0.6095 -0.0107 -0.1189
17811TIP3    H174848   4.659   2.071  12.041  0.6594  0.9329 -0.0836
17811TIP3    H274849   4.546   2.095  11.944  0.4367 -0.7870 -0.2863
17812TIP3   OH274850   5.291   6.432  16.939  0.3082  0.0905 -0.1547
17812TIP3    H174851   5.312   6.349  16.898  0.5053 -0.4410  1.0050
17812TIP3    H274852   5.260   6.487  16.866 -0.1517 -1.0880 -0.8759
17813TIP3   OH274853   3.240   0.883   3.611 -0.3149  0.0810  0.6054
17813TIP3    H174854   3.312   0.929   3.653  0.2645 -1.5007  1.4174
17813TIP3    H274855   3.174   0.872   3.679 -1.7879  2.2848 -0.3423
17814TIP3   OH274856   3.102   2.583   6.569 -0.9366  0.3267 -0.5429
17814TIP3    H174857   3.153   2.664   6.580  2.0450 -1.4342 -0.4364
17814TIP3    H274858   3.162   2.522   6.526 -1.9913 -2.8219  2.0531
17815TIP3   OH274859   6.708   5.585   5.162  0.4727  0.2320  0.2618
17815TIP3    H174860   6.677   5.550   5.078 -1.4347  0.7637  0.6898
17815TIP3    H274861   6.789   5.631   5.140  1.1824 -1.4625 -0.8942
17816TIP3   OH274862   6.352   2.543  12.809 -0.2344  0.0741  0.1837
17816TIP3    H174863   6.394   2.461  12.833 -1.1233 -0.7199 -0.8307
17816TIP3    H274864   6.314   2.526  12.722 -0.7126  1.4497  0.0916
17817TIP3   OH274865   2.077   6.707  11.145  0.0130  0.2364  0.0329
17817TIP3    H174866   2.058   6.618  11.173  0.2064  0.6581  1.6085
17817TIP3    H274867   2.161   6.701  11.100 -0.3981 -0.4980 -0.6608
17818TIP3   OH274868   4.094   4.622   6.632 -0.4549 -0.2047  0.3497
17818TIP3    H174869   4.022   4.565   6.606 -0.3551 -0.1730  0.0001
17818TIP3    H274870   4.169   4.563   6.641 -0.1531 -0.0148 -0.8327
17819TIP3   OH274871   5.404   4.985  15.669  0.5832 -0.3431 -0.5249
17819TIP3    H174872   5.400   5.079  15.689  1.1542 -0.3927 -0.1651
17819TIP3    H274873   5.344   4.974  15.595 -1.1021 -0.0451  0.7315
17820TIP3   OH274874   6.669   5.336   1.564 -0.1867 -0.5818 -0.3146
17820TIP3    H174875   6.675   5.340   1.660  1.9450 -3.5290 -0.1768
17820TIP3    H274876   6.578   5.313   1.547 -1.2180  2.2313  0.7473
17821TIP3   OH274877   3.318   2.881  12.205  0.3988  0.1017 -0.1035
17821TIP3    H174878   3.293   2.795  12.172  0.9952 -0.0529 -0.1613
17821TIP3    H274879   3.413   2.879  12.209  0.3875  0.4909  0.6232
17822TIP3   OH274880   1.613   6.307  11.251 -0.0766 -0.0967 -0.3532
17822TIP3    H174881   1.518   6.295  11.246 -0.1093  0.7059 -3.6729
17822TIP3    H274882   1.649   6.245  11.188  1.3995  1.3520 -0.9994
17823TIP3   OH274883   4.371   6.065   0.769 -0.5391  0.3486  0.4238
17823TIP3    H174884   4.328   6.141   0.729 -2.7876 -1.0356  0.0348
17823TIP3    H274885   4.370   5.998   0.700  3.7559  0.6364 -0.1679
17824TIP3   OH274886   2.699   0.838  15.882  0.6395 -0.3748  0.0348
17824TIP3    H174887   2.673   0.804  15.967  0.5639  0.0026  0.1674
17824TIP3    H274888   2.794   0.849  15.888  0.9205 -2.1332 -0.5884
17825TIP3   OH274889   6.492   5.086  10.840  0.4463  0.2028  0.4211
17825TIP3    H174890   6.435   5.062  10.913 -0.1352 -0.0677 -0.1208
17825TIP3    H274891   6.477   5.179  10.828 -0.7769 -0.0833 -0.4736
17826TIP3   OH274892   6.171   0.642   2.608  0.1770  0.1659 -0.7199
17826TIP3    H174893   6.147   0.640   2.515 -0.1404  1.0974 -0.6703
17826TIP3    H274894   6.263   0.614   2.609  0.2505  0.3545 -1.3446
17827TIP3   OH274895   1.915   3.295  13.017 -0.5084 -0.2517 -0.1880
17827TIP3    H174896   1.824   3.320  12.999 -0.6911 -0.6310  0.1967
17827TIP3    H274897   1.911   3.202  13.040  0.1650 -0.6717 -1.6141
17828TIP3   OH274898   5.260   0.410  16.593  0.1147  0.2859 -0.1826
17828TIP3    H174899   5.312   0.462  16.655 -0.1760 -0.8958  1.0976
17828TIP3    H274900   5.170   0.441  16.606  0.2727  1.2308 -1.2642
17829TIP3   OH274901   4.505   0.574  11.961  0.1595  0.3001 -0.0405
17829TIP3    H174902   4.420   0.584  11.919  0.3929 -1.0477 -0.8924
17829TIP3    H274903   4.490   0.509  12.031  0.4568  0.1330 -0.1289
17830TIP3   OH274904   4.047   2.124  16.872  0.1474 -0.3178  0.6019
17830TIP3    H174905   4.033   2.211  16.834 -0.0868  0.9452  3.2834
17830TIP3    H274906   4.082   2.142  16.959  1.3367 -2.9979  0.7713
17831TIP3   OH274907   4.451   2.408  12.750 -1.1075  0.6076  0.4745
17831TIP3    H174908   4.505   2.429  12.826  0.3402 -1.6112  0.1401
17831TIP3    H274909   4.450   2.489  12.698  3.9480  0.2684 -0.6776
17832TIP3   OH274910   1.147   0.716  16.542 -0.3737  0.3590 -0.3007
17832TIP3    H174911   1.079   0.779  16.518 -1.7818 -0.9208  0.1395
17832TIP3    H274912   1.229   0.756  16.512 -1.1866  2.4060  0.0267
17833TIP3   OH274913   6.614   5.360   4.120 -0.2502 -0.2714 -0.3699
17833TIP3    H174914   6.621   5.273   4.081 -0.4898 -0.0831 -0.8470
17833TIP3    H274915   6.551   5.406   4.064 -0.0672  0.2336 -0.1664
17834TIP3   OH274916   0.340   0.231  14.475 -0.4256  0.0666 -0.0325
17834TIP3    H174917   0.394   0.172  14.423  1.9059 -0.0314  2.2690
17834TIP3    H274918   0.336   0.189  14.561 -1.1337  1.8605  0.8596
17835TIP3   OH274919   4.859   1.019   3.802 -0.2780  0.3113 -0.1452
17835TIP3    H174920   4.792   1.053   3.861 -0.4545  0.2065 -0.2806
17835TIP3    H274921   4.918   0.970   3.858 -0.0736  0.7642  0.0370
17836TIP3   OH274922   1.655   4.213   1.025 -0.0575 -0.1036  0.0087
17836TIP3    H174923   1.602   4.292   1.032  0.8216  0.4249  1.1501
17836TIP3    H274924   1.735   4.234   1.074 -0.0315 -1.8889  0.8097
17837TIP3   OH274925   5.729   0.265  16.594  0.6105  0.2781  0.5001
17837TIP3    H174926   5.682   0.347  16.605 -0.1385 -0.2837  1.7187
17837TIP3    H274927   5.665   0.206  16.553  0.2180 -0.4691  2.1016
17838TIP3   OH274928   6.348   6.214   3.642 -0.2160 -0.4880 -0.4545
17838TIP3    H174929   6.358   6.281   3.710 -0.8243 -1.6011  0.7771
17838TIP3    H274930   6.312   6.261   3.567 -0.9438  0.5082  0.4925
17839TIP3   OH274931   1.067   5.399   3.648 -0.2253  0.0721 -0.5014
17839TIP3    H174932   1.064   5.494   3.657 -1.0733 -0.0976  1.4283
17839TIP3    H274933   1.057   5.384   3.554 -0.9484  1.8539 -0.7491
17840TIP3   OH274934   4.022   3.667  14.053 -0.2059 -0.3178 -0.8077
17840TIP3    H174935   3.953   3.649  14.118 -1.5514  0.9900 -1.8104
17840TIP3    H274936   4.056   3.753  14.078  0.6632 -0.6863 -0.6907
17841TIP3   OH274937   6.501   5.351   3.857 -0.1459 -0.7811  0.7735
17841TIP3    H174938   6.406   5.338   3.847 -0.2463  1.0144 -1.6327
17841TIP3    H274939   6.521   5.423   3.797  2.9094 -1.7563  0.4765
17842TIP3   OH274940   2.905   6.798  14.241 -0.2361  0.0807  0.3716
17842TIP3    H174941   2.964   6.855  14.289 -0.3548 -0.6391  1.3929
17842TIP3    H274942   2.848   6.858  14.192 -0.4772  0.8438  1.5586
17843TIP3   OH274943   1.906   0.073   5.077 -0.1016 -0.8888 -0.0188
17843TIP3    H174944   1.862   0.058   5.161  0.1186  0.0125  0.2649
17843TIP3    H274945   1.914   0.168   5.070  0.8045 -0.9961 -0.5854
17844TIP3   OH274946   1.148   5.604   3.888 -0.2189  0.5093 -0.3796
17844TIP3    H174947   1.168   5.585   3.979 -0.5316  2.5984  0.1952
17844TIP3    H274948   1.060   5.568   3.875  0.0386 -0.2575 -0.0152
17845TIP3   OH274949   4.031   3.098  13.491 -0.0375  0.1008  0.0458
17845TIP3    H174950   4.087   3.034  13.534  0.2506 -1.2351 -2.1505
17845TIP3    H274951   4.089   3.143  13.430 -1.3111 -1.8208 -2.8190
17846TIP3   OH274952   2.542   3.683  15.100  0.4971  0.0142 -0.2515
17846TIP3    H174953   2.570   3.751  15.162 -0.1414  0.7172 -0.7148
17846TIP3    H274954   2.503   3.732  15.027  1.4486 -0.7918 -1.3261
17847TIP3   OH274955   6.147   2.640   1.092 -0.5904 -0.0715  0.1362
17847TIP3    H174956   6.183   2.721   1.127 -0.9255 -0.0596  0.4667
17847TIP3    H274957   6.053   2.645   1.111 -0.8004 -0.0311 -0.8579
17848TIP3   OH274958   5.953   5.864  16.342  0.4121  0.3245 -0.5324
17848TIP3    H174959   5.983   5.932  16.282 -1.8079 -0.0802 -2.2595
17848TIP3    H274960   5.896   5.809  16.288 -0.5477 -0.9235  1.6413
17849TIP3   OH274961   3.459   3.638   5.155  0.7220 -0.0432 -0.0839
17849TIP3    H174962   3.514   3.700   5.203 -0.1599  0.1417  0.7229
17849TIP3    H274963   3.423   3.689   5.083 -0.2041  0.4864  0.7241
17850TIP3   OH274964   5.421   1.527   4.673 -0.2180 -0.2303  0.1034
17850TIP3    H174965   5.435   1.460   4.606  0.4938 -0.7600  0.7619
17850TIP3    H274966   5.468   1.494   4.750  0.6596  1.3009  0.2676
17851TIP3   OH274967   6.123   5.823   4.150  0.1071 -0.0360  0.3977
17851TIP3    H174968   6.120   5.845   4.057  1.6869 -2.2660 -0.2520
17851TIP3    H274969   6.168   5.897   4.191  0.5782  0.3693 -0.8170
17852TIP3   OH274970   1.969   6.450   2.019  0.5812 -0.3885 -0.1919
17852TIP3    H174971   2.010   6.460   2.105 -0.1418  1.3827 -0.0037
17852TIP3    H274972   2.007   6.370   1.983  0.7838 -1.2523  1.8263
17853TIP3   OH274973   3.725   5.268   4.398 -0.2611 -0.6598  0.3752
17853TIP3    H174974   3.759   5.344   4.349 -0.6600 -0.1999  0.8027
17853TIP3    H274975   3.744   5.289   4.489 -0.9128 -0.7959  0.5451
17854TIP3   OH274976   4.432   4.805  15.867 -0.3686  0.4143 -0.3017
17854TIP3    H174977   4.369   4.782  15.936 -0.1819  1.6257  0.2830
17854TIP3    H274978   4.509   4.838  15.914  0.7469 -1.0473 -1.0037
17855TIP3   OH274979   6.649   0.054   3.717 -0.1980 -0.4803 -0.1311
17855TIP3    H174980   6.580   0.113   3.688  0.0907  0.1217  0.3641
17855TIP3    H274981   6.715   0.057   3.648  1.2739  2.2553  1.1951
17856TIP3   OH274982   1.627   0.886  16.711  0.0984 -0.8614 -0.0109
17856TIP3    H174983   1.705   0.835  16.732  1.5530  0.9198 -0.7876
17856TIP3    H274984   1.620   0.950  16.783 -1.8570 -2.2153  1.1079
17857TIP3   OH274985   4.123   3.575  12.868 -0.6810  0.3499 -0.4202
17857TIP3    H174986   4.051   3.576  12.931 -0.4650 -2.8554  0.0100
17857TIP3    H274987   4.090   3.524  12.794 -0.0991  2.0763 -1.9646
17858TIP3   OH274988   2.982   5.575   3.953  0.2501 -0.0281  0.1801
17858TIP3    H174989   2.930   5.502   3.987  0.2460 -0.3267 -0.4567
17858TIP3    H274990   3.073   5.550   3.971  0.3335 -0.7964 -1.1534
17859TIP3   OH274991   5.925   6.705  14.595  0.3735 -0.7081  0.1203
17859TIP3    H174992   6.019   6.694  14.580  0.7573  2.2455 -0.3434
17859TIP3    H274993   5.887   6.709  14.508  0.1049 -0.1484  0.2559
17860TIP3   OH274994   3.744   1.542  13.786 -0.0266 -0.0387 -0.0319
17860TIP3    H174995   3.679   1.530  13.718  0.9626  0.0805 -1.0344
17860TIP3    H274996   3.731   1.469  13.846 -1.2078  0.1082 -0.0832
17861TIP3   OH274997   1.867   3.411  11.663  0.0223 -0.4320 -0.2422
17861TIP3    H174998   1.781   3.381  11.633 -1.4290  1.3942  1.8483
17861TIP3    H274999   1.877   3.498  11.626  0.6966 -0.3545  0.0997
17862TIP3   OH275000   3.692   3.557  12.288  0.3369 -0.4748  0.4321
17862TIP3    H175001   3.725   3.483  12.237 -0.7768 -0.3416 -0.5203
17862TIP3    H275002   3.769   3.613  12.302  0.4381  0.2638 -2.4684
17863TIP3   OH275003   3.146   0.541  15.475 -0.4081  0.1796 -0.4333
17863TIP3    H175004   3.157   0.489  15.395 -1.0382  0.2288 -0.5570
17863TIP3    H275005   3.232   0.580  15.490  0.1683 -1.1681 -0.1515
17864TIP3   OH275006   6.102   2.954   1.648  0.0086 -0.0944  0.0775
17864TIP3    H175007   6.167   2.954   1.578 -1.0208 -1.5187 -0.9158
17864TIP3    H275008   6.146   2.913   1.722  0.3631 -0.7274 -0.4789
17865TIP3   OH275009   4.765   1.975  13.333  0.2336 -0.1235  0.1580
17865TIP3    H175010   4.839   1.949  13.389  0.0229 -1.4433 -0.1330
17865TIP3    H275011   4.799   1.966  13.244 -0.2471 -0.6459  0.0260
17866TIP3   OH275012   0.017   4.716   1.828  0.6566  0.8687  0.2384
17866TIP3    H175013  -0.053   4.759   1.779  1.0013  0.6351 -0.4742
17866TIP3    H275014   0.039   4.638   1.776  1.0459  0.6273  0.7516
17867TIP3   OH275015   4.744   2.365   0.045  0.4856  0.1873 -0.5655
17867TIP3    H175016   4.767   2.393  -0.043  0.6706 -0.7903 -0.8428
17867TIP3    H275017   4.775   2.435   0.102  3.7231 -0.7428 -0.9680
17868TIP3   OH275018   4.420   0.191   6.047  0.1141  0.1605  0.2301
17868TIP3    H175019   4.333   0.216   6.078 -0.1579 -0.0638 -0.3276
17868TIP3    H275020   4.469   0.273   6.045 -0.3956  0.4622 -0.4261
17869TIP3   OH275021   5.262   1.693  12.528 -0.7182 -0.0899  0.3214
17869TIP3    H175022   5.334   1.644  12.488 -1.2114  0.4617 -1.3378
17869TIP3    H275023   5.258   1.662  12.618  0.4946 -1.3573 -0.0338
17870TIP3   OH275024   0.060   3.133   6.204 -0.6722  0.7157  0.2293
17870TIP3    H175025   0.099   3.085   6.277  1.2240  0.4527 -0.9162
17870TIP3    H275026  -0.006   3.073   6.169  2.1800 -1.5652 -1.6762
17871TIP3   OH275027   0.630   4.323  14.529  0.3258  0.2955  0.3243
17871TIP3    H175028   0.692   4.358  14.593  0.6021  0.7663 -0.1828
17871TIP3    H275029   0.683   4.262  14.476 -0.4364 -1.9552  2.0011
17872TIP3   OH275030   6.060   6.331  14.418 -1.0151 -0.2990 -0.8300
17872TIP3    H175031   6.019   6.249  14.389  1.6906 -2.0885 -0.0130
17872TIP3    H275032   6.031   6.341  14.509  1.5818 -2.5905  0.3848
17873TIP3   OH275033   4.343   3.586  14.898  0.1240 -0.5421  0.3041
17873TIP3    H175034   4.328   3.644  14.972 -0.4272  0.4833 -0.5856
17873TIP3    H275035   4.257   3.578  14.856  0.7495  0.3002 -1.2105
17874TIP3   OH275036   2.694   0.736   5.976 -0.0391 -0.0191  0.1251
17874TIP3    H175037   2.687   0.828   6.003  0.0285 -0.7376  2.9559
17874TIP3    H275038   2.617   0.694   6.015  1.1797 -1.5551  1.0265
17875TIP3   OH275039   2.432   5.496   1.718  0.4229  0.3196  0.2538
17875TIP3    H175040   2.353   5.464   1.761  0.1968  1.2137  0.5165
17875TIP3    H275041   2.443   5.585   1.750  1.3839  0.3072  0.0004
17876TIP3   OH275042   3.781   6.129  14.210  0.6170 -0.1792  0.0190
17876TIP3    H175043   3.740   6.042  14.207  0.2081 -0.0200  0.7995
17876TIP3    H275044   3.732   6.180  14.145  0.0043 -0.1797  0.4676
17877TIP3   OH275045   4.395   1.479   2.502  0.1844 -0.4459 -0.1332
17877TIP3    H175046   4.328   1.440   2.558  0.2991 -1.6923 -0.8303
17877TIP3    H275047   4.402   1.420   2.428  1.1629  0.3404 -0.6919
17878TIP3   OH275048   0.059   4.953   2.216 -0.0043  0.0522  0.2673
17878TIP3    H175049   0.005   4.913   2.147  0.6520  0.2014 -0.3444
17878TIP3    H275050   0.018   4.925   2.298 -0.8080 -0.1147 -0.1808
17879TIP3   OH275051   3.948   5.266   2.987  0.2473 -0.3768  0.0849
17879TIP3    H175052   3.875   5.327   2.998  0.2912 -0.4435  0.7971
17879TIP3    H275053   3.994   5.298   2.909  0.1196  0.3470  0.2988
17880TIP3   OH275054   6.578   4.580  11.876 -0.5962 -0.4285 -0.0016
17880TIP3    H175055   6.489   4.546  11.862 -1.0811 -0.4798  2.7276
17880TIP3    H275056   6.568   4.675  11.872 -0.9663 -0.4103  1.2172
17881TIP3   OH275057   3.585   5.764  14.098  0.6504 -0.6091 -0.3446
17881TIP3    H175058   3.677   5.762  14.123  0.8286 -1.8886 -1.0445
17881TIP3    H275059   3.577   5.699  14.029 -1.1063 -1.7461  0.8492
17882TIP3   OH275060   1.607   0.472   2.035 -0.3110 -0.9195 -0.0690
17882TIP3    H175061   1.622   0.546   1.976  1.0626 -0.7105  0.5207
17882TIP3    H275062   1.517   0.444   2.016 -0.6741  0.5806 -0.6472
17883TIP3   OH275063   0.490   1.421  12.226  0.3041  0.0253 -0.3044
17883TIP3    H175064   0.447   1.399  12.143 -0.0333  0.9737 -0.4047
17883TIP3    H275065   0.479   1.344  12.281 -0.4507 -0.2048 -0.7645
17884TIP3   OH275066   0.634   3.539  16.806 -0.5103  0.1246  0.0121
17884TIP3    H175067   0.587   3.481  16.866  0.3038  0.7521  1.2831
17884TIP3    H275068   0.726   3.523  16.824 -0.2663  1.8808  0.4668
17885TIP3   OH275069   0.587   4.952  11.052  0.8842  0.1702  0.5416
17885TIP3    H175070   0.638   4.990  10.980  0.8409 -0.5374  0.1305
17885TIP3    H275071   0.497   4.952  11.019  0.9105 -0.4585  0.4612
17886TIP3   OH275072   5.474   3.354   5.141  0.1986  0.1981 -0.2278
17886TIP3    H175073   5.433   3.334   5.225 -4.9815 -2.2295 -2.8685
17886TIP3    H275074   5.444   3.443   5.120 -0.2441  0.0231 -0.3491
17887TIP3   OH275075   6.103   5.634  12.548  0.4591  0.6877  0.3820
17887TIP3    H175076   6.018   5.639  12.593 -0.2322  0.4164 -0.8592
17887TIP3    H275077   6.104   5.711  12.491  2.0722  1.9949  2.0500
17888TIP3   OH275078   2.911   6.385   4.767  0.3100  0.7475 -0.2992
17888TIP3    H175079   2.834   6.436   4.790 -0.6472 -0.5935 -0.3966
17888TIP3    H275080   2.879   6.295   4.763  2.4136 -0.2338  2.2141
17889TIP3   OH275081   6.744   5.316  16.903  0.4389 -0.2178 -0.1093
17889TIP3    H175082   6.820   5.280  16.857 -1.0484 -0.5641 -2.4627
17889TIP3    H275083   6.718   5.391  16.851  0.8962  1.7838  2.3646
17890TIP3   OH275084   3.344   0.783  13.380  0.5217  0.1327  0.4545
17890TIP3    H175085   3.399   0.826  13.446  0.4105  1.2971 -0.1821
17890TIP3    H275086   3.307   0.708  13.425 -0.5194  1.5598  2.1240
17891TIP3   OH275087   6.196   1.683   4.377 -0.2019 -0.7642 -0.0977
17891TIP3    H175088   6.193   1.644   4.290  0.6850 -1.5419  0.2021
17891TIP3    H275089   6.105   1.690   4.404 -0.5744  0.5760 -1.5489
17892TIP3   OH275090   1.497   5.727   4.285  0.1848  0.1295 -0.1658
17892TIP3    H175091   1.420   5.775   4.256  0.0655  0.2353  0.3119
17892TIP3    H275092   1.482   5.710   4.378 -0.9106 -3.0103 -0.8020
17893TIP3   OH275093   5.650   5.747  14.928  0.2264 -0.1629 -0.4042
17893TIP3    H175094   5.656   5.732  14.833  0.8677  0.9423 -0.5575
17893TIP3    H275095   5.728   5.798  14.949 -1.1361  1.7974  0.2396
17894TIP3   OH275096   5.838   2.177  16.416  0.0375  0.3127  0.2090
17894TIP3    H175097   5.797   2.093  16.394  0.1208  0.2098  0.4466
17894TIP3    H275098   5.919   2.153  16.460  1.2573  0.4715 -1.8087
17895TIP3   OH275099   3.461   0.154   0.311 -0.2591  0.0764  0.0866
17895TIP3    H175100   3.375   0.186   0.340 -0.4995 -0.9063  0.4817
17895TIP3    H275101   3.443   0.070   0.269  0.5358 -0.2714  0.4142
17896TIP3   OH275102   5.240   3.261   4.145  0.4737  0.2559 -0.5561
17896TIP3    H175103   5.267   3.340   4.097  0.5942  0.1397 -0.6838
17896TIP3    H275104   5.273   3.188   4.091  0.6424  0.1236 -0.2764
17897TIP3   OH275105   4.477   5.430   1.256  0.3339 -0.0253 -0.3724
17897TIP3    H175106   4.414   5.411   1.186  0.2447 -1.2243  0.0077
17897TIP3    H275107   4.515   5.345   1.277 -1.5893 -0.2277  2.8763
17898TIP3   OH275108   2.502   5.571  16.489  0.9902 -0.3377 -0.0171
17898TIP3    H175109   2.478   5.496  16.544  1.6634  1.4130  2.8513
17898TIP3    H275110   2.441   5.566  16.415  0.2967 -3.0531  0.6081
17899TIP3   OH275111   3.151   0.934   5.850  0.0061 -0.0512 -0.3926
17899TIP3    H175112   3.195   0.886   5.921  0.3159  0.2009 -0.4135
17899TIP3    H275113   3.220   0.985   5.810  0.3008 -1.7697 -2.2371
17900TIP3   OH275114   2.644   2.948  13.675 -0.4765 -0.0953  0.3380
17900TIP3    H175115   2.588   3.019  13.643 -1.7154 -0.4156  1.6966
17900TIP3    H275116   2.705   2.991  13.734  0.1722  0.1223 -0.4670
17901TIP3   OH275117   1.976   1.852  13.215 -0.1420  0.1308  0.0019
17901TIP3    H175118   1.891   1.838  13.256  0.2007  1.6442  1.3369
17901TIP3    H275119   1.966   1.936  13.170  0.1256 -0.5370 -1.3562
17902TIP3   OH275120   6.440   5.141   4.461  0.0628 -0.0180 -0.1939
17902TIP3    H175121   6.382   5.115   4.533  1.0081 -1.0207  0.2390
17902TIP3    H275122   6.450   5.062   4.408 -1.9527  1.1189 -2.4511
17903TIP3   OH275123   1.005   5.570   4.719  0.0648  0.0542  0.5716
17903TIP3    H175124   0.930   5.513   4.736 -0.9239  1.2900  0.5716
17903TIP3    H275125   0.966   5.658   4.710  1.3338  0.5017 -1.0284
17904TIP3   OH275126   5.041   6.584   4.786 -0.2334  0.2349  0.0486
17904TIP3    H175127   5.087   6.570   4.703 -1.4929  0.0176 -0.6543
17904TIP3    H275128   5.104   6.559   4.854  1.2243  1.5324 -0.7854
17905TIP3   OH275129   0.029   1.127   5.125 -0.4389  0.0696 -0.2755
17905TIP3    H175130   0.058   1.110   5.036 -0.3369  0.7729 -0.3780
17905TIP3    H275131  -0.064   1.147   5.117 -0.4796 -0.0869 -0.1969
17906TIP3   OH275132   1.701   5.564  12.372 -0.6608 -0.1525  0.7836
17906TIP3    H175133   1.761   5.582  12.445 -0.5815 -0.5353  0.8144
17906TIP3    H275134   1.734   5.483  12.333 -0.2418  0.4595 -0.1633
17907TIP3   OH275135   2.241   4.127  11.670 -0.6278  0.3167 -0.7677
17907TIP3    H175136   2.309   4.194  11.659  1.2202 -1.2579  0.3241
17907TIP3    H275137   2.261   4.061  11.604 -0.7762 -0.4096 -0.1020
17908TIP3   OH275138   6.372   5.629  11.601 -0.0490 -0.2936  0.0138
17908TIP3    H175139   6.290   5.586  11.576  0.5825 -2.2945  1.1046
17908TIP3    H275140   6.350   5.683  11.676 -0.6405  0.3633 -0.6230
17909TIP3   OH275141   1.938   2.109   3.560  0.2187  0.0547 -0.7822
17909TIP3    H175142   1.899   2.023   3.579  0.7707 -0.3416 -1.4056
17909TIP3    H275143   1.901   2.167   3.626 -0.2825 -0.6335 -0.4474
17910TIP3   OH275144   6.399   3.503  15.260 -0.3797  0.6319 -0.8013
17910TIP3    H175145   6.325   3.450  15.231  0.0471  0.3094 -1.3200
17910TIP3    H275146   6.380   3.522  15.352 -0.8543  0.1258 -0.7900
17911TIP3   OH275147   2.027   0.120   4.167  0.3635  0.2604  0.5683
17911TIP3    H175148   2.089   0.174   4.216 -0.8523  0.0450  2.4067
17911TIP3    H275149   1.997   0.054   4.229 -0.6654 -0.5211 -0.6923
17912TIP3   OH275150   5.997   2.256  10.709 -0.6121  0.0724 -0.2080
17912TIP3    H175151   5.996   2.352  10.703 -0.6067  0.0651 -0.3253
17912TIP3    H275152   6.017   2.238  10.801  1.2109  0.1852 -0.5414
17913TIP3   OH275153   4.486   0.593  16.113 -0.4136  0.4054  0.2790
17913TIP3    H175154   4.442   0.516  16.150  1.8625 -2.3569 -2.2695
17913TIP3    H275155   4.429   0.620  16.040  0.8284 -1.7604 -1.6044
17914TIP3   OH275156   1.955   1.961  15.595  0.2913  0.1081  0.2258
17914TIP3    H175157   1.974   2.053  15.578 -0.3509  0.5033  1.5270
17914TIP3    H275158   2.029   1.930  15.648  0.7716 -0.2825 -0.6544
17915TIP3   OH275159   1.205   1.603  15.655  0.0505  0.5432  0.3717
17915TIP3    H175160   1.172   1.605  15.745 -2.8243  0.8254 -0.5721
17915TIP3    H275161   1.245   1.516  15.646 -1.1719 -0.1846  1.4909
17916TIP3   OH275162   5.224   3.197  12.520  0.1092  0.3547  0.4221
17916TIP3    H175163   5.280   3.273  12.533  1.0265 -0.0866 -0.7706
17916TIP3    H275164   5.148   3.230  12.471  0.9126  0.3751 -0.8500
17917TIP3   OH275165   2.908   4.477   3.264  1.0385 -0.4672 -0.6012
17917TIP3    H175166   2.958   4.417   3.318  1.8357 -0.4235 -1.2652
17917TIP3    H275167   2.820   4.478   3.303  1.4638 -0.7876  0.3910
17918TIP3   OH275168   0.684   2.321   4.740 -0.1840 -0.2625 -0.1875
17918TIP3    H175169   0.627   2.283   4.808 -0.9456  1.2514  0.0624
17918TIP3    H275170   0.762   2.349   4.787 -0.2706 -0.1515 -0.1087
17919TIP3   OH275171   0.601   4.188   5.173 -0.6220 -0.5756 -0.6223
17919TIP3    H175172   0.633   4.161   5.087  0.4479  0.6340 -0.6325
17919TIP3    H275173   0.614   4.282   5.175  0.2271 -0.6903  1.1940
17920TIP3   OH275174   4.117   1.298   0.942  0.6245  0.2300 -0.2293
17920TIP3    H175175   4.132   1.216   0.988 -0.1887 -0.1566 -0.6295
17920TIP3    H275176   4.097   1.272   0.852 -4.2851  0.3991  0.5104
17921TIP3   OH275177   4.662   0.123   4.804 -1.0207 -1.1924 -0.3316
17921TIP3    H175178   4.578   0.085   4.832 -1.3241 -0.1461  0.2319
17921TIP3    H275179   4.661   0.212   4.839 -0.1339 -0.8043 -1.2325
17922TIP3   OH275180   3.601   0.441   0.446 -0.1708 -0.3308 -0.1879
17922TIP3    H175181   3.533   0.407   0.388 -0.4209 -1.8703  0.9530
17922TIP3    H275182   3.665   0.481   0.387 -0.8307 -1.0806 -1.4527
17923TIP3   OH275183   3.586   1.531   4.709  0.5260  0.0041 -0.0819
17923TIP3    H175184   3.568   1.455   4.765  2.0006  0.8704  1.6810
17923TIP3    H275185   3.523   1.597   4.736  0.7396  0.1706  0.0093
17924TIP3   OH275186   2.745   0.737   0.796  0.1381 -0.2583 -0.6634
17924TIP3    H175187   2.741   0.829   0.822  1.5860  0.0274 -1.3365
17924TIP3    H275188   2.671   0.696   0.840  1.0060  0.6762  1.8228
17925TIP3   OH275189   6.559   4.374  14.733  0.1797  0.3113  0.4218
17925TIP3    H175190   6.596   4.349  14.648  0.7269  1.3235  0.3465
17925TIP3    H275191   6.631   4.414  14.780  0.0232 -0.7659  1.6131
17926TIP3   OH275192   1.126   0.366  13.567 -0.1403  0.4418  0.5439
17926TIP3    H175193   1.182   0.424  13.515 -1.8775  1.0403 -0.7731
17926TIP3    H275194   1.102   0.296  13.507 -1.6057  0.7552  0.7311
17927TIP3   OH275195   1.989   3.165   4.758 -0.2021 -0.0858 -0.1072
17927TIP3    H175196   1.935   3.215   4.820  2.0830  0.4251  1.5854
17927TIP3    H275197   2.030   3.097   4.811 -2.3871 -3.2975 -2.1613
17928TIP3   OH275198   4.408   1.988  16.671 -0.1080  0.2468  0.0582
17928TIP3    H175199   4.387   1.907  16.717 -1.3887  0.7701  0.4339
17928TIP3    H275200   4.479   1.964  16.611 -0.2418 -1.0634  0.3984
17929TIP3   OH275201   5.051   2.565  14.366  0.3535 -0.2590  0.5081
17929TIP3    H175202   4.999   2.506  14.312  0.6042  0.3487 -0.4096
17929TIP3    H275203   5.011   2.559  14.453 -1.7250  0.7349 -0.3066
17930TIP3   OH275204   5.263   3.399  11.150 -0.0861 -0.0349  0.4215
17930TIP3    H175205   5.320   3.466  11.113 -1.1685  0.6933 -0.0011
17930TIP3    H275206   5.239   3.345  11.075  2.3822 -2.2111  1.0642
17931TIP3   OH275207   6.314   5.511  12.679  0.4422  0.1864  0.0068
17931TIP3    H175208   6.275   5.535  12.763 -0.3080  0.0909 -0.3050
17931TIP3    H275209   6.265   5.563  12.615 -0.2459 -1.1038 -0.5442
17932TIP3   OH275210   4.249   5.527  16.877  0.4127  0.0038 -0.0985
17932TIP3    H175211   4.266   5.609  16.923  0.1646  0.2435 -0.4276
17932TIP3    H275212   4.291   5.460  16.930  1.6409  0.4792 -0.4490
17933TIP3   OH275213   6.760   0.705   4.573 -0.5148  0.4679 -0.5844
17933TIP3    H175214   6.783   0.714   4.666 -0.4544  0.8976 -0.6352
17933TIP3    H275215   6.798   0.622   4.547 -0.2622  0.4909 -0.2998
17934TIP3   OH275216   6.336   0.954  17.070  0.6282  0.0365 -0.6727
17934TIP3    H175217   6.266   0.904  17.028 -0.7361 -0.0775  1.5533
17934TIP3    H275218   6.381   0.891  17.126  0.0835  0.8586  0.7431
17935TIP3   OH275219   0.423   0.163  11.537 -0.5046 -0.3258 -0.3532
17935TIP3    H175220   0.436   0.241  11.591 -0.3756  0.4476 -1.4805
17935TIP3    H275221   0.403   0.093  11.601 -0.7081  0.6290  0.6604
17936TIP3   OH275222   3.825   4.113  14.932 -0.6790 -0.2648  0.6254
17936TIP3    H175223   3.843   4.041  14.991 -0.3695 -0.7496 -0.0455
17936TIP3    H275224   3.825   4.073  14.845  0.1827  0.6658  0.1834
17937TIP3   OH275225   1.831   2.097   6.131  0.5101 -0.1979 -0.5616
17937TIP3    H175226   1.894   2.047   6.182 -0.1322  0.4072  0.8724
17937TIP3    H275227   1.750   2.046   6.138  0.3466  0.0352 -0.7456
17938TIP3   OH275228   1.209   1.084  17.014 -0.4354  0.5084 -0.3344
17938TIP3    H175229   1.156   1.067  17.092 -0.8646 -0.0056 -0.7292
17938TIP3    H275230   1.252   1.000  16.995 -0.2761  0.6485 -0.6072
17939TIP3   OH275231   5.718   2.591  10.500 -0.2255  0.4237  0.2654
17939TIP3    H175232   5.690   2.531  10.570 -1.6911 -1.8716 -2.0875
17939TIP3    H275233   5.641   2.644  10.482  0.5217  1.8497  1.1383
17940TIP3   OH275234   2.973   1.402  16.252  0.3585 -0.5364  0.7192
17940TIP3    H175235   2.904   1.452  16.296 -0.0654  0.4800 -1.0377
17940TIP3    H275236   2.927   1.355  16.182  1.2447 -0.9595  0.4100
17941TIP3   OH275237   0.686   5.194  15.420  0.4908  0.0859  0.0763
17941TIP3    H175238   0.621   5.263  15.436 -0.4357 -0.2619 -1.9425
17941TIP3    H275239   0.765   5.242  15.397  0.4163  0.4916  0.6274
17942TIP3   OH275240   3.636   2.047   1.348 -0.5743 -0.3008 -0.4108
17942TIP3    H175241   3.669   2.100   1.275  0.3047  0.2496  0.3611
17942TIP3    H275242   3.543   2.068   1.353 -0.5740 -0.0924 -1.1562
17943TIP3   OH275243   3.369   0.278  11.166 -0.4150 -0.1993  0.2640
17943TIP3    H175244   3.433   0.261  11.098 -0.6428  0.1621 -0.0425
17943TIP3    H275245   3.313   0.347  11.131 -0.6358 -0.1228  0.7484
17944TIP3   OH275246   2.766   6.582  14.782 -0.4026  0.1794  0.4102
17944TIP3    H175247   2.725   6.521  14.845  0.2367 -0.0201  0.6434
17944TIP3    H275248   2.698   6.646  14.763 -1.0692 -0.5729  0.2179
17945TIP3   OH275249   5.710   0.584  12.624  0.5273 -0.0117 -0.2712
17945TIP3    H175250   5.732   0.645  12.694 -1.7289 -0.2816  0.7575
17945TIP3    H275251   5.773   0.513  12.633  1.7364  1.0650 -0.0399
17946TIP3   OH275252   3.610   1.694  15.113 -0.5142 -0.0359 -0.2060
17946TIP3    H175253   3.585   1.676  15.203 -0.7858  0.9765 -0.0692
17946TIP3    H275254   3.568   1.777  15.092  2.1534  1.4228 -0.1856
17947TIP3   OH275255   0.287   5.781   1.174 -0.3356 -0.0663 -0.2029
17947TIP3    H175256   0.230   5.848   1.211 -1.0358 -0.3448 -0.7502
17947TIP3    H275257   0.265   5.701   1.221  1.5540  0.3358  1.5118
17948TIP3   OH275258   5.482   2.361   2.490  0.7470  0.0593  0.0145
17948TIP3    H175259   5.546   2.391   2.555 -0.1033  0.3947  0.7246
17948TIP3    H275260   5.451   2.442   2.450 -0.9919  0.1251  1.3889
17949TIP3   OH275261   0.472   5.149  13.641  0.1668  0.0988  0.0990
17949TIP3    H175262   0.411   5.107  13.702  0.7902 -0.3264  0.4532
17949TIP3    H275263   0.538   5.082  13.624  0.9289  0.7831  0.2972
17950TIP3   OH275264   6.388   3.082  12.202  0.6394 -0.0472  0.2651
17950TIP3    H175265   6.426   3.066  12.288 -0.4563  0.3605  0.8490
17950TIP3    H275266   6.321   3.014  12.193  0.2349  0.3752  0.0627
17951TIP3   OH275267   2.366   0.947  14.631 -0.5075  0.1180 -0.2283
17951TIP3    H175268   2.452   0.984  14.613 -0.2866 -0.0465  0.4781
17951TIP3    H275269   2.307   0.994  14.571 -0.2472  1.7007  0.6843
17952TIP3   OH275270   6.607   2.202   2.075 -0.6589 -0.1105  0.1711
17952TIP3    H175271   6.548   2.178   2.003  0.5519  0.1771 -0.9685
17952TIP3    H275272   6.664   2.269   2.037  1.0061 -1.0353  0.9123
17953TIP3   OH275273   4.459   3.551  13.480  0.0369 -0.2908 -0.5332
17953TIP3    H175274   4.517   3.500  13.536 -1.2304 -1.9848 -0.7016
17953TIP3    H275275   4.516   3.619  13.442  2.1545 -2.4120 -1.4122
17954TIP3   OH275276   5.460   3.061  11.689  0.4732  0.2255 -0.1642
17954TIP3    H175277   5.477   3.033  11.599  0.1258  0.9103 -0.4532
17954TIP3    H275278   5.515   3.137  11.702 -0.4474  0.9276 -0.2551
17955TIP3   OH275279   2.183   5.563   4.425  0.1431 -0.1996  0.0755
17955TIP3    H175280   2.260   5.572   4.481  0.1728  0.4033 -0.0595
17955TIP3    H275281   2.142   5.481   4.454  1.1929 -0.8664 -0.2975
17956TIP3   OH275282   1.699   3.233  15.025 -0.2554 -0.2199  0.3164
17956TIP3    H175283   1.620   3.219  14.972  0.5428  1.4548 -1.4447
17956TIP3    H275284   1.670   3.220  15.115 -2.5876  0.4621 -0.2620
17957TIP3   OH275285   6.541   0.951   2.216 -0.4393  0.1346  0.6867
17957TIP3    H175286   6.613   1.011   2.197 -0.0536  0.3388  2.6563
17957TIP3    H275287   6.470   1.009   2.247 -1.8188  0.0391 -1.9825
17958TIP3   OH275288   1.109   4.713  12.639 -0.2753  0.1662 -0.2062
17958TIP3    H175289   1.038   4.682  12.584 -1.6194  1.0955  0.9461
17958TIP3    H275290   1.142   4.791  12.596  1.5309 -1.3782 -1.8501
17959TIP3   OH275291   3.924   0.241  11.925  0.1438  0.3288  0.1937
17959TIP3    H175292   3.832   0.268  11.933  0.6574  2.3340 -0.1625
17959TIP3    H275293   3.933   0.217  11.833  0.1830  1.0810 -0.0117
17960TIP3   OH275294   1.063   0.340  13.199 -0.5758  0.1903  0.3114
17960TIP3    H175295   1.011   0.351  13.120  1.2771  3.2219 -0.6401
17960TIP3    H275296   1.066   0.427  13.240  0.9991 -0.6010  2.0792
17961TIP3   OH275297   1.542   4.478  11.569 -0.2185 -0.0632 -0.5173
17961TIP3    H175298   1.522   4.502  11.659  0.1767 -2.9462  0.4573
17961TIP3    H275299   1.461   4.441  11.534 -0.2040  0.4678 -1.1310
17962TIP3   OH275300   6.628   6.079   1.532  0.2881 -0.0034 -0.7326
17962TIP3    H175301   6.535   6.105   1.534  0.1134 -0.6308 -0.5084
17962TIP3    H275302   6.665   6.129   1.460 -0.1669  0.4619 -0.6485
17963TIP3   OH275303   6.274   2.805   1.826 -0.0087 -0.4938  0.2370
17963TIP3    H175304   6.270   2.728   1.769  1.1775 -1.3609  1.2598
17963TIP3    H275305   6.199   2.796   1.884 -0.3066 -0.4560 -0.1348
17964TIP3   OH275306   5.231   6.703  15.673  0.4721  0.4517  0.7922
17964TIP3    H175307   5.183   6.663  15.601 -0.4650  1.2339  0.9558
17964TIP3    H275308   5.315   6.657  15.675  0.2437 -0.0464 -0.3513
17965TIP3   OH275309   0.004   5.453   1.140 -0.6559 -0.4959  0.1800
17965TIP3    H175310   0.036   5.483   1.225 -1.9607  0.9000  0.2339
17965TIP3    H275311   0.070   5.484   1.077  0.7160 -2.2167  0.7076
17966TIP3   OH275312   1.179   3.717   2.238  0.5226  0.2051  0.0117
17966TIP3    H175313   1.098   3.688   2.195 -0.2063 -0.7534  1.9342
17966TIP3    H275314   1.232   3.754   2.167 -1.8480  1.4673 -1.2120
17967TIP3   OH275315   5.153   6.363  14.294 -0.5635  0.3293  0.0172
17967TIP3    H175316   5.098   6.285  14.291  1.4613 -1.1463 -0.5827
17967TIP3    H275317   5.116   6.416  14.365 -3.1995 -0.1680 -0.8644
17968TIP3   OH275318   1.289   1.014  12.689  0.7854 -0.2983  0.5667
17968TIP3    H175319   1.264   1.103  12.666  2.3831  0.3555  1.2063
17968TIP3    H275320   1.262   0.961  12.614 -1.0702  0.5437  0.5990
17969TIP3   OH275321   3.946   2.787  14.909  0.0968 -0.0672  0.2898
17969TIP3    H175322   4.003   2.757  14.838  1.5024  0.6740  1.0542
17969TIP3    H275323   3.990   2.759  14.989 -0.7030  0.3910  0.9125
17970TIP3   OH275324   0.388   4.508  16.230 -0.0838  0.6805  0.3521
17970TIP3    H175325   0.313   4.551  16.272  0.2088  1.5359  0.0230
17970TIP3    H275326   0.359   4.492  16.140  0.2127  1.2442  0.1541
17971TIP3   OH275327   3.091   2.454  13.068  0.4341  0.3808  0.2002
17971TIP3    H175328   3.063   2.378  13.017  0.0364  0.6006  0.0849
17971TIP3    H275329   3.173   2.426  13.109 -0.5171 -0.7116  1.4859
17972TIP3   OH275330   1.321   4.948  15.017 -0.2128 -0.1768  0.3712
17972TIP3    H175331   1.301   4.854  15.019 -0.1397 -0.1814  1.0902
17972TIP3    H275332   1.378   4.959  14.941 -1.6057 -0.4323 -0.7590
17973TIP3   OH275333   4.003   6.033  15.156 -0.4530 -0.5227  0.8456
17973TIP3    H175334   4.002   6.122  15.189  0.1121  0.9830 -2.7474
17973TIP3    H275335   3.912   6.015  15.133 -0.6181 -1.0360  1.8507
17974TIP3   OH275336   4.160   6.167  13.892  0.1079 -0.0310  0.1896
17974TIP3    H175337   4.084   6.224  13.883  0.5261  0.7897  1.5830
17974TIP3    H275338   4.233   6.226  13.913  0.9031 -0.9139 -0.0018
17975TIP3   OH275339   4.151   6.766   2.329  0.4098 -0.0467  0.2336
17975TIP3    H175340   4.072   6.817   2.311 -0.0430 -0.2872  1.4559
17975TIP3    H275341   4.211   6.788   2.257 -0.5370  0.6006 -0.3822
17976TIP3   OH275342   0.176   3.520  12.890  0.7989 -0.6457 -0.4704
17976TIP3    H175343   0.203   3.566  12.811 -0.6823 -0.1787 -0.7201
17976TIP3    H275344   0.115   3.579  12.934 -1.2421 -2.3338 -0.8487
17977TIP3   OH275345   0.538   2.123   1.408  0.4864 -0.1527  0.2507
17977TIP3    H175346   0.580   2.209   1.403 -0.7922  0.5356  0.9250
17977TIP3    H275347   0.504   2.106   1.320 -0.3460  0.6159  0.4120
17978TIP3   OH275348   6.441   2.098   0.127 -0.1233  0.0072  0.3997
17978TIP3    H175349   6.508   2.032   0.145  1.2179  0.9383 -0.9688
17978TIP3    H275350   6.420   2.087   0.034 -1.5748  0.0431  0.6898
17979TIP3   OH275351   0.014   1.380  16.178 -0.2942 -0.5278 -1.1500
17979TIP3    H175352   0.088   1.334  16.138  0.8839  0.4305 -0.1656
17979TIP3    H275353  -0.019   1.320  16.245  0.3779 -0.4991 -0.7846
17980TIP3   OH275354   6.538   4.726   0.508 -0.2190 -0.0924  0.1828
17980TIP3    H175355   6.447   4.754   0.497 -0.3597 -0.6842 -0.1587
17980TIP3    H275356   6.586   4.808   0.517 -0.6399  0.2760 -0.7407
17981TIP3   OH275357   5.086   6.562   0.507 -0.5530  0.0692 -0.5045
17981TIP3    H175358   4.998   6.529   0.523 -0.2900  0.3209  1.8105
17981TIP3    H275359   5.115   6.595   0.592  1.7753  0.0013 -1.2076
17982TIP3   OH275360   0.614   1.286  13.827  0.1440  0.4321 -0.2500
17982TIP3    H175361   0.521   1.296  13.845  0.4469  0.0655  1.8262
17982TIP3    H275362   0.652   1.371  13.853  0.5211  0.1733  0.0548
17983TIP3   OH275363   2.770   6.180  10.735 -0.0633  0.0854 -0.1072
17983TIP3    H175364   2.850   6.160  10.686  1.4401  1.5250  1.6263
17983TIP3    H275365   2.781   6.270  10.765 -2.5518  0.4983 -0.1447
17984TIP3   OH275366   5.956   4.790  13.870  0.0505  0.4135  0.2353
17984TIP3    H175367   5.978   4.734  13.795 -3.3909 -0.1581 -0.5277
17984TIP3    H275368   6.014   4.760  13.940  1.6212 -0.7783 -1.4559
17985TIP3   OH275369   4.407   3.928   5.273  0.5961 -0.1066 -0.3569
17985TIP3    H175370   4.366   3.895   5.193  1.8080  1.1064 -1.5237
17985TIP3    H275371   4.415   4.022   5.259 -1.0405  0.4903  2.0796
17986TIP3   OH275372   3.745   4.784   0.155  0.4017  0.1851  0.6427
17986TIP3    H175373   3.748   4.826   0.241  1.2561  3.3982 -0.7722
17986TIP3    H275374   3.835   4.791   0.122 -0.1943  0.3483 -1.0398
17987TIP3   OH275375   0.339   1.763   2.006 -0.8574 -0.1802 -0.4114
17987TIP3    H175376   0.268   1.827   2.004  0.9387  1.9414 -0.2534
17987TIP3    H275377   0.382   1.776   2.091 -0.7779 -2.0487 -0.1126
17988TIP3   OH275378   0.195   0.572  17.077  0.2127  0.0198 -0.0787
17988TIP3    H175379   0.228   0.483  17.087 -0.3085 -0.3495 -1.4428
17988TIP3    H275380   0.248   0.609  17.006 -0.6903  0.2218 -0.6583
17989TIP3   OH275381   0.467   0.479  13.957  0.3966 -0.1789 -0.0838
17989TIP3    H175382   0.390   0.451  13.908  1.5640 -2.1702 -0.9277
17989TIP3    H275383   0.434   0.502  14.044 -1.2806  0.2457 -0.7937
17990TIP3   OH275384   4.151   2.952   2.214 -0.1660  0.5138 -0.5242
17990TIP3    H175385   4.237   2.978   2.184  0.5608 -1.6116 -0.4678
17990TIP3    H275386   4.167   2.909   2.298 -1.4586  1.2286  0.1208
17991TIP3   OH275387   3.701   3.503  13.636  0.2380 -0.2706 -0.1238
17991TIP3    H175388   3.695   3.416  13.597  2.1107 -0.0642 -0.9700
17991TIP3    H275389   3.638   3.556  13.587  0.2654 -0.7574 -0.6952
17992TIP3   OH275390   2.692   6.669  16.922 -0.0051  0.2057  0.1753
17992TIP3    H175391   2.629   6.721  16.972  1.9085  0.4095  2.5418
17992TIP3    H275392   2.777   6.691  16.960  1.4690 -0.6118 -2.3953
17993TIP3   OH275393   2.091   0.688  14.553  0.0188 -0.1391 -0.6348
17993TIP3    H175394   2.025   0.622  14.530 -1.3811  1.4585 -1.4127
17993TIP3    H275395   2.173   0.639  14.559 -1.4812 -2.5942  2.3888
17994TIP3   OH275396   3.201   0.438  16.136  0.5015  0.0008  0.4756
17994TIP3    H175397   3.284   0.485  16.128 -0.8701  2.4082 -0.7968
17994TIP3    H275398   3.164   0.468  16.219  0.4942 -0.3826  0.6135
17995TIP3   OH275399   6.121   6.683   2.750  0.2754  0.1947 -1.1481
17995TIP3    H175400   6.194   6.710   2.694 -0.2986  1.9405 -1.1249
17995TIP3    H275401   6.050   6.744   2.727 -0.7324 -0.5915 -0.2018
17996TIP3   OH275402   2.238   1.568  10.461 -0.2245 -0.4089  0.2151
17996TIP3    H175403   2.269   1.510  10.531  0.5969 -1.1315 -0.7382
17996TIP3    H275404   2.150   1.535  10.441  0.1274 -1.1443 -0.1272
17997TIP3   OH275405   6.761   3.570   4.432  0.9330  0.5132 -0.4480
17997TIP3    H175406   6.808   3.615   4.502  2.8042 -0.3461 -1.0930
17997TIP3    H275407   6.754   3.636   4.362 -0.3970  1.1766  0.2688
17998TIP3   OH275408   0.570   2.306  12.855 -0.3737  0.0748  0.5312
17998TIP3    H175409   0.514   2.341  12.924 -0.4995  0.7073  0.1101
17998TIP3    H275410   0.510   2.291  12.781  0.0853  1.2224 -0.0886
17999TIP3   OH275411   1.423   1.628  10.768  0.1248  0.0080 -0.4379
17999TIP3    H175412   1.343   1.672  10.797 -0.8120 -1.8157 -0.0712
17999TIP3    H275413   1.394   1.574  10.694  1.2765  0.1446 -1.0066
18000TIP3   OH275414   0.035   4.399  12.725 -0.1305  0.3761 -0.0296
18000TIP3    H175415   0.003   4.405  12.636  0.2965 -1.1128 -0.2974
18000TIP3    H275416  -0.043   4.387  12.779 -0.1563 -2.8273 -0.6355
18001TIP3   OH275417   6.295   2.677   3.017  0.4313  0.2584 -0.3341
18001TIP3    H175418   6.234   2.609   2.988 -0.1155  0.8171 -0.5196
18001TIP3    H275419   6.353   2.633   3.078 -0.2261 -0.2671 -0.0799
18002TIP3   OH275420   6.703   1.906  15.104  0.2757  0.1609 -0.3430
18002TIP3    H175421   6.711   1.954  15.021  1.5595 -0.1555 -0.4268
18002TIP3    H275422   6.779   1.847  15.105 -0.3073 -0.6022  0.5746
18003TIP3   OH275423   6.540   1.180   4.654 -0.4006  0.1482  0.2058
18003TIP3    H175424   6.602   1.108   4.642 -1.1006 -0.4311  0.0456
18003TIP3    H275425   6.462   1.139   4.691 -1.0332  0.7256 -0.4545
18004TIP3   OH275426   1.182   0.053  14.147 -0.5774  0.5075 -0.1450
18004TIP3    H175427   1.240  -0.016  14.113  1.0176  0.9641  1.5291
18004TIP3    H275428   1.199   0.055  14.241 -2.4459  1.5151  0.2254
18005TIP3   OH275429   1.207   4.954  11.680  0.4632 -0.4295 -0.2432
18005TIP3    H175430   1.281   4.970  11.622 -0.4912  1.8819 -0.9403
18005TIP3    H275431   1.138   4.920  11.622  0.4017 -0.8538  0.0749
18006TIP3   OH275432   3.576   0.073   5.790  0.6038 -0.1001  0.0587
18006TIP3    H175433   3.652   0.130   5.799 -0.1236  0.5336  2.8858
18006TIP3    H275434   3.539   0.096   5.704  1.3593  2.3956  0.3253
18007TIP3   OH275435   0.193   5.023  12.866  0.3529  0.5812 -0.1448
18007TIP3    H175436   0.134   5.097  12.851 -1.3997 -0.8556 -0.7815
18007TIP3    H275437   0.250   5.051  12.937 -0.0272  2.6491 -0.5923
18008TIP3   OH275438   0.831   0.412   3.714 -0.4229  0.5564 -0.0324
18008TIP3    H175439   0.742   0.408   3.678 -0.2737 -0.3435 -0.3163
18008TIP3    H275440   0.826   0.360   3.794 -0.4764  1.6359  0.6882
18009TIP3   OH275441   4.995   1.828   2.267 -0.1381 -0.7067 -0.0263
18009TIP3    H175442   4.977   1.800   2.177  0.9855 -1.1305 -0.1381
18009TIP3    H275443   4.999   1.747   2.317  1.8359 -0.7095 -0.1070
18010TIP3   OH275444   1.850   5.603   4.106 -0.0982  0.1366 -0.0861
18010TIP3    H175445   1.781   5.557   4.152 -0.5980 -1.2574 -2.1018
18010TIP3    H275446   1.882   5.668   4.169 -0.4332 -1.8938  2.3160
18011TIP3   OH275447   2.231   0.045   4.893  0.2224 -0.2931  0.1226
18011TIP3    H175448   2.169   0.064   4.822 -2.5532  2.2449  2.8630
18011TIP3    H275449   2.316   0.073   4.859 -0.7076 -0.4233 -2.5841
18012TIP3   OH275450   4.080   3.296   5.070  0.1912 -0.5406  0.7690
18012TIP3    H175451   4.090   3.298   5.165  0.5233  0.1046  0.7241
18012TIP3    H275452   4.102   3.384   5.042 -1.7199 -0.1841  0.2673
18013TIP3   OH275453   2.177   1.987   3.482  0.0349  0.1779 -0.0929
18013TIP3    H175454   2.097   2.039   3.490 -0.6346 -0.5952 -1.4723
18013TIP3    H275455   2.151   1.899   3.511  1.4700  0.7464  3.5088
18014TIP3   OH275456   5.853   1.724   4.995 -0.5357 -0.5221  0.5103
18014TIP3    H175457   5.902   1.684   4.924  0.4870  1.4044  0.0509
18014TIP3    H275458   5.910   1.794   5.027 -3.0607  2.0985 -0.2907
18015TIP3   OH275459   4.668   1.838  11.599 -0.2879  0.2003  0.1607
18015TIP3    H175460   4.585   1.860  11.640 -0.6859 -0.9241 -0.0222
18015TIP3    H275461   4.718   1.795  11.669 -0.0651  0.3807  0.1147
18016TIP3   OH275462   1.332   6.593   3.376 -0.4633  0.0129  0.4905
18016TIP3    H175463   1.370   6.559   3.457 -0.0603  0.4645  0.4983
18016TIP3    H275464   1.366   6.682   3.369  2.0050 -0.9573 -1.6945
18017TIP3   OH275465   3.943   2.177  15.792 -0.0222 -0.0011 -0.5158
18017TIP3    H175466   3.880   2.105  15.785 -0.5413  0.4653 -0.6606
18017TIP3    H275467   4.026   2.140  15.760  0.4653 -1.4317  2.1038
18018TIP3   OH275468   3.708   1.740   4.524  0.0576 -0.2170  0.0345
18018TIP3    H175469   3.632   1.774   4.478 -0.9280 -1.0153  1.0219
18018TIP3    H275470   3.672   1.680   4.590  1.5523 -0.8982  0.2846
18019TIP3   OH275471   2.550   2.937  10.368 -0.2905 -0.1630 -0.1652
18019TIP3    H175472   2.613   2.910  10.435  2.2014  3.0907 -0.9664
18019TIP3    H275473   2.528   3.027  10.391 -1.7421  0.0121 -2.0384
18020TIP3   OH275474   1.033   1.954   0.142  0.0896 -0.1713  0.4213
18020TIP3    H175475   1.070   1.875   0.182 -0.2960  1.0638  3.4681
18020TIP3    H275476   1.047   1.941   0.048  2.4248 -2.6448  0.9550
18021TIP3   OH275477   4.576   4.624   1.217 -0.3702  0.9616  0.0773
18021TIP3    H175478   4.666   4.623   1.250  0.0277  1.0482 -0.9676
18021TIP3    H275479   4.530   4.560   1.271 -0.1143  2.0971  1.7424
18022TIP3   OH275480   2.959   1.781   6.540  0.0399 -0.6238 -0.2660
18022TIP3    H175481   2.918   1.863   6.511  0.1485 -0.4170  0.1594
18022TIP3    H275482   2.885   1.725   6.563 -0.0188  0.1360  1.5589
18023TIP3   OH275483   3.479   0.605   0.047 -0.1119 -0.4265 -0.3406
18023TIP3    H175484   3.522   0.525   0.079  3.0530  0.8201 -1.1403
18023TIP3    H275485   3.485   0.666   0.120  0.1378 -0.0067 -0.7109
18024TIP3   OH275486   1.173   6.474   0.649 -0.5646 -0.3760  0.5499
18024TIP3    H175487   1.078   6.483   0.660 -0.3303  0.6312  2.1870
18024TIP3    H275488   1.192   6.518   0.566 -1.6645 -1.8717 -0.5537
18025TIP3   OH275489   2.588   0.468  11.423 -0.3739  0.1680  0.0816
18025TIP3    H175490   2.625   0.402  11.363 -1.1450 -0.1467 -0.0569
18025TIP3    H275491   2.650   0.541  11.418 -0.7019  0.3822 -1.5378
18026TIP3   OH275492   6.715   4.523  10.861  0.3284 -0.2228  0.1958
18026TIP3    H175493   6.763   4.537  10.780 -1.3502 -1.9422 -1.2124
18026TIP3    H275494   6.762   4.453  10.905  0.0673 -0.7639 -0.3682
18027TIP3   OH275495   3.720   1.559  16.283 -0.3839 -0.1679 -0.3074
18027TIP3    H175496   3.810   1.547  16.250  0.2301  1.7255  0.5089
18027TIP3    H275497   3.707   1.487  16.344  0.7025 -0.3006 -0.2106
18028TIP3   OH275498   1.441   6.412  16.463 -0.0146  0.3944  0.2742
18028TIP3    H175499   1.400   6.327  16.455 -1.3375  0.6977  2.8678
18028TIP3    H275500   1.397   6.454  16.537  0.8440  3.1936 -0.6497
18029TIP3   OH275501   0.714   4.161  14.948 -0.6077 -0.0407 -0.3394
18029TIP3    H175502   0.763   4.197  14.875 -1.4441 -0.7078 -1.2528
18029TIP3    H275503   0.742   4.069  14.952 -0.0660  0.1535  0.6158
18030TIP3   OH275504   2.976   4.653  13.916  0.0454  0.5392  0.0400
18030TIP3    H175505   2.906   4.711  13.946 -0.2038  0.3258 -0.1188
18030TIP3    H275506   3.035   4.710  13.867  0.9349  1.0625  1.6671
18031TIP3   OH275507   5.628   0.670   0.188  0.4848 -0.4377  0.2910
18031TIP3    H175508   5.593   0.581   0.191 -1.0283  0.1074 -0.4077
18031TIP3    H275509   5.636   0.690   0.095  1.5441 -0.0878  0.4388
18032TIP3   OH275510   1.552   2.676  12.074 -0.1680 -0.0419 -0.0193
18032TIP3    H175511   1.549   2.659  11.980 -1.6305 -0.2590  0.0442
18032TIP3    H275512   1.618   2.615  12.107 -0.8523 -1.1794 -0.6796
18033TIP3   OH275513   4.034   0.288   4.367 -0.3209 -0.3987 -0.0112
18033TIP3    H175514   3.964   0.310   4.428  0.9291  0.6258  1.1091
18033TIP3    H275515   4.008   0.329   4.284 -0.7221  0.5647  0.5761
18034TIP3   OH275516   1.011   4.729  15.388  0.7187 -0.1362 -0.1288
18034TIP3    H175517   0.974   4.780  15.315  1.5118  1.0353  0.2531
18034TIP3    H275518   0.945   4.732  15.456  1.2665  1.5487  0.3772
18035TIP3   OH275519   3.904   0.584  11.586 -0.3381  0.2999  0.4387
18035TIP3    H175520   3.832   0.535  11.626 -0.2400 -0.1457  0.0773
18035TIP3    H275521   3.908   0.665  11.636 -0.8942  0.1975  0.6586
18036TIP3   OH275522   0.943   4.356   2.809 -0.3255  0.1558 -0.1835
18036TIP3    H175523   0.980   4.440   2.781  1.0068 -0.2975  0.1608
18036TIP3    H275524   0.948   4.300   2.732 -1.2496  0.3881 -0.4243
18037TIP3   OH275525   1.725   5.675   4.571  0.1698 -0.1044 -0.1777
18037TIP3    H175526   1.712   5.581   4.583 -0.0810 -0.0429  0.0272
18037TIP3    H275527   1.792   5.698   4.635  0.1309 -0.1151 -0.1337
18038TIP3   OH275528   2.097   5.641   3.973 -0.6329 -0.4188 -0.2895
18038TIP3    H175529   2.038   5.607   4.040  0.5805 -0.9972  0.5354
18038TIP3    H275530   2.077   5.589   3.895 -1.5330 -0.2711 -0.1624
18039TIP3   OH275531   3.469   4.746  11.681  0.7670  0.1572 -0.0234
18039TIP3    H175532   3.397   4.799  11.644  0.9640  1.0007  0.7579
18039TIP3    H275533   3.456   4.752  11.776 -0.2216 -2.6507  0.0982
18040TIP3   OH275534   6.585   3.505   2.436 -0.0351 -0.4352 -0.2303
18040TIP3    H175535   6.496   3.512   2.402 -0.1290  1.0506  0.2656
18040TIP3    H275536   6.576   3.458   2.519 -0.4451  0.2524  0.1189
18041TIP3   OH275537   4.829   6.793  15.987 -0.1579 -0.3776 -0.0478
18041TIP3    H175538   4.874   6.803  15.903  0.8510  0.0647  0.5331
18041TIP3    H275539   4.783   6.876  15.999 -1.1664 -0.8252 -0.6354
18042TIP3   OH275540   3.306   6.392  16.302 -0.6971  0.0017  0.3103
18042TIP3    H175541   3.359   6.394  16.382  1.0322  0.8179 -0.7822
18042TIP3    H275542   3.239   6.326  16.319  0.8666 -1.3415  1.6778
18043TIP3   OH275543   4.121   0.058  14.701 -0.7859 -1.0731  0.4766
18043TIP3    H175544   4.159  -0.002  14.637  0.2343 -0.6987  0.7112
18043TIP3    H275545   4.174   0.138  14.693 -1.6367 -0.4698  0.6982
18044TIP3   OH275546   6.031   3.230   5.489 -0.4462  0.0010  0.1482
18044TIP3    H175547   6.067   3.182   5.414 -0.5205  0.0106  0.1062
18044TIP3    H275548   5.938   3.204   5.492 -0.2290 -0.7246  0.8081
18045TIP3   OH275549   4.893   5.587  11.053 -0.3862 -0.2881 -0.0102
18045TIP3    H175550   4.944   5.555  10.978 -1.8028  1.3290 -1.7756
18045TIP3    H275551   4.932   5.672  11.075 -0.9934  0.0111 -0.0359
18046TIP3   OH275552   2.532   3.063  11.286 -0.0985 -0.8589 -0.3592
18046TIP3    H175553   2.508   2.974  11.260 -0.2940 -1.3465  1.3555
18046TIP3    H275554   2.449   3.110  11.288 -0.1767 -1.0176  0.1019
18047TIP3   OH275555   6.251   0.725  10.668  0.0592 -0.5968 -0.4212
18047TIP3    H175556   6.271   0.806  10.715  1.7334  0.0477 -2.1362
18047TIP3    H275557   6.166   0.742  10.627  0.6587  0.5810 -1.2537
18048TIP3   OH275558   4.925   0.394   1.753 -1.0048 -0.4229  0.5475
18048TIP3    H175559   4.843   0.399   1.704 -0.3018  1.7410 -0.5758
18048TIP3    H275560   4.908   0.441   1.834 -0.3011  2.2079 -0.7283
18049TIP3   OH275561   4.336   3.008   1.914 -0.4106  0.1636 -0.3540
18049TIP3    H175562   4.380   3.049   1.989 -0.6749 -0.4758  0.1621
18049TIP3    H275563   4.346   3.071   1.843  1.4849 -0.0311 -0.3052
18050TIP3   OH275564   0.593   2.057  14.567  0.6137 -0.0350  0.1889
18050TIP3    H175565   0.662   2.029  14.627 -0.4327 -0.9867  0.9866
18050TIP3    H275566   0.512   2.024  14.606 -0.1401 -0.4273 -1.6100
18051TIP3   OH275567   5.305   5.304  16.698  0.3006  0.1289  0.6136
18051TIP3    H175568   5.304   5.218  16.738 -0.6770 -1.0966 -1.8191
18051TIP3    H275569   5.257   5.360  16.759 -1.8657 -1.8147  0.8557
18052TIP3   OH275570   1.210   4.894   1.984 -0.4068 -0.1340  0.8850
18052TIP3    H175571   1.138   4.920   2.041  0.6865  0.0352  2.2466
18052TIP3    H275572   1.260   4.830   2.035  1.9409  1.7395  1.1427
18053TIP3   OH275573   4.746   0.852  13.797  0.2840  0.1115  0.5055
18053TIP3    H175574   4.727   0.920  13.732  0.0660 -1.4431 -1.1249
18053TIP3    H275575   4.840   0.836  13.789 -0.0740 -1.4983 -0.9274
18054TIP3   OH275576   4.626   1.163  14.949  0.9409 -0.2551 -0.1658
18054TIP3    H175577   4.541   1.198  14.922  0.7624  0.6712  1.4215
18054TIP3    H275578   4.688   1.233  14.930  1.0036 -0.0992  0.5665
18055TIP3   OH275579   1.256   3.879  11.079 -0.5557 -0.2589  0.3905
18055TIP3    H175580   1.327   3.816  11.063 -0.2784  0.3295 -0.7962
18055TIP3    H275581   1.186   3.852  11.020 -0.1304  0.9996 -0.7414
18056TIP3   OH275582   0.711   0.631  12.936  0.8996  0.4005  0.0057
18056TIP3    H175583   0.799   0.622  12.901  0.0211  0.3332 -2.3523
18056TIP3    H275584   0.686   0.722  12.919  0.3836  0.3373  0.3637
18057TIP3   OH275585   5.047   2.228  16.925  0.4132 -0.7383 -0.3634
18057TIP3    H175586   5.019   2.145  16.963 -0.3887 -0.0324  0.6727
18057TIP3    H275587   5.134   2.244  16.962  2.0980 -2.6697 -3.1535
18058TIP3   OH275588   5.951   4.996  12.529 -0.2193  0.4099  0.1064
18058TIP3    H175589   5.927   5.081  12.492  3.2396  2.4862  2.1231
18058TIP3    H275590   5.884   4.979  12.594  0.8076  3.5645  2.2457
18059TIP3   OH275591   3.719   6.209   2.448  0.5873 -0.6746 -0.4896
18059TIP3    H175592   3.780   6.254   2.390  0.0768  1.3737  0.4874
18059TIP3    H275593   3.743   6.239   2.536 -0.5976 -1.3490  0.0856
18060TIP3   OH275594   2.920   1.880  11.402  0.3614  0.5274  0.0717
18060TIP3    H175595   2.863   1.883  11.325 -1.0596  0.9644  1.0956
18060TIP3    H275596   2.997   1.931  11.377  0.1677  0.2029 -1.2434
18061TIP3   OH275597   6.285   2.116  12.004 -0.1243  0.1642 -0.3241
18061TIP3    H175598   6.217   2.183  12.009 -0.9619 -0.7228  0.5776
18061TIP3    H275599   6.308   2.098  12.095 -0.5037 -1.3508 -0.4976
18062TIP3   OH275600   0.278   5.134  16.283 -0.0008 -0.2000  0.1289
18062TIP3    H175601   0.308   5.127  16.373 -0.5488 -0.4287  0.2984
18062TIP3    H275602   0.342   5.085  16.232  0.4182  0.0968  0.3690
18063TIP3   OH275603   3.063   0.092  15.308 -0.1605  0.2149 -0.2153
18063TIP3    H175604   3.140   0.148  15.309 -0.8085  1.1231 -0.3991
18063TIP3    H275605   3.042   0.082  15.216  1.9229 -3.1571 -0.5004
18064TIP3   OH275606   0.025   1.010   1.303  0.2966  0.2365 -0.1787
18064TIP3    H175607   0.019   0.986   1.396  1.1352  0.8329  0.0438
18064TIP3    H275608   0.069   0.935   1.262  0.7866  0.3714  0.0861
18065TIP3   OH275609   5.541   3.340   5.431 -0.2280 -0.0457 -0.1355
18065TIP3    H175610   5.566   3.366   5.519 -2.6145  1.2625  0.2418
18065TIP3    H275611   5.495   3.256   5.443 -0.6412  0.1814 -0.0904
18066TIP3   OH275612   5.684   1.283   3.758 -0.0090  0.0458 -0.1709
18066TIP3    H175613   5.744   1.304   3.828  0.1731 -0.2382 -0.2411
18066TIP3    H275614   5.634   1.363   3.744  1.1478  0.6674 -0.9116
18067TIP3   OH275615   2.664   0.882   5.157 -0.3623  0.2863  0.0349
18067TIP3    H175616   2.682   0.898   5.064  0.1713 -0.4600  0.0028
18067TIP3    H275617   2.687   0.790   5.170 -3.7064 -0.6601  0.0986
18068TIP3   OH275618   5.064   5.320  15.401 -0.6211  0.2824 -0.0610
18068TIP3    H175619   5.134   5.257  15.383 -1.6142 -1.3279  1.3364
18068TIP3    H275620   5.026   5.339  15.316 -0.9673 -1.8903 -0.4499
18069TIP3   OH275621   6.613   3.227  16.809  0.3897  0.1375  0.2153
18069TIP3    H175622   6.606   3.168  16.884 -1.0865 -0.0657 -0.0584
18069TIP3    H275623   6.573   3.309  16.839  1.4705  0.6684  0.2440
18070TIP3   OH275624   5.581   1.419  15.027 -0.3196  0.3888 -0.0950
18070TIP3    H175625   5.583   1.323  15.032 -2.7875  0.3273  1.0904
18070TIP3    H275626   5.488   1.442  15.034  0.3277  2.9337  1.7358
18071TIP3   OH275627   4.814   3.791  10.889 -0.6856 -0.6891  0.0430
18071TIP3    H175628   4.777   3.877  10.908  0.1524 -0.2472 -0.2556
18071TIP3    H275629   4.749   3.729  10.921 -1.2519  0.0552  0.3648
18072TIP3   OH275630   3.929   0.191   1.132  0.0450  0.0438  0.2152
18072TIP3    H175631   3.970   0.108   1.154  0.1559  0.2956  1.0016
18072TIP3    H275632   4.001   0.246   1.100 -0.0590 -0.2087 -0.4853
18073TIP3   OH275633   2.555   4.235  14.994  0.2852  0.3875 -0.3924
18073TIP3    H175634   2.483   4.203  14.941 -1.3857 -1.4192  2.6755
18073TIP3    H275635   2.551   4.330  14.986 -0.3761  0.2189 -2.7420
18074TIP3   OH275636   3.963   1.848   5.310  0.6404  0.0341 -0.1856
18074TIP3    H175637   3.892   1.862   5.248  0.9723 -0.2333 -0.6328
18074TIP3    H275638   3.965   1.928   5.363 -0.7835 -0.4496  0.6492
18075TIP3   OH275639   3.603   0.527   6.518 -0.5515 -0.2332 -0.2460
18075TIP3    H175640   3.565   0.440   6.507 -0.4176 -0.2694 -0.4364
18075TIP3    H275641   3.685   0.524   6.468 -1.7451  0.7960 -2.4338
18076TIP3   OH275642   3.704   3.098  16.355  0.0230 -0.0795 -0.8849
18076TIP3    H175643   3.643   3.077  16.285 -0.6414 -0.2998 -0.2512
18076TIP3    H275644   3.662   3.066  16.435  0.6612  0.3654 -0.3520
18077TIP3   OH275645   1.682   6.520   5.451  0.0182  0.5344  0.1386
18077TIP3    H175646   1.676   6.589   5.518  1.9169  0.8198  0.0807
18077TIP3    H275647   1.636   6.555   5.376 -1.5087  0.5253  1.0324
18078TIP3   OH275648   1.840   4.490   2.945  0.2993 -0.0550  0.5133
18078TIP3    H175649   1.766   4.487   3.005  0.7776  2.3718  1.3161
18078TIP3    H275650   1.886   4.571   2.966  1.8301 -0.2773 -1.5847
18079TIP3   OH275651   4.512   4.308  11.618 -0.2143 -0.0029 -0.1774
18079TIP3    H175652   4.436   4.257  11.644 -0.6025  0.6597  0.0288
18079TIP3    H275653   4.556   4.330  11.700  2.0214 -3.0264 -0.4222
18080TIP3   OH275654   5.519   1.130   3.969 -0.0700 -0.6342 -0.0852
18080TIP3    H175655   5.463   1.071   3.920 -0.9246  0.6802 -0.7473
18080TIP3    H275656   5.486   1.218   3.949  0.9908  0.0709  1.0561
18081TIP3   OH275657   1.026   3.415  12.202  0.3667  0.3448  0.8647
18081TIP3    H175658   1.105   3.376  12.164 -0.9350 -1.2493 -0.3664
18081TIP3    H275659   1.031   3.508  12.178  0.4438 -0.2849 -1.8625
18082TIP3   OH275660   5.876   1.325   6.684 -0.0576  0.0543 -0.0827
18082TIP3    H175661   5.794   1.283   6.657 -0.1211  0.0699  0.0792
18082TIP3    H275662   5.898   1.282   6.767 -0.1692  0.3996  0.1272
18083TIP3   OH275663   1.491   0.908   3.298 -0.1547 -0.4618  0.6748
18083TIP3    H175664   1.512   0.879   3.209 -0.8640  2.4470 -0.5441
18083TIP3    H275665   1.577   0.924   3.338  0.2071 -2.6901  0.9375
18084TIP3   OH275666   4.100   1.514  10.658  0.1195 -0.1353  0.2356
18084TIP3    H175667   4.061   1.515  10.571  0.0184  0.0994  0.2832
18084TIP3    H275668   4.037   1.560  10.714  0.0695 -0.5001  0.4834
18085TIP3   OH275669   1.134   6.154   5.991  0.3186 -0.5272 -0.3962
18085TIP3    H175670   1.104   6.080   6.044  0.2094 -0.3267 -0.1749
18085TIP3    H275671   1.224   6.132   5.968  1.0410  0.2293  1.4708
18086TIP3   OH275672   0.232   2.243  11.171 -0.2223  0.3969 -0.6966
18086TIP3    H175673   0.266   2.240  11.260 -1.4465 -1.2259 -0.2338
18086TIP3    H275674   0.296   2.295  11.123  1.7438 -0.6666  0.6100
18087TIP3   OH275675   5.283   5.269   0.441  0.2700 -0.3475  0.5468
18087TIP3    H175676   5.351   5.287   0.376 -0.7623 -2.5081 -1.2532
18087TIP3    H275677   5.251   5.356   0.467 -0.5810  0.6941 -3.3508
18088TIP3   OH275678   3.487   0.462  12.935  0.5534 -0.0887 -0.0015
18088TIP3    H175679   3.559   0.515  12.969  1.1744 -0.0603 -1.3150
18088TIP3    H275680   3.526   0.376  12.918 -0.1077 -0.5542  0.7628
18089TIP3   OH275681   0.887   0.756   0.383 -0.4688 -0.4565 -0.1094
18089TIP3    H175682   0.912   0.686   0.443 -0.6914 -1.2689 -0.9452
18089TIP3    H275683   0.960   0.819   0.388  0.7921 -1.7854 -0.9523
18090TIP3   OH275684   3.562   0.711   3.898  0.3816  0.4175  0.3197
18090TIP3    H175685   3.632   0.723   3.834 -0.7965  1.3466 -0.8484
18090TIP3    H275686   3.512   0.793   3.894 -2.1138 -1.0414 -0.5496
18091TIP3   OH275687   5.462   1.038  15.910 -0.2604 -0.1813  0.4802
18091TIP3    H175688   5.401   1.112  15.909 -2.9716 -2.2076  2.0038
18091TIP3    H275689   5.440   0.988  15.832  1.2085  0.2473 -0.2580
18092TIP3   OH275690   5.333   6.538   4.161  0.1204  0.1437 -0.2678
18092TIP3    H175691   5.344   6.625   4.199  0.3416  0.1685 -0.3866
18092TIP3    H275692   5.240   6.533   4.139 -0.5478 -0.7341  2.4090
18093TIP3   OH275693   0.391   5.681   2.149  0.0112 -0.2958 -0.3158
18093TIP3    H175694   0.383   5.586   2.161  0.3864 -0.4032 -0.9104
18093TIP3    H275695   0.333   5.718   2.216 -1.8139 -0.9723 -1.4564
18094TIP3   OH275696   4.981   6.218  16.397 -0.2054 -0.0396  0.3452
18094TIP3    H175697   4.956   6.136  16.355 -1.5104  0.6981 -0.3981
18094TIP3    H275698   5.010   6.193  16.485 -2.0676 -1.1566  0.6950
18095TIP3   OH275699   4.098   5.536   0.221 -0.6856  0.1479  0.4976
18095TIP3    H175700   4.139   5.497   0.144 -2.6718 -1.8303  0.3240
18095TIP3    H275701   4.087   5.628   0.198  0.6944  0.0634 -0.6787
18096TIP3   OH275702   4.598   4.362  15.988  0.3397  0.7885  0.1002
18096TIP3    H175703   4.660   4.434  15.988  3.0344 -1.3706 -0.0649
18096TIP3    H275704   4.617   4.314  15.907  0.1389 -1.2624  1.2027
18097TIP3   OH275705   6.142   5.146   6.019 -0.0497 -0.1023 -0.1832
18097TIP3    H175706   6.119   5.068   5.968  1.2146 -0.2148 -0.6140
18097TIP3    H275707   6.220   5.121   6.067 -1.7752 -0.3486  2.7199
18098TIP3   OH275708   5.732   5.738  15.249 -0.3668 -0.2480 -0.2910
18098TIP3    H175709   5.720   5.656  15.200  0.6377 -0.8591  0.4537
18098TIP3    H275710   5.760   5.802  15.183  1.6910 -1.2409 -0.4490
18099TIP3   OH275711   5.483   2.249  14.344 -0.4361  0.0352  0.1057
18099TIP3    H175712   5.489   2.175  14.405 -3.1693  1.6448  2.6286
18099TIP3    H275713   5.567   2.293  14.352  0.3872 -1.5009  0.3394
18100TIP3   OH275714   1.946   3.564   6.234  0.0090 -0.5151 -0.1037
18100TIP3    H175715   1.945   3.528   6.323 -1.9771 -1.1221 -0.3083
18100TIP3    H275716   1.859   3.603   6.223  0.7325  0.8614 -1.2925
18101TIP3   OH275717   5.674   0.029  10.770 -0.5546  0.1011  0.2026
18101TIP3    H175718   5.623   0.109  10.754  1.2924  0.8573 -2.6671
18101TIP3    H275719   5.609  -0.040  10.779 -2.1541  1.2941 -1.5417
18102TIP3   OH275720   1.307   1.049   4.063 -0.0682 -0.0474 -0.0286
18102TIP3    H175721   1.226   1.057   4.113  0.0173 -1.0285  0.2836
18102TIP3    H275722   1.331   1.140   4.043 -0.2245  0.3659  1.5068
18103TIP3   OH275723   4.803   0.093   3.551 -0.3790  0.4607  0.2107
18103TIP3    H175724   4.870   0.119   3.487  1.7219  1.7000  2.7502
18103TIP3    H275725   4.765   0.175   3.581 -3.7641 -0.2128 -1.6589
18104TIP3   OH275726   0.294   1.655   5.539 -0.0936 -0.2350 -0.3341
18104TIP3    H175727   0.357   1.692   5.600  2.5847 -0.5980 -2.6347
18104TIP3    H275728   0.214   1.706   5.552  1.2271  1.5281  1.4743
18105TIP3   OH275729   5.229   0.326  13.727 -0.1434  0.0971  0.6723
18105TIP3    H175730   5.283   0.301  13.652 -0.6472  2.5610 -0.6153
18105TIP3    H275731   5.141   0.334  13.690 -0.3115  1.8497  1.3752
18106TIP3   OH275732   1.409   3.713  14.734  0.0069 -0.1851  0.0682
18106TIP3    H175733   1.335   3.752  14.780 -1.2718 -2.0561 -0.3142
18106TIP3    H275734   1.443   3.784  14.679 -0.7947  1.0100  1.0654
18107TIP3   OH275735   1.343   5.333   3.563 -0.1551 -0.0724 -0.1158
18107TIP3    H175736   1.288   5.284   3.503 -0.5401  1.3633 -0.9892
18107TIP3    H275737   1.296   5.331   3.646 -0.2081 -1.0639 -0.1569
18108TIP3   OH275738   4.394   0.255   2.031 -0.0641 -0.4739 -0.9971
18108TIP3    H175739   4.473   0.306   2.052  0.2578 -1.4303  0.2250
18108TIP3    H275740   4.396   0.181   2.092 -1.3180 -1.1362 -1.7137
18109TIP3   OH275741   5.883   2.032   5.263  0.6523  0.2396 -0.7856
18109TIP3    H175742   5.919   1.972   5.198  0.3000 -2.0166  0.9793
18109TIP3    H275743   5.959   2.080   5.297  1.4576 -1.4800 -0.0481
18110TIP3   OH275744   2.161   5.306  14.929 -0.1497  0.1715  0.1238
18110TIP3    H175745   2.251   5.338  14.924 -0.6863  1.7089 -0.3685
18110TIP3    H275746   2.137   5.289  14.838 -0.1216 -1.0257  0.3164
18111TIP3   OH275747   6.371   3.266   4.213 -0.2945 -0.3048  0.1356
18111TIP3    H175748   6.369   3.178   4.249  0.6478  0.9544  3.6432
18111TIP3    H275749   6.449   3.269   4.158  0.6931 -1.1681  1.4585
18112TIP3   OH275750   1.789   2.263  13.082  0.0536 -0.5808 -0.1607
18112TIP3    H175751   1.763   2.266  13.174 -0.3382 -1.5759 -0.2272
18112TIP3    H275752   1.811   2.354  13.061  0.8121 -0.4391  1.1007
18113TIP3   OH275753   1.031   0.066  13.770  0.4476  0.3323 -0.4959
18113TIP3    H175754   0.955   0.097  13.721 -1.2704 -0.7763  1.3591
18113TIP3    H275755   1.017  -0.028  13.779  1.2039  0.3562  1.2723
18114TIP3   OH275756   2.346   4.944  16.555 -0.2067 -0.1597  0.0677
18114TIP3    H175757   2.269   4.992  16.586  0.4228  1.5130 -0.8487
18114TIP3    H275758   2.421   4.999  16.579  0.6543 -1.3142  0.1158
18115TIP3   OH275759   6.656   2.671   4.437  0.2988 -0.1951 -0.8060
18115TIP3    H175760   6.723   2.738   4.452  0.4018 -0.2380 -1.0742
18115TIP3    H275761   6.582   2.719   4.400  0.4021 -0.2432 -1.0731
18116TIP3   OH275762   0.061   3.468  13.888  0.1624 -0.1111 -0.3020
18116TIP3    H175763   0.113   3.504  13.960 -1.0260  1.1339 -0.0135
18116TIP3    H275764  -0.002   3.410  13.930  0.7963 -1.0044 -0.5687
18117TIP3   OH275765   6.077   0.453  16.252  0.7375  0.5292  0.3338
18117TIP3    H175766   6.079   0.514  16.178  0.3599 -1.8819 -1.8082
18117TIP3    H275767   6.166   0.417  16.257  1.1002  1.5332  1.9055
18118TIP3   OH275768   6.733   0.892  14.063  0.5180  0.2945  0.2890
18118TIP3    H175769   6.817   0.863  14.027  0.5844 -0.5354  1.0893
18118TIP3    H275770   6.667   0.851  14.006  0.6279  1.0652 -0.4296
18119TIP3   OH275771   4.728   1.239  12.777 -0.2861  0.2006 -0.3994
18119TIP3    H175772   4.730   1.147  12.754  2.2254  0.0138  0.2486
18119TIP3    H275773   4.648   1.250  12.827  0.0949 -1.9951  0.8089
18120TIP3   OH275774   5.677   0.737   4.770  0.2495  0.5675  0.2563
18120TIP3    H175775   5.625   0.669   4.812  1.2306 -0.2130  0.2378
18120TIP3    H275776   5.619   0.774   4.703  0.0278 -0.9471 -0.4241
18121TIP3   OH275777   6.739   5.612   2.964  0.1460 -0.0216  0.5218
18121TIP3    H175778   6.802   5.669   3.008  0.4936 -0.7492  0.9901
18121TIP3    H275779   6.659   5.664   2.957 -0.3369 -0.2664  3.1457
18122TIP3   OH275780   0.696   0.634  16.097  0.2686 -0.1352  0.1184
18122TIP3    H175781   0.661   0.704  16.042 -0.4650  0.8454  1.7424
18122TIP3    H275782   0.742   0.680  16.167  0.8406 -1.3300  0.5493
18123TIP3   OH275783   3.091   4.970  11.065  0.2147 -1.0065 -0.0689
18123TIP3    H175784   3.073   5.042  11.004  0.7832 -1.1922 -0.4666
18123TIP3    H275785   3.154   4.915  11.019  0.7846 -1.0599  0.7511
18124TIP3   OH275786   1.768   0.763   0.270  0.0740  0.0322  0.1606
18124TIP3    H175787   1.756   0.686   0.325 -0.8082 -0.7285 -1.0647
18124TIP3    H275788   1.863   0.776   0.268  0.5941 -2.9974 -2.1656
18125TIP3   OH275789   4.663   0.707  16.283 -0.2588 -0.2959 -0.3382
18125TIP3    H175790   4.680   0.619  16.317 -0.1108 -0.4553 -0.8249
18125TIP3    H275791   4.589   0.696  16.223  0.6109 -0.3346 -1.4414
18126TIP3   OH275792   6.188   1.325  12.635 -0.0842  0.4242  0.7844
18126TIP3    H175793   6.214   1.271  12.560 -0.3245  1.3128  0.0259
18126TIP3    H275794   6.196   1.415  12.602  0.0200  0.8368  1.9113
18127TIP3   OH275795   5.209   3.445   2.818 -0.0641  0.2857 -0.7697
18127TIP3    H175796   5.236   3.528   2.781  1.3377 -0.2882 -1.0982
18127TIP3    H275797   5.246   3.445   2.907 -0.8244  0.3760 -0.4427
18128TIP3   OH275798   6.543   2.364  15.021 -0.5878  0.0396 -0.6904
18128TIP3    H175799   6.597   2.423  15.074 -1.1072  2.3234 -2.5152
18128TIP3    H275800   6.454   2.400  15.029 -0.9565 -0.5804 -1.7515
18129TIP3   OH275801   3.619   5.031   1.216  0.4252  0.5153  0.4188
18129TIP3    H175802   3.713   5.015   1.225  0.7419  1.5735 -0.6161
18129TIP3    H275803   3.581   5.000   1.297  1.8287  1.1337  1.3543
18130TIP3   OH275804   6.615   1.086   3.806 -0.1862 -0.0442  0.0796
18130TIP3    H175805   6.536   1.132   3.833  0.3462  1.0669 -0.1872
18130TIP3    H275806   6.620   1.011   3.864 -1.9111 -0.6472 -0.4810
18131TIP3   OH275807   5.855   3.680  14.108 -1.0389  0.1791 -0.3266
18131TIP3    H175808   5.898   3.715  14.030 -3.0607  2.3948 -0.5662
18131TIP3    H275809   5.918   3.694  14.179  0.7638 -1.7168 -1.4241
18132TIP3   OH275810   5.148   4.601   1.855  0.0416 -0.5377 -0.5275
18132TIP3    H175811   5.096   4.525   1.827 -1.4106  1.2214 -2.9961
18132TIP3    H275812   5.083   4.667   1.878  1.1537  1.1831 -2.0781
18133TIP3   OH275813   6.613   6.475  15.907 -0.2982  0.0742  0.2791
18133TIP3    H175814   6.600   6.387  15.942 -0.5230 -0.3603 -0.8690
18133TIP3    H275815   6.706   6.493  15.920  0.5003 -1.6435 -2.3480
18134TIP3   OH275816   4.353   6.653   4.442 -0.2723  0.3645  0.2222
18134TIP3    H175817   4.313   6.615   4.520 -0.0410 -0.7858 -0.1950
18134TIP3    H275818   4.355   6.747   4.459 -1.0661  0.2193  1.2020
18135TIP3   OH275819   4.893   4.184   2.470  0.4602 -0.3993 -0.2156
18135TIP3    H175820   4.852   4.105   2.505 -0.2331  0.8199  1.9209
18135TIP3    H275821   4.987   4.168   2.479  0.3151 -0.6516  1.0389
18136TIP3   OH275822   1.622   5.659   3.632 -0.3836  0.0868  0.3037
18136TIP3    H175823   1.704   5.706   3.620 -0.3478 -0.2604 -0.9795
18136TIP3    H275824   1.624   5.629   3.722 -0.0439  1.8228  0.9058
18137TIP3   OH275825   0.642   1.815  13.000  0.5724  0.1331  0.3839
18137TIP3    H175826   0.591   1.831  12.921  0.9128 -2.2688 -0.4284
18137TIP3    H275827   0.730   1.846  12.979  0.2992  0.9511  0.4290
18138TIP3   OH275828   1.120   5.044   5.142  0.0429  0.0595 -0.0877
18138TIP3    H175829   1.161   5.002   5.067  2.6292  1.4767  0.3961
18138TIP3    H275830   1.030   5.011   5.143  1.1567 -3.4303 -1.1648
18139TIP3   OH275831   5.028   1.624  16.644  0.3972  0.5053 -0.1520
18139TIP3    H175832   5.066   1.703  16.607 -1.3611  1.5009  0.0446
18139TIP3    H275833   5.099   1.560  16.644  1.1983  1.2582 -2.7510
18140TIP3   OH275834   5.394   0.267   1.852 -0.0677  0.4664  0.2702
18140TIP3    H175835   5.393   0.213   1.931  0.0088 -1.9371 -1.2549
18140TIP3    H275836   5.480   0.310   1.853 -0.1926  0.7296  1.6174
18141TIP3   OH275837   3.636   2.771  14.701  0.3120  0.5825 -0.4293
18141TIP3    H175838   3.700   2.700  14.712  1.1528  1.2944 -0.5824
18141TIP3    H275839   3.654   2.830  14.774  1.2712  1.8587 -1.6539
18142TIP3   OH275840   4.344   3.175  15.889  0.1583  0.0189 -0.9861
18142TIP3    H175841   4.276   3.143  15.948 -0.3302  0.1680 -1.4589
18142TIP3    H275842   4.423   3.181  15.944 -0.5189  1.1268 -0.0989
18143TIP3   OH275843   4.643   3.697   4.557  0.4635  0.0092 -0.6215
18143TIP3    H175844   4.651   3.775   4.611 -0.7071  0.5544 -1.1927
18143TIP3    H275845   4.580   3.642   4.603 -0.4643  0.4345 -1.3472
18144TIP3   OH275846   5.275   3.022   4.645 -0.2163 -0.4417 -0.2983
18144TIP3    H175847   5.300   2.998   4.556  1.2988 -2.0513  0.5026
18144TIP3    H275848   5.358   3.033   4.691 -0.9051  2.1909  0.5305
18145TIP3   OH275849   3.000   3.766  14.985  0.4454 -0.0000 -0.0772
18145TIP3    H175850   2.928   3.791  14.927  1.0277  1.1251 -0.3351
18145TIP3    H275851   2.985   3.673  15.002  0.5828 -0.5473 -2.5270
18146TIP3   OH275852   5.185   0.776   2.221 -0.5609  0.3493  0.2372
18146TIP3    H175853   5.241   0.826   2.281  2.8256 -0.8436 -1.6724
18146TIP3    H275854   5.204   0.685   2.241 -2.1996 -0.1253 -0.2460
18147TIP3   OH275855   6.470   6.451   2.238 -0.1088  0.3855 -0.2029
18147TIP3    H175856   6.436   6.524   2.290  0.2522 -0.2939  1.0475
18147TIP3    H275857   6.397   6.425   2.182  0.0616  2.2913 -1.3801
18148TIP3   OH275858   6.152   1.708   1.634 -0.3367  0.4871 -0.0237
18148TIP3    H175859   6.106   1.719   1.717  3.2696  2.7277  1.9003
18148TIP3    H275860   6.088   1.736   1.568 -3.3386 -1.3754  1.8360
18149TIP3   OH275861   2.288   3.446   0.080  0.5022 -0.0556 -0.6034
18149TIP3    H175862   2.370   3.397   0.093  0.3093 -0.3217 -0.3860
18149TIP3    H275863   2.277   3.449  -0.015  1.3981  1.0320 -0.6949
18150TIP3   OH275864   3.096   6.271  16.420 -0.1637  0.2580  0.0834
18150TIP3    H175865   3.063   6.311  16.500  0.3438 -1.1145  1.0074
18150TIP3    H275866   3.056   6.184  16.418  0.6376 -0.1117 -0.6003
18151TIP3   OH275867   4.097   5.905  11.622 -0.1027  0.1459 -0.1513
18151TIP3    H175868   4.040   5.942  11.689  0.4724  0.3727  0.2284
18151TIP3    H275869   4.130   5.824  11.660  1.2019  0.8884  0.3789
18152TIP3   OH275870   4.415   2.395  11.370  0.3536 -0.0191  0.3115
18152TIP3    H175871   4.321   2.384  11.353  0.2452  2.4902 -1.3150
18152TIP3    H275872   4.419   2.431  11.458 -0.2153 -0.0408  0.3513
18153TIP3   OH275873   4.766   2.290   4.578 -0.1461 -0.2758  0.0874
18153TIP3    H175874   4.811   2.254   4.502 -0.7250 -1.9269  0.4858
18153TIP3    H275875   4.772   2.222   4.645 -0.3431  0.8166  1.2697
18154TIP3   OH275876   2.169   4.624  17.075 -0.0352  0.4583  0.3269
18154TIP3    H175877   2.244   4.648  17.130 -0.4628  1.0390  0.6704
18154TIP3    H275878   2.192   4.654  16.987  0.5779 -0.3140  0.2109
18155TIP3   OH275879   4.154   4.020  11.408  0.2974 -0.1974  0.1327
18155TIP3    H175880   4.229   4.001  11.353  0.2890  0.7276 -0.2167
18155TIP3    H275881   4.087   3.957  11.380  0.5570 -0.2590 -0.3579
18156TIP3   OH275882   6.000   4.922  14.742 -0.5194 -0.5389  0.0073
18156TIP3    H175883   6.048   4.989  14.792 -0.1242 -0.9273  0.1581
18156TIP3    H275884   5.992   4.959  14.654 -0.8608 -0.0246  0.2474
18157TIP3   OH275885   3.968   4.825  14.246 -0.7015 -0.7923  0.3042
18157TIP3    H175886   3.911   4.771  14.300 -1.8304  0.5150  0.4800
18157TIP3    H275887   3.910   4.891  14.207  0.6701  0.6562  0.5653
18158TIP3   OH275888   4.339   3.866  11.270  0.2538  0.1476  0.1183
18158TIP3    H175889   4.429   3.866  11.237  0.8508  0.1337  1.6426
18158TIP3    H275890   4.300   3.788  11.232  0.9061  0.1307 -0.5368
18159TIP3   OH275891   6.096   5.937  13.039 -0.1151 -0.7621 -1.0654
18159TIP3    H175892   6.026   5.878  13.009  0.4982 -1.3200 -1.4138
18159TIP3    H275893   6.158   5.939  12.967  0.9048 -1.3606 -0.2251
18160TIP3   OH275894   3.894   6.280  13.895  0.2840 -0.1544  0.8633
18160TIP3    H175895   3.848   6.281  13.979 -1.1361 -2.9551  0.2345
18160TIP3    H275896   3.894   6.372  13.867 -1.6297  0.4735  2.6450
18161TIP3   OH275897   2.163   5.401   3.477  0.3327  0.1674  0.2095
18161TIP3    H175898   2.210   5.412   3.395  0.1839  0.8445  0.2108
18161TIP3    H275899   2.073   5.425   3.457  0.0732 -0.6593  0.3250
18162TIP3   OH275900   6.479   3.843  13.105 -0.5092  0.2963 -0.4060
18162TIP3    H175901   6.466   3.937  13.092  0.9133  0.4441 -1.0020
18162TIP3    H275902   6.538   3.817  13.033  1.8784 -0.3347  1.6224
18163TIP3   OH275903   3.487   2.181  15.164 -0.1782 -0.2073  0.1882
18163TIP3    H175904   3.496   2.276  15.163 -1.8289 -0.0237 -0.5138
18163TIP3    H275905   3.412   2.165  15.221  0.9902 -1.2093  1.4992
18164TIP3   OH275906   5.907   5.865   1.208 -0.0030  0.0575 -0.0675
18164TIP3    H175907   5.871   5.824   1.129  0.3021 -1.0009  0.3275
18164TIP3    H275908   5.947   5.946   1.177 -0.9185  0.2445 -0.8200
18165TIP3   OH275909   3.293   4.396   3.389 -0.0058  0.4718 -0.1655
18165TIP3    H175910   3.355   4.422   3.458 -0.2878  0.4132  0.1158
18165TIP3    H275911   3.327   4.436   3.309 -0.0623  1.1336  0.1365
18166TIP3   OH275912   2.035   4.598  11.496 -0.3800  0.4938 -0.0939
18166TIP3    H175913   2.017   4.614  11.403  0.9285 -0.6572 -0.5830
18166TIP3    H275914   1.958   4.550  11.527  0.4537 -1.8880 -1.4250
18167TIP3   OH275915   2.129   2.405  16.241 -0.0572  0.1913  0.4024
18167TIP3    H175916   2.152   2.365  16.325 -1.7411  1.7486  1.6852
18167TIP3    H275917   2.047   2.363  16.216 -0.0487  0.3981  0.0184
18168TIP3   OH275918   2.574   4.097   5.289 -0.1735 -0.3424 -0.4599
18168TIP3    H175919   2.511   4.128   5.354 -1.4287 -1.5531 -1.0695
18168TIP3    H275920   2.535   4.119   5.205  0.5673 -0.4737 -0.8476
18169TIP3   OH275921   1.541   2.761  16.204  0.3817 -0.3291  0.3928
18169TIP3    H175922   1.489   2.802  16.135  0.3002 -1.1348 -0.0393
18169TIP3    H275923   1.591   2.833  16.243 -0.6376  0.3600  0.4491
18170TIP3   OH275924   4.736   2.678  16.766  0.3479 -0.2341 -0.2378
18170TIP3    H175925   4.668   2.702  16.703 -0.0707 -0.5673  0.0803
18170TIP3    H275926   4.708   2.593  16.801  1.3293 -0.7604 -0.6766
18171TIP3   OH275927   5.295   5.585   0.226  0.2194 -0.1613 -0.0973
18171TIP3    H175928   5.300   5.493   0.201  0.2609 -0.0231 -0.6138
18171TIP3    H275929   5.292   5.632   0.143  0.7055  0.3330  0.1601
18172TIP3   OH275930   5.793   3.035   2.754 -0.4947 -0.1566 -0.0595
18172TIP3    H175931   5.774   3.090   2.678  4.6027  1.4828 -0.5373
18172TIP3    H275932   5.784   3.093   2.829  0.1249 -0.0350 -0.0696
18173TIP3   OH275933   5.158   5.569  15.259  0.4310 -0.4368 -0.1901
18173TIP3    H175934   5.163   5.523  15.176 -1.6852  0.0038 -0.6102
18173TIP3    H275935   5.125   5.505  15.321 -1.7954  0.2144 -0.6120
18174TIP3   OH275936   6.551   0.021   4.678  0.2513 -0.2556  0.4322
18174TIP3    H175937   6.536  -0.073   4.674  1.9539 -0.5366  0.0289
18174TIP3    H275938   6.607   0.034   4.754 -1.5544  0.7141  1.6993
18175TIP3   OH275939   3.798   1.471  12.381 -0.1788  0.4577  0.5495
18175TIP3    H175940   3.823   1.389  12.424 -0.4345  0.3659  0.5289
18175TIP3    H275941   3.873   1.495  12.327 -0.1137  0.2238  0.5371
18176TIP3   OH275942   5.487   1.929  11.560  0.1177  0.4133 -0.3373
18176TIP3    H175943   5.490   1.838  11.591  0.7288  0.4167 -0.3803
18176TIP3    H275944   5.516   1.981  11.635 -0.7195  0.6168 -0.1508
18177TIP3   OH275945   3.581   5.127  16.900  0.1587 -0.3746  0.0057
18177TIP3    H175946   3.668   5.104  16.869  0.0080 -1.2843  0.2199
18177TIP3    H275947   3.556   5.054  16.958 -1.0069 -0.4675 -0.5791
18178TIP3   OH275948   4.928   4.495  13.552 -0.2958 -0.0657 -0.1965
18178TIP3    H175949   4.874   4.419  13.529 -0.5822  0.4671 -1.3810
18178TIP3    H275950   5.014   4.474  13.516 -0.4382  0.2638 -0.7402
18179TIP3   OH275951   2.645   1.734   4.665  0.4907  0.6703 -0.5014
18179TIP3    H175952   2.629   1.681   4.743  0.2020  0.2160 -0.8685
18179TIP3    H275953   2.635   1.824   4.695 -0.0887  0.4828 -0.1166
18180TIP3   OH275954   4.182   3.623   5.471 -1.2280 -0.4304 -0.1281
18180TIP3    H175955   4.094   3.605   5.505 -0.6252  0.2419  1.9550
18180TIP3    H275956   4.192   3.562   5.398 -2.5774 -2.1857  1.0466
18181TIP3   OH275957   2.721   1.063  16.210  0.4471 -0.1506 -0.9863
18181TIP3    H175958   2.800   1.113  16.233  0.3165 -0.6204  0.6608
18181TIP3    H275959   2.755   0.982  16.172  0.6973  0.3511 -1.8708
18182TIP3   OH275960   6.151   3.205  13.117  0.1973  0.1750 -0.1725
18182TIP3    H175961   6.209   3.267  13.160  0.1847 -0.2130  0.4224
18182TIP3    H275962   6.075   3.200  13.174 -0.4002  0.6266 -0.9104
18183TIP3   OH275963   6.032   6.731   2.392  0.0440 -0.2063  0.3274
18183TIP3    H175964   6.008   6.789   2.464  0.9629  0.2608  0.2658
18183TIP3    H275965   5.953   6.679   2.377 -0.6326  0.6726  0.7145
18184TIP3   OH275966   4.404   3.034  15.649 -0.2769  0.1749  0.4488
18184TIP3    H175967   4.397   3.056  15.742  1.1466 -2.3351  1.2391
18184TIP3    H275968   4.489   3.069  15.622  0.5449 -1.4365  0.8597
18185TIP3   OH275969   1.557   4.616   2.221 -0.1618  0.2175  0.0581
18185TIP3    H175970   1.551   4.547   2.287  2.9106  0.1762  0.4262
18185TIP3    H275971   1.599   4.575   2.146 -0.2819  1.1827 -0.5555
18186TIP3   OH275972   3.837   4.496   1.422 -0.1735  0.3709 -0.2312
18186TIP3    H175973   3.839   4.588   1.398  0.5106  0.7328  1.0802
18186TIP3    H275974   3.899   4.489   1.494  0.6716 -1.3546 -1.0702
18187TIP3   OH275975   6.008   2.561   1.389  0.4354  0.6700 -0.3511
18187TIP3    H175976   5.987   2.616   1.313 -0.0185  0.1785 -0.5899
18187TIP3    H275977   6.042   2.480   1.350 -1.8539 -0.4730 -0.1387
18188TIP3   OH275978   5.102   4.344  12.368 -0.6463 -0.1559  0.4361
18188TIP3    H175979   5.030   4.282  12.358 -0.2122 -0.4766 -0.8009
18188TIP3    H275980   5.090   4.406  12.296 -1.3917  1.5601  1.9395
18189TIP3   OH275981   3.325   4.156  15.508 -0.7544 -0.7982  0.0574
18189TIP3    H175982   3.275   4.121  15.435 -1.0677 -1.0865  0.4067
18189TIP3    H275983   3.296   4.247  15.515  1.5896  0.2638 -2.2082
18190TIP3   OH275984   1.616   3.962  15.089  0.2067  0.2263  0.0930
18190TIP3    H175985   1.577   3.947  15.175  0.1229  0.6843  0.1404
18190TIP3    H275986   1.707   3.933  15.098 -0.1702 -1.0405 -0.0790
18191TIP3   OH275987   2.790   3.814   1.820 -0.1305 -0.0848 -0.0925
18191TIP3    H175988   2.810   3.734   1.867 -0.4856 -0.2123 -0.1598
18191TIP3    H275989   2.767   3.877   1.888 -0.0319 -0.0893 -0.0541
18192TIP3   OH275990   2.169   4.640  16.130 -0.2169  0.3795 -0.1567
18192TIP3    H175991   2.145   4.695  16.055 -0.9321  0.3564  0.0506
18192TIP3    H275992   2.235   4.691  16.177 -0.1073  0.5967 -0.5433
18193TIP3   OH275993   4.004   4.839   6.516  0.1088 -0.0872 -0.0448
18193TIP3    H175994   4.064   4.900   6.558 -0.6428  0.6694 -0.0383
18193TIP3    H275995   4.020   4.755   6.559  1.6174 -0.0647 -0.4988
18194TIP3   OH275996   6.387   0.943   2.885  0.4494 -0.4484  0.0244
18194TIP3    H175997   6.459   0.928   2.947  1.2711 -1.5688 -1.1524
18194TIP3    H275998   6.420   0.910   2.802 -0.3415  1.6547 -1.2043
18195TIP3   OH275999   4.929   3.052   5.392 -0.0182  0.3161  0.4958
18195TIP3    H176000   4.917   3.088   5.304  0.5525 -1.0763 -0.1912
18195TIP3    H276001   4.854   3.083   5.442 -0.9951  0.1385 -0.8179
18196TIP3   OH276002   4.462   1.022   0.413  0.0460 -0.2276  0.2240
18196TIP3    H176003   4.432   1.074   0.338 -2.2294 -0.2180  1.0444
18196TIP3    H276004   4.522   0.957   0.375 -0.0062  0.6119 -1.3826
18197TIP3   OH276005   4.569   0.226   5.751  0.4673  0.3022  0.0386
18197TIP3    H176006   4.576   0.241   5.845 -0.6633 -0.2723  0.2250
18197TIP3    H276007   4.532   0.308   5.717 -1.5770 -0.3931  0.4687
18198TIP3   OH276008   6.033   6.700   3.942 -0.1180 -0.3016 -0.1478
18198TIP3    H176009   6.001   6.623   3.895 -0.3870 -0.2877  0.0122
18198TIP3    H276010   5.963   6.722   4.003 -1.5517  2.0606 -2.4265
18199TIP3   OH276011   2.638   0.561   4.601  0.0195 -0.2283 -0.1997
18199TIP3    H176012   2.630   0.638   4.545  0.6332  0.0262  0.0495
18199TIP3    H276013   2.605   0.590   4.687  0.5000 -0.1564 -0.0358
18200TIP3   OH276014   6.535   0.367  13.585  0.3462  0.1313  0.4276
18200TIP3    H176015   6.547   0.365  13.680 -0.0854  0.9066  0.5037
18200TIP3    H276016   6.614   0.325  13.551 -0.0404 -1.2567  1.1577
18201TIP3   OH276017   5.582   0.122  16.253  0.1633 -0.3492  0.4981
18201TIP3    H176018   5.652   0.176  16.217  1.2754 -3.4517 -2.5548
18201TIP3    H276019   5.622   0.076  16.326  0.8658 -0.8352 -0.1677
18202TIP3   OH276020   6.592   4.174   1.296 -0.0294 -0.0904  0.3041
18202TIP3    H176021   6.597   4.088   1.337 -1.3520 -0.8792 -1.1194
18202TIP3    H276022   6.544   4.228   1.359 -0.7351 -0.8717  0.4438
18203TIP3   OH276023   3.068   0.944  13.560 -0.3079 -0.2767 -0.2181
18203TIP3    H176024   3.002   0.982  13.618 -0.5727 -0.9318 -0.0827
18203TIP3    H276025   3.068   1.000  13.483 -0.4665  0.1825  0.1140
18204TIP3   OH276026   0.757   0.499  14.241 -0.7831  0.4295 -0.0042
18204TIP3    H176027   0.666   0.526  14.248 -0.6554  0.6058  1.1836
18204TIP3    H276028   0.798   0.532  14.321  0.0055 -0.8768  0.1606
18205TIP3   OH276029   2.517   5.758  13.212  0.2363 -0.3115  0.3878
18205TIP3    H176030   2.483   5.834  13.165  0.4574  0.1188  0.9196
18205TIP3    H276031   2.570   5.712  13.147  1.9151  1.1756  0.6514
18206TIP3   OH276032   2.980   5.294   5.467  0.4107  0.3086 -0.4435
18206TIP3    H176033   2.889   5.278   5.494  0.1719 -1.4355 -2.0740
18206TIP3    H276034   3.013   5.208   5.444  3.0440  0.6464  1.5650
18207TIP3   OH276035   1.005   3.445   0.094  0.0912 -0.5030 -0.3889
18207TIP3    H176036   1.095   3.414   0.104  0.3303  0.2951  0.0332
18207TIP3    H276037   1.011   3.520   0.035 -0.1939 -0.0231  0.1748
18208TIP3   OH276038   1.438   4.407   0.748 -0.1802  0.1395  0.0928
18208TIP3    H176039   1.360   4.433   0.699  0.3808 -0.6103 -1.2654
18208TIP3    H276040   1.442   4.468   0.822 -1.1792  1.1953 -0.6867
18209TIP3   OH276041   0.045   6.297  16.162  0.0497 -0.6944  0.9857
18209TIP3    H176042   0.097   6.218  16.145  1.4159  0.3889 -0.0897
18209TIP3    H276043   0.008   6.282  16.249  2.8819 -1.1993  2.2519
18210TIP3   OH276044   3.487   5.176  12.073  0.1610 -0.0441 -0.0492
18210TIP3    H176045   3.461   5.248  12.016  0.0503 -0.9620 -1.1959
18210TIP3    H276046   3.432   5.187  12.151 -1.9408 -0.4898 -1.3783
18211TIP3   OH276047   0.262   4.018   6.039  0.9298 -0.0778  0.4096
18211TIP3    H176048   0.253   4.070   6.119  0.0324  0.1685  0.1664
18211TIP3    H276049   0.302   4.077   5.975  0.2185  0.2177  0.2308
18212TIP3   OH276050   5.806   5.633  12.570 -0.0356  0.6717  0.8346
18212TIP3    H176051   5.829   5.620  12.478 -2.3849  0.6347  0.2023
18212TIP3    H276052   5.748   5.709  12.570 -1.3646 -0.2806  2.0449
18213TIP3   OH276053   6.623   2.246   5.932  0.2123 -0.0161 -0.2997
18213TIP3    H176054   6.691   2.210   5.989 -1.9329 -3.2472  0.4705
18213TIP3    H276055   6.579   2.312   5.986 -0.3953 -1.4886  1.0880
18214TIP3   OH276056   3.580   5.408  12.907  0.5226 -0.0411  0.1732
18214TIP3    H176057   3.634   5.400  12.986 -0.5640 -2.6798  0.7906
18214TIP3    H276058   3.616   5.343  12.847  0.4416  0.9391 -0.9608
18215TIP3   OH276059   1.615   6.450   1.685 -0.0380  0.4353  0.3236
18215TIP3    H176060   1.661   6.367   1.697  0.4863  0.5399 -0.7700
18215TIP3    H276061   1.577   6.443   1.597 -1.0636  0.8618  0.7143
18216TIP3   OH276062   5.313   4.313  15.382  0.2133  0.2045  0.5104
18216TIP3    H176063   5.279   4.378  15.321  1.6276  0.8266  0.3441
18216TIP3    H276064   5.402   4.296  15.351  0.3599 -0.7397  1.4025
18217TIP3   OH276065   4.030   1.051  14.675  0.2859 -0.0268 -0.6019
18217TIP3    H176066   3.951   1.096  14.706  0.1834 -0.7473  0.1920
18217TIP3    H276067   4.092   1.122  14.657 -0.4430  0.5281 -0.9613
18218TIP3   OH276068   2.330   0.158  15.227 -0.5820 -0.2289 -0.0421
18218TIP3    H176069   2.420   0.186  15.207 -0.4247 -0.1908  0.6900
18218TIP3    H276070   2.328   0.065  15.205 -0.3871 -0.2098 -0.1435
18219TIP3   OH276071   1.158   5.369   0.956  0.2054 -0.3022 -0.0010
18219TIP3    H176072   1.139   5.437   0.892 -0.2463 -1.7376 -1.4358
18219TIP3    H276073   1.072   5.340   0.987  0.2847 -1.7269 -1.0501
18220TIP3   OH276074   5.398   3.548   6.194  0.0514  0.1149  0.3525
18220TIP3    H176075   5.310   3.540   6.233  1.2166 -2.2332  2.8528
18220TIP3    H276076   5.423   3.458   6.174  1.4565  0.8676 -1.5034
18221TIP3   OH276077   2.227   1.419   3.714 -0.3529  0.4561 -0.2704
18221TIP3    H176078   2.238   1.491   3.653  1.3788  0.8756  0.4908
18221TIP3    H276079   2.146   1.439   3.760 -1.2085  0.5967 -1.7591
18222TIP3   OH276080   1.367   3.105  16.635 -0.1739 -0.2937  0.3727
18222TIP3    H176081   1.415   3.087  16.715  1.5171  2.1625  0.0359
18222TIP3    H276082   1.369   3.201  16.627 -1.1352 -0.3969 -2.0964
18223TIP3   OH276083   3.380   3.154   0.536 -0.0817  0.3344 -0.4715
18223TIP3    H176084   3.346   3.151   0.625  0.6229 -1.8495 -0.2270
18223TIP3    H276085   3.465   3.110   0.541  0.2160  0.6517 -2.1329
18224TIP3   OH276086   2.098   4.387  16.121 -0.0070 -0.1636  0.1859
18224TIP3    H176087   2.138   4.474  16.107  0.7336 -0.6574 -0.9289
18224TIP3    H276088   2.034   4.401  16.190  0.5971  1.1323  0.5207
18225TIP3   OH276089   4.572   3.164  14.927  0.3308 -0.2006  0.7181
18225TIP3    H176090   4.558   3.259  14.934 -1.2921 -0.2627 -1.0580
18225TIP3    H276091   4.607   3.151  14.839  2.9320 -1.0833  1.7729
18226TIP3   OH276092   3.218   6.143   1.093 -0.1116  0.2634  0.0783
18226TIP3    H176093   3.131   6.114   1.064  0.5702  0.8057 -2.8415
18226TIP3    H276094   3.228   6.230   1.054  0.4451  1.7441  3.2575
18227TIP3   OH276095   0.272   5.772  13.926 -0.2051 -0.0959 -0.8069
18227TIP3    H176096   0.353   5.731  13.897 -0.4152 -1.1262  0.0174
18227TIP3    H276097   0.298   5.826  14.001 -0.1131  0.4428 -1.2175
18228TIP3   OH276098   1.203   1.427  14.537 -0.1077 -0.0437 -0.0378
18228TIP3    H176099   1.243   1.343  14.514 -3.2627 -1.2947 -1.4638
18228TIP3    H276100   1.118   1.426  14.495 -0.8524  3.3457  1.0525
18229TIP3   OH276101   0.170   5.957   0.768  0.1715  0.1995  0.0458
18229TIP3    H176102   0.128   6.042   0.784  0.5111  0.3753  0.0078
18229TIP3    H276103   0.114   5.894   0.813 -0.2620  0.4080 -0.1988
18230TIP3   OH276104   0.771   6.408   5.863  0.6635 -0.0270  0.0580
18230TIP3    H176105   0.753   6.333   5.807  3.3703  0.4744 -1.6663
18230TIP3    H276106   0.731   6.386   5.947 -1.6307 -1.8028 -1.3879
18231TIP3   OH276107   1.743   6.578  15.685 -0.0060 -0.3218 -0.7714
18231TIP3    H176108   1.698   6.632  15.751 -0.1950  0.5300 -1.5808
18231TIP3    H276109   1.798   6.518  15.736  1.7671  1.9543  0.1417
18232TIP3   OH276110   0.580   5.233   1.024 -0.5195  0.1588 -0.6498
18232TIP3    H176111   0.529   5.252   0.946 -1.4392  0.2439 -0.0438
18232TIP3    H276112   0.602   5.140   1.017 -0.0529  0.3154 -1.3103
18233TIP3   OH276113   6.068   1.901   0.671  0.0421 -0.2133 -0.3591
18233TIP3    H176114   6.159   1.924   0.656  0.7422 -1.7539  1.1509
18233TIP3    H276115   6.056   1.909   0.766 -1.7658  1.1657 -0.6633
18234TIP3   OH276116   0.345   0.376  12.824  0.1521 -0.0140  0.1126
18234TIP3    H176117   0.435   0.374  12.856  0.7980 -0.6585 -1.6529
18234TIP3    H276118   0.352   0.398  12.731 -1.1913 -3.4612 -0.9727
18235TIP3   OH276119   2.338   2.254   1.316  0.1518 -0.1044  0.4531
18235TIP3    H176120   2.418   2.285   1.357  0.9540 -1.1478 -0.2747
18235TIP3    H276121   2.283   2.226   1.389  0.7440 -0.0521  0.9265
18236TIP3   OH276122   6.152   0.847   1.385 -0.2086  0.4811  0.8359
18236TIP3    H176123   6.173   0.773   1.442  0.9392  0.8826  0.9573
18236TIP3    H276124   6.057   0.842   1.373 -0.1001 -1.3126  0.4174
18237TIP3   OH276125   2.589   6.380  16.135  0.3608 -0.0857 -0.0246
18237TIP3    H176126   2.597   6.390  16.230  1.2028 -1.1489  0.0430
18237TIP3    H276127   2.678   6.393  16.102  0.5262 -1.9339 -0.4093
18238TIP3   OH276128   3.777   3.216  11.813 -0.2361 -0.1194 -0.2369
18238TIP3    H176129   3.688   3.204  11.779  0.0704 -0.2623 -1.0011
18238TIP3    H276130   3.807   3.297  11.773  0.2778 -0.5020 -0.6369
18239TIP3   OH276131   3.993   6.105   3.309  0.0343 -0.2777  0.2175
18239TIP3    H176132   3.959   6.188   3.276 -0.0024  0.1954  1.3879
18239TIP3    H276133   4.000   6.050   3.232 -2.7812 -0.2094 -0.1978
18240TIP3   OH276134   2.238   5.850  16.745 -0.1179  0.4949  0.3371
18240TIP3    H176135   2.168   5.915  16.749  0.9322  1.7734 -0.8515
18240TIP3    H276136   2.236   5.807  16.831 -2.3064  0.4918  0.3279
18241TIP3   OH276137   1.331   5.615   0.500  0.0451  0.3325  0.4621
18241TIP3    H176138   1.359   5.615   0.591 -0.0076 -2.5494  0.5739
18241TIP3    H276139   1.383   5.545   0.459 -2.3055 -0.7738 -0.8507
18242TIP3   OH276140   6.278   1.002  15.087  0.2626 -0.2036 -0.2660
18242TIP3    H176141   6.236   0.916  15.081  0.8026 -0.6014  1.3460
18242TIP3    H276142   6.241   1.051  15.013 -2.3452 -0.8296  0.5227
18243TIP3   OH276143   3.367   2.315   6.091 -0.4019 -0.6521  0.6463
18243TIP3    H176144   3.442   2.342   6.037 -0.1512 -1.8182  0.3718
18243TIP3    H276145   3.398   2.323   6.181  0.6232 -2.5229  0.5212
18244TIP3   OH276146   0.806   3.727  13.906  0.0361  0.1451  0.1427
18244TIP3    H176147   0.853   3.713  13.988  1.1469  0.0636 -0.4938
18244TIP3    H276148   0.850   3.802  13.865 -0.9697  0.6526 -0.0580
18245TIP3   OH276149   1.302   2.425   2.404 -0.1519 -0.0503  0.1352
18245TIP3    H176150   1.377   2.418   2.463 -1.5959  0.2293  2.0922
18245TIP3    H276151   1.286   2.519   2.395  0.1936 -0.0733 -0.9480
18246TIP3   OH276152   0.574   0.492  10.446 -0.2483 -0.4200  0.0042
18246TIP3    H176153   0.627   0.499  10.526  1.4692  2.0716 -1.2230
18246TIP3    H276154   0.484   0.507  10.476  0.2385 -0.3451  1.5638
18247TIP3   OH276155   3.886   4.502   3.434 -0.7076  0.1196 -0.2383
18247TIP3    H176156   3.834   4.565   3.483 -0.2732  0.7514 -0.5832
18247TIP3    H276157   3.974   4.510   3.469 -1.2201 -2.6352  2.0287
18248TIP3   OH276158   2.287   2.080  10.498  0.2827  0.3440 -0.2762
18248TIP3    H176159   2.210   2.129  10.468  0.3408  0.2328 -0.6111
18248TIP3    H276160   2.280   1.995  10.454  1.5433  0.9588 -1.7643
18249TIP3   OH276161   2.497   2.378   6.028  0.0253  0.2332 -0.4075
18249TIP3    H176162   2.409   2.342   6.038  0.1967 -0.3989 -1.0372
18249TIP3    H276163   2.485   2.473   6.030 -0.7317  0.1609 -0.9245
18250TIP3   OH276164   1.765   3.355  11.376  0.3351  0.0936  0.3650
18250TIP3    H176165   1.702   3.426  11.360  0.1810 -0.1408 -0.0843
18250TIP3    H276166   1.788   3.323  11.289  1.6882  0.6931  0.4741
18251TIP3   OH276167   0.273   5.725  10.462 -0.0457  0.0615 -0.5837
18251TIP3    H176168   0.220   5.802  10.442 -1.6334 -0.9287 -0.3528
18251TIP3    H276169   0.243   5.696  10.548 -0.4773 -1.5977 -1.2435
18252TIP3   OH276170   1.763   2.138   4.338  1.1323  0.5115 -0.1172
18252TIP3    H176171   1.740   2.132   4.431 -0.5712  3.5598 -0.2154
18252TIP3    H276172   1.726   2.058   4.299 -1.2503  0.8108  1.3241
18253TIP3   OH276173   1.078   5.758  14.537 -0.1257 -0.2811  0.0414
18253TIP3    H176174   1.142   5.703  14.580  2.5969  2.1389 -0.5846
18253TIP3    H276175   1.081   5.841  14.586 -1.3948  0.5075 -1.1406
18254TIP3   OH276176   4.261   6.302   3.674 -0.5543 -0.1177 -0.3136
18254TIP3    H176177   4.288   6.266   3.589  3.1456  1.6805 -0.1066
18254TIP3    H276178   4.205   6.376   3.651  0.3570  0.3201 -1.1921
18255TIP3   OH276179   1.869   3.779   3.192 -0.7326 -0.6023 -0.2746
18255TIP3    H176180   1.913   3.861   3.170  0.8996 -1.1948  0.5960
18255TIP3    H276181   1.851   3.738   3.108  0.8157 -0.5313 -0.6622
18256TIP3   OH276182   1.859   0.159   2.164 -0.5323  0.3952 -0.0241
18256TIP3    H176183   1.833   0.247   2.190 -0.7929  0.6404 -1.0745
18256TIP3    H276184   1.800   0.137   2.092 -0.1739 -0.4608 -0.0635
18257TIP3   OH276185   4.404   1.538  14.438 -0.6882  0.4574 -0.0965
18257TIP3    H176186   4.362   1.609  14.390  0.0025  1.0917  0.2109
18257TIP3    H276187   4.431   1.476  14.370 -0.0408  1.1751 -0.5209
18258TIP3   OH276188   5.695   2.170   3.935  0.8614 -0.2494 -0.3107
18258TIP3    H176189   5.684   2.075   3.930  0.2084 -0.1722 -0.4941
18258TIP3    H276190   5.757   2.191   3.865 -1.5882 -0.1787 -2.6198
18259TIP3   OH276191   3.749   1.951  15.726 -0.1964  0.5365  0.1255
18259TIP3    H176192   3.778   1.955  15.635 -1.7904  0.2832 -0.4123
18259TIP3    H276193   3.709   1.865  15.735 -3.1860  1.8075  0.0427
18260TIP3   OH276194   5.849   6.541  13.989 -0.0153 -0.0729 -0.7600
18260TIP3    H176195   5.857   6.636  13.979  0.0408  0.0668  0.4647
18260TIP3    H276196   5.915   6.518  14.055 -0.2133 -0.9301 -0.8430
18261TIP3   OH276197   3.029   2.915   4.297  0.8995  0.7339  0.1419
18261TIP3    H176198   3.057   2.852   4.231 -3.3542 -1.3691 -0.0049
18261TIP3    H276199   3.023   2.865   4.378 -0.6171  1.4603  0.5126
18262TIP3   OH276200   4.035   0.825   0.369  1.1206  0.0974  0.0826
18262TIP3    H176201   4.030   0.898   0.308  3.0573 -1.3622 -2.0002
18262TIP3    H276202   4.078   0.861   0.447 -0.2009  1.6850  0.1267
18263TIP3   OH276203   0.800   0.702   5.046 -0.2253 -0.0701  0.3701
18263TIP3    H176204   0.834   0.787   5.075  1.4661 -0.3133 -0.7256
18263TIP3    H276205   0.739   0.676   5.115 -0.2999  1.7304  1.0474
18264TIP3   OH276206   4.655   5.579  13.343 -0.8540 -0.2762  0.1621
18264TIP3    H176207   4.676   5.668  13.316  1.4235 -0.0123  2.3854
18264TIP3    H276208   4.581   5.590  13.403 -1.6066 -0.1100 -0.7696
18265TIP3   OH276209   3.062   1.667   4.223  0.0134  0.1078  0.3927
18265TIP3    H176210   3.052   1.762   4.221  1.6391  0.3043  0.0411
18265TIP3    H276211   3.143   1.652   4.271 -0.0253 -1.0838  0.1215
18266TIP3   OH276212   6.413   6.140   2.254  0.2115  0.3730  0.1189
18266TIP3    H176213   6.459   6.093   2.185  0.7930 -0.5742  1.1335
18266TIP3    H276214   6.437   6.095   2.335  0.5926  2.2550  1.1133
18267TIP3   OH276215   2.965   2.161   1.593  0.0817  0.1946 -0.0306
18267TIP3    H176216   2.905   2.190   1.524  1.0853  1.1201 -0.5579
18267TIP3    H276217   3.000   2.077   1.561  1.9274  1.4671 -1.6164
18268TIP3   OH276218   0.012   0.380   0.476 -0.4728  0.3702 -0.4186
18268TIP3    H176219   0.044   0.358   0.388  1.9514 -1.9239  0.9038
18268TIP3    H276220   0.090   0.406   0.524 -1.3664 -0.5111  1.6316
18269TIP3   OH276221   4.700   1.536  17.011 -0.7097  0.8826 -0.6448
18269TIP3    H176222   4.633   1.545  16.943  1.5267  0.6154 -3.0147
18269TIP3    H276223   4.757   1.612  16.999 -0.2782  0.8636  1.0348
18270TIP3   OH276224   4.836   6.052  12.307 -0.0605 -0.0183  0.6735
18270TIP3    H176225   4.761   6.090  12.262  0.7111  0.9985  0.1958
18270TIP3    H276226   4.801   6.021  12.390 -1.1360 -0.2010  0.1632
18271TIP3   OH276227   2.165   3.099   5.694 -0.3846 -0.6445  0.2691
18271TIP3    H176228   2.107   3.051   5.752 -0.6100  1.7531  2.2273
18271TIP3    H276229   2.239   3.124   5.749  2.0040 -2.5264 -1.8352
18272TIP3   OH276230   4.021   3.774   0.529  0.3932 -0.7688 -0.0240
18272TIP3    H176231   4.112   3.803   0.527  0.1741  0.0334  0.9621
18272TIP3    H276232   4.012   3.729   0.613 -0.1341 -0.7887 -0.0905
18273TIP3   OH276233   3.811   3.401  12.064 -0.0344 -0.0038  0.4776
18273TIP3    H176234   3.885   3.345  12.087  0.3264  0.3646  0.2107
18273TIP3    H276235   3.774   3.360  11.985 -0.2095 -0.2654  0.6893
18274TIP3   OH276236   5.739   0.749  12.852 -0.0733  0.0593  0.1489
18274TIP3    H176237   5.674   0.731  12.920 -1.7282 -0.6358 -1.5674
18274TIP3    H276238   5.722   0.839  12.826 -1.1993 -0.5107 -1.1567
18275TIP3   OH276239   1.024   2.021  12.051 -0.0810 -0.1856  0.4075
18275TIP3    H176240   0.984   1.990  11.969 -1.1675  0.6708  0.5834
18275TIP3    H276241   1.080   2.093  12.024 -1.1749  0.7319  0.4809
18276TIP3   OH276242   5.068   0.518   4.392 -0.0225 -0.0786  0.0096
18276TIP3    H176243   5.113   0.562   4.464  1.0955 -2.0968  0.6331
18276TIP3    H276244   4.996   0.470   4.433 -1.2517  1.1437 -0.6554
18277TIP3   OH276245   2.858   4.104  14.086  0.0101  0.0329  0.5070
18277TIP3    H176246   2.911   4.024  14.087 -0.9543 -0.6694  2.7879
18277TIP3    H276247   2.835   4.118  14.178 -0.4220  2.5806  0.0655
18278TIP3   OH276248   1.695   4.510  13.523  0.4081  0.4900 -0.8903
18278TIP3    H176249   1.784   4.477  13.530  0.8551  1.5457 -1.3710
18278TIP3    H276250   1.657   4.495  13.610  0.6490 -1.0436 -1.0180
18279TIP3   OH276251   3.142   2.103  15.660 -0.4625  0.0553 -0.0532
18279TIP3    H176252   3.101   2.171  15.607 -2.0201 -0.7518  0.0565
18279TIP3    H276253   3.069   2.052  15.694  0.5823 -0.4736  1.4959
18280TIP3   OH276254   2.233   0.907   4.665  0.2127  0.3012  0.1133
18280TIP3    H176255   2.175   0.961   4.719 -0.2083 -0.9827  0.9881
18280TIP3    H276256   2.191   0.905   4.579 -0.2926  0.5371  0.3525
18281TIP3   OH276257   1.977   1.118   2.833 -0.2712 -0.1973  0.0676
18281TIP3    H176258   1.937   1.031   2.839  0.7613 -0.7930 -1.2254
18281TIP3    H276259   1.904   1.179   2.844 -1.0202 -1.2164  0.9418
18282TIP3   OH276260   1.623   1.945   0.285 -0.3697  0.6878  0.0385
18282TIP3    H176261   1.612   2.035   0.317  1.6504  1.0199 -0.0406
18282TIP3    H276262   1.618   1.953   0.190  0.1617  0.8005  0.0138
18283TIP3   OH276263   5.365   4.459  14.770  0.5529 -0.2177  0.0824
18283TIP3    H176264   5.279   4.422  14.792  1.1405 -1.6891  0.0089
18283TIP3    H276265   5.347   4.521  14.700 -0.2887 -1.5617 -0.9388
18284TIP3   OH276266   1.534   6.198   2.117  0.0455 -0.0999 -1.1409
18284TIP3    H176267   1.590   6.205   2.039  0.0716 -1.1579 -1.2380
18284TIP3    H276268   1.452   6.240   2.091  0.3972  0.4413 -1.3950
18285TIP3   OH276269   3.535   6.736   0.456  0.2153  0.0911 -0.5565
18285TIP3    H176270   3.460   6.688   0.422  0.6311 -1.3514  0.4586
18285TIP3    H276271   3.585   6.761   0.379  0.3516 -1.7562 -1.1208
18286TIP3   OH276272   4.565   6.255  13.476  0.1505  0.2405 -0.1434
18286TIP3    H176273   4.492   6.224  13.530 -1.1231 -0.1217 -1.9950
18286TIP3    H276274   4.608   6.176  13.445  0.7200  0.4414  0.1231
18287TIP3   OH276275   1.933   1.889  14.399  0.0095 -0.5960 -0.6310
18287TIP3    H176276   1.859   1.828  14.407  0.9368 -1.6501  0.1324
18287TIP3    H276277   2.005   1.835  14.367  0.8477  0.1022  0.0479
18288TIP3   OH276278   1.193   1.137   4.687  0.1612 -0.1344 -0.3384
18288TIP3    H176279   1.281   1.155   4.719  0.5139  0.2139 -1.4697
18288TIP3    H276280   1.136   1.193   4.740  0.5576 -0.7049  0.7113
18289TIP3   OH276281   0.995   6.800  16.681 -0.0630 -0.0163 -0.1514
18289TIP3    H176282   1.008   6.895  16.673 -0.2872  0.4077  3.1850
18289TIP3    H276283   0.903   6.790  16.704 -0.0062 -1.0483 -0.3442
18290TIP3   OH276284   6.661   2.127  14.939  0.4120  0.4452 -0.4251
18290TIP3    H176285   6.636   2.217  14.962 -0.4994  0.7592 -2.3867
18290TIP3    H276286   6.639   2.120  14.846  2.9428 -0.9854 -1.0064
18291TIP3   OH276287   6.455   4.612   3.206  0.4202  0.0310  0.7730
18291TIP3    H176288   6.416   4.691   3.242 -0.4383  0.0707 -0.2053
18291TIP3    H276289   6.393   4.542   3.228 -0.7134  0.2187 -1.5055
18292TIP3   OH276290   3.752   6.822   3.145 -0.1522 -0.3437 -0.2891
18292TIP3    H176291   3.666   6.814   3.185 -0.6085  1.3632 -0.8304
18292TIP3    H276292   3.747   6.768   3.066 -1.0078  0.3326 -0.7159
18293TIP3   OH276293   0.245   0.245  16.474 -0.2323  0.1902  0.1457
18293TIP3    H176294   0.340   0.236  16.475 -0.3007 -0.6779  0.0701
18293TIP3    H276295   0.225   0.302  16.548  0.2127 -1.3122  1.4848
18294TIP3   OH276296   2.220   1.994   3.221 -0.3262 -0.0846  0.4072
18294TIP3    H176297   2.185   2.071   3.177  0.0282 -0.3901 -0.4261
18294TIP3    H276298   2.225   2.019   3.313  2.2531  1.8715 -0.1439
18295TIP3   OH276299   2.021   3.755   2.332 -0.6527  0.2412  0.0985
18295TIP3    H176300   2.025   3.662   2.310 -1.4961  0.3300 -0.4715
18295TIP3    H276301   1.935   3.783   2.302 -0.7591  1.0061  1.0682
18296TIP3   OH276302   4.255   6.001   2.226 -0.6964  0.3583  0.1635
18296TIP3    H176303   4.260   5.909   2.198  0.7268 -0.1596  1.8680
18296TIP3    H276304   4.325   6.009   2.291 -2.3734  2.0176  1.8733
18297TIP3   OH276305   1.899   0.497   1.345 -0.3330  0.4802 -0.4375
18297TIP3    H176306   1.890   0.405   1.320  1.7355 -0.2318  1.0704
18297TIP3    H276307   1.959   0.534   1.280 -0.2304  0.4245 -0.3760
18298TIP3   OH276308   5.544   1.174   1.464 -0.4879  0.4341 -0.4115
18298TIP3    H176309   5.619   1.167   1.405  0.2728  1.3637  0.4056
18298TIP3    H276310   5.531   1.269   1.475 -1.1955  0.2769  0.1872
18299TIP3   OH276311   2.993   5.119   4.311  0.4578 -0.8589 -0.2514
18299TIP3    H176312   3.075   5.117   4.360  0.6788  0.1789 -0.5427
18299TIP3    H276313   2.941   5.048   4.348  1.8339 -2.1316 -0.6846
18300TIP3   OH276314   5.839   5.729  16.561  0.1628  0.2765 -0.1577
18300TIP3    H176315   5.830   5.648  16.513 -1.3519  0.3478 -0.0493
18300TIP3    H276316   5.895   5.784  16.507  1.5794 -0.9821 -0.0124
18301TIP3   OH276317   0.854   1.568  14.582 -0.2460  0.8268 -0.1696
18301TIP3    H176318   0.936   1.572  14.633  0.4136  1.7823 -1.2448
18301TIP3    H276319   0.861   1.487  14.532 -0.5814  0.2299  0.7355
18302TIP3   OH276320   0.739   4.101  16.027 -0.6856 -0.1859  0.0734
18302TIP3    H176321   0.823   4.145  16.038 -0.7588 -0.2814  1.0311
18302TIP3    H276322   0.758   4.008  16.042 -0.6389 -0.4398 -1.4007
18303TIP3   OH276323   1.806   6.815  10.688 -0.3587 -0.3187  0.1783
18303TIP3    H176324   1.886   6.826  10.637 -0.7635  3.0016  0.0403
18303TIP3    H276325   1.836   6.784  10.773  0.6908 -2.2394 -0.8228
18304TIP3   OH276326   5.105   4.877   0.802 -0.9591  0.3157  0.0767
18304TIP3    H176327   5.145   4.952   0.758  0.5553 -0.0441  0.7840
18304TIP3    H276328   5.059   4.830   0.733 -1.0598  1.3313 -0.5643
18305TIP3   OH276329   4.346   5.796   5.417  0.2610 -0.1557  0.4750
18305TIP3    H176330   4.279   5.757   5.472  0.0925  1.5585  1.5467
18305TIP3    H276331   4.427   5.787   5.467  0.2878  0.4797  0.5583
18306TIP3   OH276332   6.494   0.017   5.088  0.5288 -0.8000  0.5424
18306TIP3    H176333   6.582   0.044   5.062 -0.2846  0.3999 -1.0986
18306TIP3    H276334   6.441   0.096   5.080 -1.2510 -2.0844 -1.2507
18307TIP3   OH276335   1.704   6.487  12.472 -0.1164 -0.7186  0.7004
18307TIP3    H176336   1.658   6.544  12.411  0.2179 -1.1570  0.0244
18307TIP3    H276337   1.755   6.546  12.527  1.0218 -0.3999 -0.6435
18308TIP3   OH276338   5.336   4.754   5.002  0.0209  0.7169  0.0519
18308TIP3    H176339   5.264   4.813   4.978 -0.2881  0.2490 -0.1753
18308TIP3    H276340   5.356   4.777   5.093  0.6146  1.9014 -0.3457
18309TIP3   OH276341   1.141   3.052   3.165 -0.1156 -0.0297 -0.1355
18309TIP3    H176342   1.182   3.137   3.150 -0.0178  0.1967  1.2436
18309TIP3    H276343   1.085   3.038   3.089  4.6646 -1.7766 -3.9284
18310TIP3   OH276344   3.511   4.532   3.668 -0.3112  0.4481  0.5754
18310TIP3    H176345   3.592   4.579   3.645 -1.0637  0.3702 -2.7169
18310TIP3    H276346   3.521   4.447   3.627 -1.0748 -0.5255  2.2972
18311TIP3   OH276347   0.995   4.887   4.224  0.4263  0.4934 -0.0112
18311TIP3    H176348   1.000   4.953   4.293 -0.5081 -1.0378  1.5733
18311TIP3    H276349   0.978   4.938   4.144 -2.6219  2.0880  1.4783
18312TIP3   OH276350   0.012   1.043   0.177  0.1539 -0.0095  0.0801
18312TIP3    H176351  -0.069   1.084   0.146  0.0786  0.5746  1.0227
18312TIP3    H276352  -0.016   0.990   0.252  0.9317  1.8647  1.7702
18313TIP3   OH276353   3.088   4.371   2.735 -0.6420 -0.2553  0.1723
18313TIP3    H176354   3.160   4.418   2.777  1.5351 -3.2770  0.1326
18313TIP3    H276355   3.038   4.333   2.807 -0.2449 -0.8131  0.1604
18314TIP3   OH276356   4.200   2.726   1.580 -0.3994 -0.1409  0.3963
18314TIP3    H176357   4.213   2.783   1.505  0.6388 -0.4189  0.3501
18314TIP3    H276358   4.200   2.785   1.655 -0.8531  0.0725  0.2331
18315TIP3   OH276359   5.106   6.009   0.600 -0.0138  0.8367  0.6747
18315TIP3    H176360   5.081   6.076   0.536  0.8081  0.2419 -0.2961
18315TIP3    H276361   5.090   6.050   0.685 -2.6960  1.0713  0.1366
18316TIP3   OH276362   6.415   1.430  13.024  0.4137  0.2567 -0.4680
18316TIP3    H176363   6.362   1.368  12.973 -1.5538  1.3901  0.0943
18316TIP3    H276364   6.441   1.381  13.102 -0.8612  0.0349 -0.1716
18317TIP3   OH276365   4.457   6.672  16.650  0.2009 -0.1503 -0.4694
18317TIP3    H176366   4.370   6.705  16.630 -0.4881 -1.5735  0.0213
18317TIP3    H276367   4.487   6.631  16.569  0.1376 -0.2469 -0.4429
18318TIP3   OH276368   5.415   6.390  10.793  0.1994 -0.7931 -0.8235
18318TIP3    H176369   5.502   6.379  10.756  0.2072 -0.7044 -0.8313
18318TIP3    H276370   5.372   6.306  10.779  0.5721 -1.1239 -0.0457
18319TIP3   OH276371   0.300   3.400   3.686 -0.0120  0.3416 -0.0955
18319TIP3    H176372   0.363   3.371   3.620 -0.5416 -2.3772  0.4457
18319TIP3    H276373   0.270   3.318   3.727 -2.4718  1.6707  0.9499
18320TIP3   OH276374   3.039   3.320  12.303 -0.1272  0.3394 -0.0710
18320TIP3    H176375   3.108   3.274  12.350  0.4809  0.8617 -0.4319
18320TIP3    H276376   2.960   3.304  12.353 -0.2549 -2.4104 -1.0076
18321TIP3   OH276377   6.551   3.164  17.079  0.2799  0.0537  0.0567
18321TIP3    H176378   6.633   3.118  17.062 -0.7016 -1.6328 -0.3832
18321TIP3    H276379   6.528   3.139  17.169 -0.7619 -1.2196 -0.5209
18322TIP3   OH276380   1.174   2.618  15.272  0.7898 -0.2747  0.5183
18322TIP3    H176381   1.234   2.557  15.229 -0.6350 -1.8174  0.6317
18322TIP3    H276382   1.164   2.584  15.361  0.4912  0.5267  0.8032
18323TIP3   OH276383   1.979   1.901  16.344  0.1668  0.0339 -0.1689
18323TIP3    H176384   2.016   1.974  16.293  1.9789  0.0499  1.0466
18323TIP3    H276385   2.038   1.828  16.326 -0.0407 -0.3675  0.7388
18324TIP3   OH276386   2.347   6.478   2.486 -0.1641 -0.3763 -0.6103
18324TIP3    H176387   2.323   6.540   2.418 -0.0834  1.2034  0.7512
18324TIP3    H276388   2.393   6.408   2.439 -0.5692  0.3973 -2.2265
18325TIP3   OH276389   0.389   1.754   2.629 -0.8157 -0.2012 -0.2076
18325TIP3    H176390   0.357   1.798   2.550  2.0874 -3.1965 -3.4143
18325TIP3    H276391   0.466   1.804   2.654 -0.0147 -0.8927 -1.2014
18326TIP3   OH276392   0.667   2.877  11.144 -0.2289  0.3562  0.3253
18326TIP3    H176393   0.649   2.873  11.050  2.4158  0.3402 -0.2610
18326TIP3    H276394   0.657   2.787  11.174 -0.8846  0.3225  0.0234
18327TIP3   OH276395   4.600   3.195  11.054 -0.0273  0.4540 -0.3386
18327TIP3    H176396   4.677   3.176  11.108  0.6248  0.8234 -1.1269
18327TIP3    H276397   4.635   3.211  10.966 -1.0889 -0.3382 -0.9290
18328TIP3   OH276398   0.334   5.857   5.405  0.6541 -0.1843 -0.1267
18328TIP3    H176399   0.276   5.785   5.429 -2.4355  2.2330  0.1943
18328TIP3    H276400   0.328   5.864   5.310 -0.9867  1.0870  0.0387
18329TIP3   OH276401   5.131   0.403  11.665 -0.2613 -0.2691 -0.6213
18329TIP3    H176402   5.168   0.480  11.708 -3.3362  1.0575 -0.0925
18329TIP3    H276403   5.157   0.329  11.721  2.6828  0.2717 -1.1012
18330TIP3   OH276404   4.089   5.090  14.130  0.4077  0.2987  0.1376
18330TIP3    H176405   4.077   5.020  14.066 -0.4138  0.4014  0.1626
18330TIP3    H276406   4.184   5.104  14.133  0.6470 -1.2543  0.6316
18331TIP3   OH276407   5.237   6.136   5.047  0.1787 -0.6735 -0.3707
18331TIP3    H176408   5.297   6.167   4.980 -0.1373 -0.3632 -0.5117
18331TIP3    H276409   5.265   6.181   5.127 -0.1547 -0.1724 -0.5330
18332TIP3   OH276410   1.358   3.287   1.621 -0.4662 -0.2372 -0.0360
18332TIP3    H176411   1.445   3.305   1.587 -0.1643  0.1891  0.9338
18332TIP3    H276412   1.336   3.363   1.674 -1.6931 -0.0618 -0.7557
18333TIP3   OH276413   2.354   4.830  15.144  0.1469 -0.1322  0.4826
18333TIP3    H176414   2.402   4.841  15.226  0.4160  1.5260  0.1384
18333TIP3    H276415   2.293   4.904  15.142 -0.3905 -0.5871 -0.4540
18334TIP3   OH276416   2.830   0.798   1.904 -0.3015 -0.5135  0.2747
18334TIP3    H176417   2.741   0.766   1.886  0.4519 -1.4434 -2.1907
18334TIP3    H276418   2.840   0.874   1.848 -0.2117  0.9406  2.1554
18335TIP3   OH276419   0.609   4.795   2.429 -0.1288 -0.7162  0.0011
18335TIP3    H176420   0.557   4.777   2.508 -2.6999 -0.8540 -1.6320
18335TIP3    H276421   0.575   4.735   2.363  1.3419  0.0058 -1.4869
18336TIP3   OH276422   1.943   3.307   3.959 -0.2966 -0.1188  0.1751
18336TIP3    H176423   1.973   3.268   4.041 -1.2356  0.7290  0.9384
18336TIP3    H276424   1.970   3.244   3.892  0.5997 -0.7639  1.1047
18337TIP3   OH276425   5.321   5.621   0.872  0.9693 -0.5520  0.9957
18337TIP3    H176426   5.377   5.543   0.862  0.5607 -0.7548  0.1946
18337TIP3    H276427   5.252   5.609   0.807  0.7595  0.3645  1.0412
18338TIP3   OH276428   4.487   3.583   2.073 -0.0763 -0.1749  0.5903
18338TIP3    H176429   4.519   3.656   2.126  0.5324  0.1408 -0.1994
18338TIP3    H276430   4.533   3.506   2.106 -1.1032 -0.3121  1.7760
18339TIP3   OH276431   4.878   6.679  14.198 -0.1169  0.3465  0.3111
18339TIP3    H176432   4.788   6.712  14.205 -0.6093 -1.2351  2.1698
18339TIP3    H276433   4.884   6.647  14.108 -1.4182  0.4771  0.1525
18340TIP3   OH276434   2.491   5.819  12.692 -0.1890  0.3095  0.2030
18340TIP3    H176435   2.503   5.894  12.633  1.3216 -0.7509 -0.9060
18340TIP3    H276436   2.502   5.856  12.780 -0.5431  1.5668 -0.2530
18341TIP3   OH276437   2.293   0.028  14.009  0.4589  0.6442 -0.5877
18341TIP3    H176438   2.239   0.103  14.032 -1.2802 -0.9962  1.0569
18341TIP3    H276439   2.347   0.012  14.087  1.2908  0.5636 -1.1631
18342TIP3   OH276440   5.480   3.257  13.923  0.1552 -0.2013  0.5799
18342TIP3    H176441   5.395   3.285  13.957 -0.4903 -2.7815  1.3695
18342TIP3    H276442   5.459   3.212  13.841  0.8431 -0.1328  0.3657
18343TIP3   OH276443   0.521   4.914  13.923 -0.4863 -0.2726  0.0065
18343TIP3    H176444   0.589   4.971  13.888 -0.1826 -0.1690  0.7502
18343TIP3    H276445   0.471   4.887  13.846 -0.9554  1.3963 -0.3313
18344TIP3   OH276446   1.912   4.426   3.913 -0.4413 -0.4994  0.6914
18344TIP3    H176447   1.963   4.507   3.900 -0.9821 -0.3156 -0.4221
18344TIP3    H276448   1.937   4.370   3.839 -1.1770 -0.7543  0.6285
18345TIP3   OH276449   4.336   0.463   0.136  0.0095  0.1089 -0.1977
18345TIP3    H176450   4.424   0.435   0.108 -0.1346  1.2658 -1.9106
18345TIP3    H276451   4.277   0.403   0.090 -0.1306 -0.6120  0.8871
18346TIP3   OH276452   6.481   3.474  12.323 -0.3561  0.0752 -0.8261
18346TIP3    H176453   6.472   3.569  12.323 -0.6584  0.0523 -0.3318
18346TIP3    H276454   6.515   3.453  12.411 -0.5316 -0.2887 -0.8413
18347TIP3   OH276455   6.201   2.961  13.673 -0.3978 -0.0020  0.2261
18347TIP3    H176456   6.209   2.868  13.693  0.2155 -0.1967 -0.8005
18347TIP3    H276457   6.217   2.966  13.578 -2.6188  0.8913 -0.1545
18348TIP3   OH276458   4.680   3.118  13.689  0.1063  0.5775 -0.4310
18348TIP3    H176459   4.590   3.130  13.721  0.9373  2.0776  1.6083
18348TIP3    H276460   4.684   3.026  13.665 -2.2314  0.6786 -1.5042
18349TIP3   OH276461   6.356   0.277   5.050  0.1296 -0.1216  0.0132
18349TIP3    H176462   6.384   0.365   5.074 -2.8696  1.0861 -0.4187
18349TIP3    H276463   6.293   0.253   5.118  0.2746 -1.6032 -0.3419
18350TIP3   OH276464   0.580   0.239  17.046 -0.1058  0.0966 -0.4146
18350TIP3    H176465   0.567   0.144  17.049 -0.7968  0.2082  0.3999
18350TIP3    H276466   0.611   0.255  16.956  0.8906 -0.9885 -0.3013
18351TIP3   OH276467   5.547   2.615   3.526  0.2081 -0.3761 -0.1568
18351TIP3    H176468   5.599   2.692   3.549 -0.6078  0.6715 -1.6872
18351TIP3    H276469   5.547   2.562   3.606  2.4619  0.2240  0.3112
18352TIP3   OH276470   2.796   4.899  15.275 -0.2200  0.5147  0.3554
18352TIP3    H176471   2.740   4.936  15.343 -0.3663  0.5599  0.2126
18352TIP3    H276472   2.884   4.897  15.314 -0.5744 -1.0760  1.1758
18353TIP3   OH276473   0.060   3.558   2.350  0.6538 -0.6798 -0.2314
18353TIP3    H176474  -0.036   3.553   2.355  0.4516  0.0521 -2.2594
18353TIP3    H276475   0.090   3.470   2.372 -0.4057 -0.6959  1.3160
18354TIP3   OH276476   2.640   3.483  14.941 -0.3502  0.1947 -0.2635
18354TIP3    H176477   2.625   3.545  15.012  0.6573  0.9324 -0.6689
18354TIP3    H276478   2.625   3.397  14.981  0.9541  0.5387  1.0795
18355TIP3   OH276479   2.299   4.310   2.401  0.3214 -0.2864 -0.6015
18355TIP3    H176480   2.236   4.300   2.330  0.2442 -2.1152 -0.3056
18355TIP3    H276481   2.250   4.291   2.480  1.0939 -1.1271 -0.3126
18356TIP3   OH276482   0.708   6.152   5.746 -0.4576  0.3288 -0.2323
18356TIP3    H176483   0.651   6.134   5.820  0.3418 -0.3449  0.2446
18356TIP3    H276484   0.750   6.068   5.728 -0.8435  0.4197 -1.6343
18357TIP3   OH276485   0.663   3.495  11.595 -0.0304  0.4575 -0.5383
18357TIP3    H176486   0.633   3.500  11.504  0.4900 -0.3582 -0.7608
18357TIP3    H276487   0.758   3.506  11.590  0.1898 -1.0664 -0.2611
18358TIP3   OH276488   6.742   1.503   0.589  0.4480 -0.0762  0.4341
18358TIP3    H176489   6.802   1.429   0.600 -0.4644 -0.9497 -0.2465
18358TIP3    H276490   6.799   1.575   0.560  1.3486 -0.4979  1.0861
18359TIP3   OH276491   1.166   5.322  11.510  0.2495 -0.6782 -0.2596
18359TIP3    H176492   1.076   5.292  11.514 -0.7443  1.9653 -0.2957
18359TIP3    H276493   1.203   5.279  11.433 -1.3083 -1.0565 -0.8239
18360TIP3   OH276494   4.136   5.767  15.705  0.2316 -0.3502  0.6013
18360TIP3    H176495   4.041   5.773  15.712  0.1538  0.0286 -0.5480
18360TIP3    H276496   4.157   5.810  15.622  1.4409 -0.1303  0.9888
18361TIP3   OH276497   5.938   1.415  11.417 -0.4900  0.1960 -0.5282
18361TIP3    H176498   5.915   1.463  11.337  0.2011  0.9563 -0.2893
18361TIP3    H276499   5.919   1.324  11.397 -2.9218  0.6627 -0.6069
18362TIP3   OH276500   5.423   1.934  16.536 -0.2673  0.3417 -0.3122
18362TIP3    H176501   5.347   1.876  16.532  1.3753 -1.9050 -1.2253
18362TIP3    H276502   5.397   2.011  16.485 -1.8811 -0.3931 -0.6759
18363TIP3   OH276503   3.005   4.416   1.657 -0.4602 -0.6308 -0.3050
18363TIP3    H176504   2.917   4.437   1.686  0.1875 -1.7778  2.8189
18363TIP3    H276505   2.996   4.333   1.610 -0.9409 -1.3197  0.9569
18364TIP3   OH276506   1.324   4.101  15.952 -0.2339  0.3074  0.0275
18364TIP3    H176507   1.363   4.018  15.981  0.1901 -0.0905 -1.5708
18364TIP3    H276508   1.354   4.111  15.862  0.5587  2.7288  0.4934
18365TIP3   OH276509   1.539   3.594  13.551  0.1983  0.7798 -0.1361
18365TIP3    H176510   1.545   3.648  13.472 -0.3689 -1.6252 -1.9490
18365TIP3    H276511   1.620   3.545  13.552  0.3548  1.0425  1.0259
18366TIP3   OH276512   0.324   2.512  13.698 -0.6059 -0.0929 -0.0869
18366TIP3    H176513   0.401   2.488  13.646 -0.6528  0.7548 -0.5659
18366TIP3    H276514   0.359   2.569  13.767 -0.9621  1.3409 -1.0639
18367TIP3   OH276515   6.142   0.210   3.399  0.4718  0.0503  0.2750
18367TIP3    H176516   6.204   0.211   3.472  1.7776  0.1364 -0.7942
18367TIP3    H276517   6.113   0.119   3.394 -1.0736  0.4056  2.0458
18368TIP3   OH276518   0.093   3.565  11.475  0.3524  0.1353  0.0025
18368TIP3    H176519   0.038   3.490  11.454  0.1431  0.1196  0.5767
18368TIP3    H276520   0.180   3.528  11.487  0.0174 -0.2342  1.5611
18369TIP3   OH276521   5.253   1.097   1.716  0.3103  1.5571 -0.1097
18369TIP3    H176522   5.315   1.164   1.688  0.8077  0.0408 -2.9656
18369TIP3    H276523   5.291   1.014   1.687 -2.2946  0.4338 -0.6555
18370TIP3   OH276524   0.635   2.754  16.471 -0.6673  0.1012  0.2553
18370TIP3    H176525   0.686   2.833  16.488 -1.1622  0.5593 -0.3410
18370TIP3    H276526   0.698   2.683  16.479  0.1945  0.6891 -0.9427
18371TIP3   OH276527   3.117   2.463   6.103  0.5288  0.4926 -0.2686
18371TIP3    H176528   3.190   2.418   6.061  0.1010 -1.4327  0.9079
18371TIP3    H276529   3.145   2.474   6.194  0.2240  1.8076 -0.3116
18372TIP3   OH276530   4.320   6.030   5.649  0.3300 -0.8232 -0.6568
18372TIP3    H176531   4.308   5.937   5.670 -0.7301 -0.1955  1.9818
18372TIP3    H276532   4.260   6.076   5.708  2.8895  1.6968  0.2316
18373TIP3   OH276533   4.514   4.446  11.383  0.3350 -0.3346 -0.0206
18373TIP3    H176534   4.521   4.385  11.456 -1.3829  1.7092  2.0361
18373TIP3    H276535   4.574   4.517  11.406  0.5458 -0.1295 -1.1513
18374TIP3   OH276536   3.975   3.313  14.111  0.4692  0.4646 -0.3850
18374TIP3    H176537   3.928   3.338  14.032 -1.6809 -0.3279  0.5731
18374TIP3    H276538   4.006   3.224  14.093 -0.2520  0.1821 -0.2525
18375TIP3   OH276539   0.971   4.464  12.435  0.4169  0.0499  0.0278
18375TIP3    H176540   0.878   4.475  12.414  0.1981  0.7170  1.2236
18375TIP3    H276541   0.973   4.466  12.531  1.3846 -2.3345  0.1224
18376TIP3   OH276542   6.786   0.183  15.243  0.0898 -0.2883  0.1739
18376TIP3    H176543   6.761   0.113  15.303 -1.2514  0.0738  0.0656
18376TIP3    H276544   6.736   0.165  15.163 -2.0985  1.9808  0.8908
18377TIP3   OH276545   2.111   5.922   1.704  0.3129  0.0444  0.3441
18377TIP3    H176546   2.122   5.888   1.616 -0.7896  1.3494 -0.3474
18377TIP3    H276547   2.038   5.871   1.741  0.5653 -0.2854  0.3878
18378TIP3   OH276548   3.646   0.989  14.278 -0.4196  0.8126 -0.3166
18378TIP3    H176549   3.603   0.932  14.214 -2.8010  3.8052 -1.5765
18378TIP3    H276550   3.599   0.974  14.360  1.4890 -1.7083  0.4544
18379TIP3   OH276551   4.984   0.272   2.934 -0.1403  0.2661 -0.4034
18379TIP3    H176552   5.058   0.305   2.883  0.9663 -2.4769 -0.7237
18379TIP3    H276553   4.945   0.204   2.879 -2.1133  0.7242  0.3376
18380TIP3   OH276554   4.249   5.070   6.207  0.0589  0.3254  0.1938
18380TIP3    H176555   4.344   5.081   6.210  0.2471 -0.3839 -1.7210
18380TIP3    H276556   4.217   5.114   6.285  1.9874  0.2601  1.0674
18381TIP3   OH276557   4.891   2.150   1.823  0.6493 -0.6534  0.0882
18381TIP3    H176558   4.819   2.119   1.879  0.3215 -1.2047 -0.6223
18381TIP3    H276559   4.884   2.245   1.826  2.1249 -0.5222  2.9325
18382TIP3   OH276560   0.420   6.694   4.087  0.2058 -0.2007 -0.4277
18382TIP3    H176561   0.354   6.626   4.101 -0.7059  0.8753  0.6462
18382TIP3    H276562   0.372   6.766   4.047  0.7174  0.5854  0.3459
18383TIP3   OH276563   4.526   4.685  11.757 -0.2994 -0.5444  0.1612
18383TIP3    H176564   4.529   4.780  11.748 -0.0485 -0.5557  0.1094
18383TIP3    H276565   4.457   4.657  11.697  0.0491 -0.4499 -0.2870
18384TIP3   OH276566   3.769   0.573  10.585 -0.0655  0.4135 -0.3865
18384TIP3    H176567   3.763   0.667  10.600  1.3128  0.3430  0.7292
18384TIP3    H276568   3.692   0.536  10.629 -1.2957  1.0897 -1.8776
18385TIP3   OH276569   2.631   1.311   1.102 -0.0785  0.0918  0.9483
18385TIP3    H176570   2.695   1.320   1.032 -0.8876 -0.4756  0.1098
18385TIP3    H276571   2.683   1.297   1.181  0.8758  1.7583  0.6580
18386TIP3   OH276572   6.228   4.938  14.150  0.2812 -0.1060  0.4183
18386TIP3    H176573   6.163   4.995  14.109  1.7330  0.9426 -0.4746
18386TIP3    H276574   6.178   4.891  14.218 -0.9990  2.1066  1.1235
18387TIP3   OH276575   1.186   0.043  12.775 -0.3225  0.4248 -0.0090
18387TIP3    H176576   1.173   0.122  12.724 -0.3723  1.4706  1.5594
18387TIP3    H276577   1.157  -0.028  12.718 -0.1823  1.5150 -1.4801
18388TIP3   OH276578   2.659   2.004   6.096 -0.4780 -0.2560  0.2315
18388TIP3    H176579   2.586   1.958   6.138 -0.7213 -0.1933 -0.1129
18388TIP3    H276580   2.727   1.937   6.086 -0.0242 -0.0423  1.6238
18389TIP3   OH276581   1.281   0.429  12.005  0.4351 -0.0879 -0.6293
18389TIP3    H176582   1.350   0.416  12.069  1.2599 -2.5275 -1.8809
18389TIP3    H276583   1.325   0.425  11.920 -0.8759  1.1325 -1.4233
18390TIP3   OH276584   0.092   6.006   3.005  0.7299  0.0480  0.0844
18390TIP3    H176585   0.006   5.970   2.981 -0.2534  1.0414  1.8847
18390TIP3    H276586   0.106   5.976   3.094  1.7673  0.7691  0.1816
18391TIP3   OH276587   5.572   5.870  12.438 -0.4341 -0.3558  0.3331
18391TIP3    H176588   5.666   5.856  12.433 -0.2208  0.9484  0.1504
18391TIP3    H276589   5.539   5.848  12.351 -0.3590 -1.1788  0.5116
18392TIP3   OH276590   5.386   5.821  16.120 -0.0436  0.0132  0.7414
18392TIP3    H176591   5.473   5.860  16.133 -0.5890  0.8156  2.2640
18392TIP3    H276592   5.330   5.866  16.184 -0.9581 -2.4916  1.8343
18393TIP3   OH276593   4.633   2.083   0.532  0.3107  0.2755  0.3515
18393TIP3    H176594   4.656   2.058   0.621 -0.4327  2.6660  1.2726
18393TIP3    H276595   4.570   2.154   0.542  0.3217  0.7223 -2.0912
18394TIP3   OH276596   1.946   6.351   2.361  0.0199  0.5963  0.0417
18394TIP3    H176597   1.989   6.418   2.308 -0.2895  0.9646  0.2537
18394TIP3    H276598   1.858   6.345   2.325  0.4436 -0.6707 -0.8576
18395TIP3   OH276599   4.073   4.492  11.981  0.4649  0.0188 -0.0293
18395TIP3    H176600   4.139   4.500  11.913  0.1843 -2.0675 -0.6184
18395TIP3    H276601   4.037   4.580  11.990  1.6961  0.6988 -1.3354
18396TIP3   OH276602   5.773   5.845  14.346 -0.4352  0.2090  0.2915
18396TIP3    H176603   5.803   5.830  14.256 -2.6975 -0.0823 -0.4778
18396TIP3    H276604   5.678   5.831  14.342 -0.3761 -1.6641  3.1381
18397TIP3   OH276605   1.697   6.720   5.632  0.0760  0.6874  0.1383
18397TIP3    H176606   1.656   6.797   5.591 -0.3058  0.6112  0.3802
18397TIP3    H276607   1.716   6.748   5.721  2.4541  1.4351 -0.5315
18398TIP3   OH276608   0.439   2.050   5.180 -0.3784 -0.2948 -0.4739
18398TIP3    H176609   0.423   1.985   5.249 -2.6375  0.5868 -0.1025
18398TIP3    H276610   0.372   2.033   5.114 -0.4671  1.1023 -0.7819
18399TIP3   OH276611   1.323   2.718  14.978  0.2720 -0.0423  0.6147
18399TIP3    H176612   1.313   2.625  14.957  1.3684 -0.2465  0.9095
18399TIP3    H276613   1.255   2.735  15.043 -1.4580 -0.0368 -1.1235
18400TIP3   OH276614   1.935   4.487  15.092  0.2298  0.2999  0.3579
18400TIP3    H176615   1.909   4.522  15.178  0.7361  0.3745  0.4823
18400TIP3    H276616   1.972   4.563  15.047 -0.7021  0.4334 -0.2030
18401TIP3   OH276617   5.087   6.077  16.913 -0.3893  0.7338 -0.5939
18401TIP3    H176618   5.018   6.012  16.925  0.2663  0.2704  0.9476
18401TIP3    H276619   5.051   6.156  16.954 -0.4609  0.8188 -0.8225
18402TIP3   OH276620   2.381   2.175   4.762  0.2053 -0.5483 -0.3244
18402TIP3    H176621   2.328   2.245   4.800 -1.5084 -1.4760 -0.9143
18402TIP3    H276622   2.365   2.181   4.668  1.6151 -0.5117 -0.5880
18403TIP3   OH276623   5.823   5.506   5.379 -0.1880 -0.6984 -0.1332
18403TIP3    H176624   5.768   5.461   5.442  0.1913  0.5428  1.1318
18403TIP3    H276625   5.906   5.522   5.425  0.5600 -0.8658 -1.3609
18404TIP3   OH276626   6.087   3.221  11.807  0.2096  0.7329 -0.0057
18404TIP3    H176627   6.076   3.283  11.879 -2.1857  0.4416 -0.0193
18404TIP3    H276628   6.113   3.275  11.733  1.2343  1.2452  0.6936
18405TIP3   OH276629   0.975   2.801  16.986  0.3604  0.3527 -0.5415
18405TIP3    H176630   1.041   2.739  17.017 -1.5589 -2.7364 -2.0933
18405TIP3    H276631   1.011   2.834  16.904 -0.4652 -2.5042 -2.2034
18406TIP3   OH276632   2.363   1.774  16.798 -0.1954  0.1389  0.4070
18406TIP3    H176633   2.310   1.800  16.722 -1.6573 -0.3988  1.2179
18406TIP3    H276634   2.305   1.718  16.850  1.5726 -1.5286  0.7011
18407TIP3   OH276635   6.024   0.164  13.362  0.3459  0.1185  0.4602
18407TIP3    H176636   6.018   0.078  13.404 -0.4864 -1.4540 -2.5462
18407TIP3    H276637   5.934   0.196  13.361  0.1985 -0.2785 -0.7912
18408TIP3   OH276638   2.979   6.129   1.313 -0.5033 -0.6499 -0.4692
18408TIP3    H176639   2.965   6.058   1.250  0.8363 -0.5975 -0.8427
18408TIP3    H276640   2.895   6.176   1.314 -1.5069 -2.3726 -0.0078
18409TIP3   OH276641   6.810   0.138  16.648  0.3632  0.6548 -0.5775
18409TIP3    H176642   6.715   0.149  16.656  0.0568  0.1721 -2.8195
18409TIP3    H276643   6.824   0.043  16.652  0.6312  0.6661 -1.0774
18410TIP3   OH276644   0.825   6.725   5.856 -0.4166 -0.5923  0.0273
18410TIP3    H176645   0.840   6.783   5.781  0.2683 -1.4846 -0.5328
18410TIP3    H276646   0.752   6.766   5.903 -1.1637 -0.2719 -1.3677
18411TIP3   OH276647   0.823   4.721   1.252 -0.1638  0.4440 -0.7181
18411TIP3    H176648   0.900   4.663   1.249 -0.5628 -0.0744 -1.3825
18411TIP3    H276649   0.754   4.670   1.209 -1.4034  0.1368  1.5098
18412TIP3   OH276650   1.938   0.121  12.936 -0.1079 -0.1243  0.4572
18412TIP3    H176651   2.005   0.072  12.985  0.3408 -0.0496 -0.0703
18412TIP3    H276652   1.906   0.186  12.999 -0.3053 -0.7216  0.9842
18413TIP3   OH276653   6.138   3.670   4.507 -0.0920  0.0430 -0.0296
18413TIP3    H176654   6.217   3.715   4.480 -0.5601  1.3392  0.6730
18413TIP3    H276655   6.135   3.681   4.602 -0.4537 -1.1188  0.1161
18414TIP3   OH276656   2.353   2.753   2.491  0.2975 -0.5068  0.5955
18414TIP3    H176657   2.445   2.731   2.481 -0.2412 -2.9426  0.3024
18414TIP3    H276658   2.334   2.737   2.584  0.2685  0.4446  0.7591
18415TIP3   OH276659   2.724   6.003   3.057  0.0285 -0.5393  0.1573
18415TIP3    H176660   2.805   5.994   3.008 -0.1023  1.7450 -0.5859
18415TIP3    H276661   2.745   5.968   3.144  1.4293 -1.0743 -0.3675
18416TIP3   OH276662   1.467   0.807  12.105 -0.1391 -0.1217  0.2136
18416TIP3    H176663   1.414   0.861  12.163 -0.7589 -0.8881  0.3804
18416TIP3    H276664   1.557   0.833  12.123 -0.3351 -0.1810  1.3583
18417TIP3   OH276665   0.631   1.559   2.340  0.3087  0.3512  0.4365
18417TIP3    H176666   0.553   1.552   2.395  0.2842  1.4399  0.5716
18417TIP3    H276667   0.606   1.519   2.257 -0.3774  0.6138  0.5099
18418TIP3   OH276668   2.938   2.231  14.337  0.6117 -0.1758  0.1642
18418TIP3    H176669   2.958   2.274  14.254  1.6455 -0.2776  0.3496
18418TIP3    H276670   2.842   2.233  14.342  0.5856  1.3902 -0.2044
18419TIP3   OH276671   0.115   1.150   3.533 -0.0454  0.2373  0.0109
18419TIP3    H176672   0.071   1.234   3.547 -0.6752 -0.0287 -0.3373
18419TIP3    H276673   0.175   1.167   3.460 -1.6428 -0.1141 -1.4633
18420TIP3   OH276674   6.029   2.191  10.968  0.0403 -0.4385 -0.0769
18420TIP3    H176675   6.049   2.099  10.951  2.6541 -0.1505  1.0523
18420TIP3    H276676   5.970   2.189  11.044  0.2592 -1.1563  0.0752
18421TIP3   OH276677   1.080   3.740   1.227 -0.0735  0.3514  0.4119
18421TIP3    H176678   1.017   3.771   1.292 -0.3378 -1.2236  0.9462
18421TIP3    H276679   1.070   3.645   1.228  0.2801  0.2549 -1.5815
18422TIP3   OH276680   5.696   1.331  10.568  0.0225 -0.2908 -0.4288
18422TIP3    H176681   5.627   1.283  10.522 -0.8468  0.3721  0.1448
18422TIP3    H276682   5.660   1.348  10.655  1.5074 -1.2279  0.4004
18423TIP3   OH276683   2.805   1.765  15.552 -0.4400 -0.6771 -0.6463
18423TIP3    H176684   2.761   1.824  15.491 -0.6727  0.1988  0.3376
18423TIP3    H276685   2.896   1.762  15.521  0.2994  2.4452  0.8043
18424TIP3   OH276686   0.112   2.095   2.490 -0.3467  1.4954  0.0406
18424TIP3    H176687   0.138   2.067   2.578 -2.0329 -0.3289  0.0270
18424TIP3    H276688   0.191   2.133   2.452  1.2177 -0.3213  1.3117
18425TIP3   OH276689   2.522   1.645   4.897  0.1232  0.5953 -0.2279
18425TIP3    H176690   2.531   1.558   4.936  2.4663  0.7306 -0.2863
18425TIP3    H276691   2.506   1.703   4.972  2.0612  0.5156  0.3279
18426TIP3   OH276692   6.389   2.774  16.976  0.5218  0.7449 -0.1182
18426TIP3    H176693   6.312   2.792  17.031  0.6215 -2.3830  1.2411
18426TIP3    H276694   6.361   2.797  16.887 -2.1208 -0.5228  0.2922
18427TIP3   OH276695   0.884   0.412  14.748 -0.3178 -0.1792 -0.0934
18427TIP3    H176696   0.896   0.329  14.794 -0.7662 -0.5123 -0.5711
18427TIP3    H276697   0.941   0.474  14.795 -1.1686 -0.3715  1.2658
18428TIP3   OH276698   2.518   6.151  13.796  0.1176  0.3982 -0.3278
18428TIP3    H176699   2.494   6.244  13.798  0.9521  0.6461 -1.0917
18428TIP3    H276700   2.611   6.150  13.772  0.3798 -0.6049  0.6340
18429TIP3   OH276701   6.206   0.746  11.493  0.0259 -0.6375 -0.0400
18429TIP3    H176702   6.253   0.721  11.414 -1.5996 -0.3305 -1.1715
18429TIP3    H276703   6.131   0.687  11.496 -0.8868  0.5005  0.2763
18430TIP3   OH276704   2.174   4.898  13.390  0.2019 -0.1935 -0.3984
18430TIP3    H176705   2.143   4.861  13.307 -1.6956  0.8968 -0.2444
18430TIP3    H276706   2.258   4.939  13.369  0.6348 -1.5199 -1.3434
18431TIP3   OH276707   3.710   4.855  13.450  0.0658 -0.7763 -0.0822
18431TIP3    H176708   3.739   4.868  13.540 -0.2673  0.2810 -0.1158
18431TIP3    H276709   3.628   4.905  13.443  1.8943  2.2704 -1.9545
18432TIP3   OH276710   4.981   0.669   0.337  0.0095  0.2692  0.0378
18432TIP3    H176711   4.910   0.623   0.291 -0.6621  0.3716  0.9255
18432TIP3    H276712   5.038   0.701   0.268 -1.7455  1.7107 -0.8516
18433TIP3   OH276713   1.728   6.633  13.488  0.3004 -0.6200  0.2033
18433TIP3    H176714   1.775   6.662  13.409 -0.4091  0.2108  0.0639
18433TIP3    H276715   1.663   6.702  13.503  1.0090 -0.2961  2.0595
18434TIP3   OH276716   5.601   2.924   5.443 -0.0126 -0.0149 -0.5167
18434TIP3    H176717   5.622   2.833   5.463  0.8336  0.4633  0.9140
18434TIP3    H276718   5.568   2.959   5.525  2.0642  1.6317 -0.3175
18435TIP3   OH276719   6.527   0.569   4.216 -0.2492  0.1742 -0.4655
18435TIP3    H176720   6.569   0.634   4.160 -0.6852  0.0406 -0.9510
18435TIP3    H276721   6.573   0.487   4.197 -1.3305 -0.1754 -1.7055
18436TIP3   OH276722   1.934   2.144   2.725 -0.0870 -0.4188 -0.3654
18436TIP3    H176723   1.889   2.168   2.644 -0.3065  0.0852 -0.0990
18436TIP3    H276724   1.906   2.209   2.789  0.3799 -0.5841  0.0206
18437TIP3   OH276725   6.804   0.777   4.831  0.3102 -0.2492 -0.4742
18437TIP3    H176726   6.879   0.718   4.843  0.7863 -0.1069 -2.3410
18437TIP3    H276727   6.807   0.835   4.907  1.5098 -0.8624 -0.0209
18438TIP3   OH276728   2.110   4.460   0.851 -1.0657 -0.0724  0.3265
18438TIP3    H176729   2.023   4.436   0.821 -0.4682 -0.8873 -0.7960
18438TIP3    H276730   2.168   4.441   0.778  0.0609  0.5165  1.0263
18439TIP3   OH276731   3.272   0.462   2.020 -0.1229  0.0907  0.0519
18439TIP3    H176732   3.237   0.420   1.942  1.2058 -0.3102 -0.3575
18439TIP3    H276733   3.355   0.501   1.992 -0.3439  1.2596  0.9101
18440TIP3   OH276734   3.075   3.195  12.541  0.0611  0.1720 -0.5703
18440TIP3    H176735   3.096   3.170  12.631 -2.2182  1.5732  0.4371
18440TIP3    H276736   3.073   3.113  12.493  1.9640 -0.5477  0.4592
18441TIP3   OH276737   6.285   4.619   0.778 -0.2750  0.3768  0.6310
18441TIP3    H176738   6.354   4.554   0.763 -0.9083  0.0399 -1.0164
18441TIP3    H276739   6.332   4.695   0.813  0.8739 -0.0266  0.0253
18442TIP3   OH276740   4.814   0.084  10.794 -0.1447  0.1369  0.2646
18442TIP3    H176741   4.828   0.014  10.731 -1.4427 -0.7030  0.8659
18442TIP3    H276742   4.730   0.122  10.769 -0.6470 -0.1746  1.4474
18443TIP3   OH276743   0.908   5.949   5.669  0.6495 -0.7130  0.1405
18443TIP3    H176744   0.947   5.897   5.739  0.1970  0.1091  1.0433
18443TIP3    H276745   0.982   5.984   5.620  0.9585 -2.5982 -0.8195
18444TIP3   OH276746   6.464   2.213  13.345 -0.0363 -0.4920  0.3481
18444TIP3    H176747   6.510   2.288  13.307 -1.6757 -0.0263 -0.8083
18444TIP3    H276748   6.407   2.251  13.412 -0.3733 -0.7974  0.2348
18445TIP3   OH276749   3.231   6.703  15.947  0.0433  0.3939  0.7714
18445TIP3    H176750   3.154   6.738  15.992  1.0905  1.5996  1.7408
18445TIP3    H276751   3.289   6.675  16.018  0.3156 -0.9434  0.0528
18446TIP3   OH276752   1.937   2.671   1.664 -0.2088  0.1662 -0.6531
18446TIP3    H176753   1.916   2.629   1.581  0.3822 -2.7929  0.5839
18446TIP3    H276754   1.860   2.656   1.719 -0.0169  0.8311 -0.1861
18447TIP3   OH276755   2.497   2.549  16.459 -0.2894 -0.6666  0.0227
18447TIP3    H176756   2.430   2.480  16.452  0.4224 -1.3886  0.1215
18447TIP3    H276757   2.473   2.598  16.538  1.2284 -3.0981  2.1521
18448TIP3   OH276758   4.050   0.863  10.556  0.0561 -0.6644 -0.1420
18448TIP3    H176759   3.970   0.859  10.608  0.1519  0.0020  0.0660
18448TIP3    H276760   4.119   0.887  10.619  0.4884 -1.5814 -0.2509
18449TIP3   OH276761   4.419   5.564   4.525 -0.4478 -0.1489 -0.6479
18449TIP3    H176762   4.460   5.479   4.536 -0.2682 -0.0782 -0.7607
18449TIP3    H276763   4.403   5.595   4.614  1.3622  0.6034 -0.5318
18450TIP3   OH276764   2.095   6.049   4.980  0.0088  0.1788  0.7499
18450TIP3    H176765   2.102   5.992   4.904  0.2508 -2.0958  2.3977
18450TIP3    H276766   2.017   6.019   5.026 -0.3900  1.8164  1.2320
18451TIP3   OH276767   6.694   4.858   3.131 -0.4172  0.1599 -0.2462
18451TIP3    H176768   6.670   4.859   3.223 -0.5469  0.6715 -0.2805
18451TIP3    H276769   6.734   4.944   3.115  0.9874 -0.4801 -0.3153
18452TIP3   OH276770   0.091   6.115   4.564 -0.0464 -0.2203 -0.8814
18452TIP3    H176771   0.130   6.068   4.490 -0.2282  1.1351 -1.8684
18452TIP3    H276772   0.165   6.140   4.618  0.2765  0.3571 -1.5688
18453TIP3   OH276773   4.496   6.113  11.478  0.2160 -0.0216  0.2735
18453TIP3    H176774   4.522   6.038  11.424 -1.2079 -0.8758  0.7198
18453TIP3    H276775   4.477   6.075  11.564 -0.3823  0.8721  0.5487
18454TIP3   OH276776   2.674   0.204  12.352 -0.5567  0.4506  0.4211
18454TIP3    H176777   2.592   0.185  12.398 -0.3765  0.3478  0.7007
18454TIP3    H276778   2.725   0.123  12.360 -0.8192  0.1587 -0.6029
18455TIP3   OH276779   3.449   4.144   1.906 -0.2754 -0.2833  0.5789
18455TIP3    H176780   3.367   4.101   1.884  0.2591 -0.7056 -0.6730
18455TIP3    H276781   3.513   4.073   1.913  0.2977  0.1615 -0.0009
18456TIP3   OH276782   0.650   2.077   1.136 -0.1722 -0.6452  0.0119
18456TIP3    H176783   0.731   2.109   1.176 -0.0240 -0.3812 -0.4937
18456TIP3    H276784   0.674   2.059   1.045 -0.2383 -2.2430  0.2813
18457TIP3   OH276785   4.444   2.346   5.865 -0.5552  0.3179 -0.4030
18457TIP3    H176786   4.390   2.382   5.936 -0.2125  0.7774 -0.3711
18457TIP3    H276787   4.420   2.399   5.789 -0.5370  0.1700 -0.5104
18458TIP3   OH276788   6.683   3.492   1.730  0.5351  0.0869  0.2029
18458TIP3    H176789   6.728   3.556   1.785 -0.6687 -0.9557  2.5529
18458TIP3    H276790   6.591   3.500   1.756  0.0655 -1.1322 -0.9843
18459TIP3   OH276791   4.087   2.303   0.219 -0.0124 -0.3080  0.0119
18459TIP3    H176792   3.999   2.277   0.190  0.3520 -1.3595 -0.1980
18459TIP3    H276793   4.099   2.390   0.182 -0.6089 -0.5371 -0.7601
18460TIP3   OH276794   2.081   4.739   5.125  0.2442 -0.2709 -0.0285
18460TIP3    H176795   2.131   4.657   5.121  1.3519  0.3111  1.0181
18460TIP3    H276796   2.013   4.722   5.190  1.2380 -0.0036  1.1207
18461TIP3   OH276797   1.361   6.294   0.788 -0.1691 -0.6863 -0.0052
18461TIP3    H176798   1.317   6.356   0.730  1.5861 -0.1915 -0.8790
18461TIP3    H276799   1.332   6.208   0.757 -0.4483 -0.3818 -0.6074
18462TIP3   OH276800   6.192   4.037   0.415  0.0951  0.3153 -0.6343
18462TIP3    H176801   6.234   4.113   0.453  0.1612 -0.5974  1.2354
18462TIP3    H276802   6.256   4.001   0.354  2.6974 -1.6600  2.8858
18463TIP3   OH276803   2.355   4.070   2.188  0.2290 -0.3860 -0.1971
18463TIP3    H176804   2.361   4.148   2.243  1.3830  0.7970 -1.9016
18463TIP3    H276805   2.415   4.007   2.228 -1.0540 -0.6293  1.4549
18464TIP3   OH276806   0.146   5.864  10.705  0.0473  0.2797 -0.0792
18464TIP3    H176807   0.148   5.769  10.720  0.8769  0.3768  0.5232
18464TIP3    H276808   0.137   5.901  10.793  1.1963  0.7805 -0.1499
18465TIP3   OH276809   3.136   3.487   1.073  0.2243  0.3568 -0.0999
18465TIP3    H176810   3.132   3.566   1.127  1.8221  0.4550 -0.0760
18465TIP3    H276811   3.229   3.465   1.071 -0.1097 -1.0684 -0.7742
18466TIP3   OH276812   6.253   2.691  13.639  0.0230 -0.3367 -0.3967
18466TIP3    H176813   6.256   2.630  13.566  0.8272  1.2725 -1.7664
18466TIP3    H276814   6.345   2.706  13.662 -0.2114 -0.8976  1.0548
18467TIP3   OH276815   5.209   1.769  15.181 -0.5465  0.2166  0.2386
18467TIP3    H176816   5.174   1.734  15.263 -0.2456 -0.4720  0.0792
18467TIP3    H276817   5.273   1.703  15.152  0.0610  0.9142 -0.0469
18468TIP3   OH276818   2.675   1.378   0.005 -0.7085  0.0318 -0.0943
18468TIP3    H176819   2.686   1.284  -0.012  2.0687  0.4614 -1.2921
18468TIP3    H276820   2.755   1.403   0.052 -0.8334  2.0072 -0.8377
18469TIP3   OH276821   2.312   4.584  11.499 -0.3824 -0.0704  0.3814
18469TIP3    H176822   2.330   4.514  11.562 -1.4334  1.7014  2.8118
18469TIP3    H276823   2.218   4.599  11.508 -0.2936  1.1806 -0.6245
18470TIP3   OH276824   1.064   4.184   3.215 -0.0896  0.0808  1.1308
18470TIP3    H176825   1.020   4.131   3.149 -0.8621  1.4526  0.4939
18470TIP3    H276826   1.034   4.273   3.198 -0.2066  0.5032  3.2572
18471TIP3   OH276827   0.467   3.691   0.260 -0.5731  0.5606 -0.3672
18471TIP3    H176828   0.468   3.644   0.344 -1.4496 -0.1509 -0.7422
18471TIP3    H276829   0.489   3.624   0.195  0.0875  1.1075 -0.7229
18472TIP3   OH276830   5.880   3.119   4.151  0.1976  0.5445  0.1190
18472TIP3    H176831   5.880   3.178   4.227 -3.7939  0.2385  0.5869
18472TIP3    H276832   5.817   3.158   4.091 -0.4014 -1.7248 -0.8215
18473TIP3   OH276833   2.511   3.308  11.524  0.4951 -0.1632 -0.7013
18473TIP3    H176834   2.429   3.263  11.502 -0.3554  1.3709 -0.8522
18473TIP3    H276835   2.567   3.294  11.448  0.1322 -0.6992 -0.8769
18474TIP3   OH276836   3.943   0.202   0.788  0.2514 -0.0078 -0.0461
18474TIP3    H176837   3.997   0.124   0.797 -1.6134 -1.3137  0.7176
18474TIP3    H276838   3.918   0.204   0.696 -0.9844 -1.3060  0.2196
18475TIP3   OH276839   2.541   1.295  13.854  0.3139 -0.5379 -0.1495
18475TIP3    H176840   2.477   1.228  13.878  0.9466 -0.9779  0.3913
18475TIP3    H276841   2.550   1.349  13.933  0.3839 -0.2958 -0.3205
18476TIP3   OH276842   6.645   3.691  12.032 -0.2546 -0.0170 -0.0474
18476TIP3    H176843   6.702   3.654  11.964  0.4272  2.2577 -0.7868
18476TIP3    H276844   6.556   3.680  11.997 -0.0450 -0.5417 -0.4371
18477TIP3   OH276845   6.392   0.763   3.986  0.6371 -0.7532 -0.3216
18477TIP3    H176846   6.299   0.759   3.962  0.5282 -1.3778  0.1629
18477TIP3    H276847   6.393   0.805   4.072  0.5970 -2.5520  0.6017
18478TIP3   OH276848   4.281   6.022  16.064  0.0358 -0.2464  0.2331
18478TIP3    H176849   4.304   6.022  16.157 -0.3663 -0.6688  0.3364
18478TIP3    H276850   4.279   5.929  16.040 -1.4561 -0.2268  0.2084
18479TIP3   OH276851   1.113   3.482   5.390 -0.4435 -0.1795  0.2926
18479TIP3    H176852   1.078   3.401   5.426 -0.4933 -0.2358  0.1158
18479TIP3    H276853   1.205   3.482   5.417  0.2839 -1.5822 -1.9135
18480TIP3   OH276854   4.745   4.924   1.341  0.5322 -0.3675  0.1183
18480TIP3    H176855   4.663   4.898   1.383  0.6401 -0.8310  0.0462
18480TIP3    H276856   4.810   4.861   1.374  1.1019  0.6790  1.0610
18481TIP3   OH276857   6.246   6.506   0.803  0.3934 -0.6167 -0.1633
18481TIP3    H176858   6.331   6.480   0.767 -0.3167 -0.9531 -1.7011
18481TIP3    H276859   6.183   6.473   0.739 -0.8105  0.8389  0.2240
18482TIP3   OH276860   0.598   0.774   4.755 -0.1299  0.7195  0.0851
18482TIP3    H176861   0.562   0.801   4.671  0.0150 -0.8220 -0.4958
18482TIP3    H276862   0.672   0.718   4.733  0.5068  1.0691  1.2525
18483TIP3   OH276863   4.928   2.419   1.809  0.2211 -0.1500 -0.0456
18483TIP3    H176864   4.956   2.477   1.739  0.7403  1.2317  1.2408
18483TIP3    H276865   4.871   2.473   1.864  0.7099 -0.8235  1.1745
18484TIP3   OH276866   4.331   0.906  16.066 -0.4015 -0.3090  0.0555
18484TIP3    H176867   4.318   0.862  16.149  0.1949  0.8949  0.8255
18484TIP3    H276868   4.418   0.946  16.074  0.1844 -1.1631 -1.6116
18485TIP3   OH276869   2.526   1.402  11.079 -0.8617  0.2750 -0.2272
18485TIP3    H176870   2.590   1.355  11.027  0.1927  0.3803  0.9384
18485TIP3    H276871   2.531   1.493  11.048  1.9260  1.0041  1.9547
18486TIP3   OH276872   6.758   0.505   5.097  0.3458 -0.0560  0.2057
18486TIP3    H176873   6.807   0.495   5.015  2.4975  0.2756  1.3948
18486TIP3    H276874   6.709   0.586   5.085 -0.5896 -0.7745 -1.2891
18487TIP3   OH276875   6.771   0.690  14.377  0.5549 -0.0586  0.0503
18487TIP3    H176876   6.710   0.763  14.386 -0.4327 -0.8854  0.2696
18487TIP3    H276877   6.760   0.639  14.457 -0.3162 -1.5674 -0.9836
18488TIP3   OH276878   5.893   0.354   3.395  0.3364 -0.5943  0.1843
18488TIP3    H176879   5.979   0.313   3.401  0.6758  0.0838  0.1074
18488TIP3    H276880   5.839   0.306   3.457  0.3725 -1.9733 -0.8183
18489TIP3   OH276881   5.869   4.812  16.992  0.8119  0.3578 -0.1005
18489TIP3    H176882   5.862   4.720  17.019  0.2061  0.4767  0.1617
18489TIP3    H276883   5.811   4.819  16.917  2.1094  0.1487 -1.1639
18490TIP3   OH276884   3.065   0.906  13.019  0.1379 -1.0284  0.4277
18490TIP3    H176885   3.153   0.920  13.052  0.0774  1.4433 -0.2299
18490TIP3    H276886   3.008   0.918  13.095  0.2462  0.0161  0.3518
18491TIP3   OH276887   5.898   6.286  13.582 -0.4517 -0.0090 -0.3949
18491TIP3    H176888   5.968   6.236  13.540  0.8315  2.2537 -1.1201
18491TIP3    H276889   5.884   6.242  13.666  1.5203 -0.8093 -0.4319
18492TIP3   OH276890   3.120   3.468  13.749  0.3636 -0.5207 -0.6660
18492TIP3    H176891   3.154   3.524  13.819  2.0362  1.3036 -2.7867
18492TIP3    H276892   3.196   3.417  13.721 -0.0939 -0.6905 -1.6296
18493TIP3   OH276893   6.061   4.666   3.706  0.0295  0.2694  0.1659
18493TIP3    H176894   5.982   4.708   3.739 -0.0402  1.0314 -0.9547
18493TIP3    H276895   6.047   4.573   3.724 -1.4102  0.3122 -0.5883
18494TIP3   OH276896   2.672   3.842   6.287 -0.2122 -0.0103 -0.4413
18494TIP3    H176897   2.588   3.809   6.319 -0.1647  0.6935  0.4332
18494TIP3    H276898   2.720   3.764   6.260 -1.0792 -0.4331 -0.8006
18495TIP3   OH276899   3.666   2.899   3.831 -0.2700  0.2473 -0.0295
18495TIP3    H176900   3.691   2.828   3.889 -1.2146  1.3374  1.8174
18495TIP3    H276901   3.586   2.869   3.789 -0.9752  0.3891  1.1631
18496TIP3   OH276902   3.781   3.637  11.167  0.6768 -0.5519  0.0381
18496TIP3    H176903   3.768   3.659  11.075  0.3596 -0.7605  0.0307
18496TIP3    H276904   3.867   3.594  11.170 -0.1948 -2.4416 -0.5145
18497TIP3   OH276905   0.205   1.226   2.344 -0.0286  0.2328  0.3395
18497TIP3    H176906   0.187   1.142   2.302  1.1700 -0.0273  0.3093
18497TIP3    H276907   0.194   1.290   2.274  0.9153 -0.0930 -0.1235
18498TIP3   OH276908   2.714   6.529  15.057 -0.2954  0.5060 -0.4140
18498TIP3    H176909   2.773   6.458  15.084  0.1733 -0.0694 -2.7615
18498TIP3    H276910   2.754   6.608  15.092 -0.2026 -0.2401  1.2661
18499TIP3   OH276911   6.688   1.192   4.224  0.1235  1.0059 -0.4977
18499TIP3    H176912   6.630   1.259   4.261 -0.7382 -0.1188  0.2435
18499TIP3    H276913   6.731   1.153   4.299 -0.6753 -0.4215 -0.7537
18500TIP3   OH276914   2.835   5.819   5.452 -0.1820 -0.2798  0.2339
18500TIP3    H176915   2.833   5.760   5.376 -1.3628  0.7332 -0.5485
18500TIP3    H276916   2.779   5.775   5.516  0.5410 -0.9714  0.4100
18501TIP3   OH276917   4.384   5.950   5.974 -0.4177  0.0824 -0.2154
18501TIP3    H176918   4.412   5.984   5.889  0.8640  1.8218  0.8387
18501TIP3    H276919   4.441   5.875   5.990 -0.7962 -0.3692 -0.9569
18502TIP3   OH276920   5.889   3.077  12.887  0.1350  0.5091 -0.5128
18502TIP3    H176921   5.968   3.102  12.839  0.0462 -1.0903 -1.5571
18502TIP3    H276922   5.854   3.002  12.839 -0.5074 -0.5726  1.5100
18503TIP3   OH276923   5.065   0.359  10.932 -0.1020  0.0220 -0.1050
18503TIP3    H176924   5.099   0.349  11.021 -2.2221 -0.1836  0.7325
18503TIP3    H276925   5.122   0.424  10.892  2.0368 -1.2335  0.7586
18504TIP3   OH276926   3.988   1.752  12.992  0.1890  0.4876 -0.6139
18504TIP3    H176927   3.976   1.775  12.899 -0.9456  1.7842 -0.1757
18504TIP3    H276928   4.052   1.816  13.024  1.2897 -0.5426 -0.7023
18505TIP3   OH276929   5.845   0.269  16.234  0.4899 -0.2930  0.3883
18505TIP3    H176930   5.905   0.255  16.161 -0.3581 -0.9850 -0.2000
18505TIP3    H276931   5.861   0.359  16.262  0.3659  0.2078 -1.0929
18506TIP3   OH276932   3.341   1.227   4.765  0.2001  0.2285  0.4113
18506TIP3    H176933   3.299   1.144   4.787  0.1018  0.5247  1.3672
18506TIP3    H276934   3.303   1.291   4.825  0.0319  1.0486 -0.5240
18507TIP3   OH276935   6.582   1.862  14.406 -0.0849  0.0901  0.3857
18507TIP3    H176936   6.563   1.780  14.362 -0.0819  0.9858 -1.3828
18507TIP3    H276937   6.603   1.837  14.497  1.5387 -1.9928 -0.4841
18508TIP3   OH276938   3.718   6.687   0.678  0.0053  0.4746  0.2332
18508TIP3    H176939   3.805   6.680   0.638  0.5293  0.4158  1.3249
18508TIP3    H276940   3.657   6.676   0.606  0.8636 -2.1160 -0.2282
18509TIP3   OH276941   1.119   3.677   0.769 -0.5235  0.3004 -0.7229
18509TIP3    H176942   1.157   3.711   0.850 -0.9738  0.1695 -0.4483
18509TIP3    H276943   1.032   3.647   0.795  0.4335 -2.6811 -0.5380
18510TIP3   OH276944   0.805   4.567  16.758  0.3174  0.7906  0.1847
18510TIP3    H176945   0.838   4.498  16.814 -1.7489 -1.2266 -0.9091
18510TIP3    H276946   0.845   4.551  16.672  1.8290  2.5904  0.4775
18511TIP3   OH276947   3.186   3.820  13.256 -0.0617  0.1861  0.1712
18511TIP3    H176948   3.243   3.770  13.198 -1.9330 -4.1376  1.6092
18511TIP3    H276949   3.121   3.860  13.198  0.0499 -1.2299 -0.9809
18512TIP3   OH276950   3.119   0.817  16.259  0.4183  0.1574  0.2140
18512TIP3    H176951   3.092   0.748  16.320  1.6971 -0.5360  0.0459
18512TIP3    H276952   3.204   0.787  16.225  0.0465  0.8312 -1.4214
18513TIP3   OH276953   1.026   0.141   1.385  0.1369 -0.0840  0.1420
18513TIP3    H176954   0.973   0.071   1.421  1.1950 -1.8580 -1.5569
18513TIP3    H276955   1.109   0.136   1.433 -0.7911  2.1011  2.1670
18514TIP3   OH276956   0.451   0.625   3.289  0.3998  0.1384 -0.2110
18514TIP3    H176957   0.386   0.609   3.358 -0.0774 -0.7590 -0.8507
18514TIP3    H276958   0.503   0.544   3.287  0.5062  0.2182 -0.7947
18515TIP3   OH276959   5.726   2.353   2.116 -0.0346 -0.6420 -0.1179
18515TIP3    H176960   5.739   2.385   2.205 -1.0423 -0.1747 -0.1304
18515TIP3    H276961   5.684   2.268   2.127 -3.6454  0.9539 -0.1119
18516TIP3   OH276962   5.068   6.083  12.812  0.1533 -0.3377  0.2785
18516TIP3    H176963   5.010   6.062  12.886 -1.4707 -0.4690 -0.9903
18516TIP3    H276964   5.044   6.171  12.786  0.5658 -0.3704 -0.2336
18517TIP3   OH276965   3.694   0.495  13.100 -0.1162  0.0945 -0.1546
18517TIP3    H176966   3.672   0.449  13.181 -0.1479  2.3367  1.2143
18517TIP3    H276967   3.668   0.586  13.117 -0.0186  0.6631 -2.6653
18518TIP3   OH276968   4.193   3.442  11.803 -0.0549  0.5896 -0.1343
18518TIP3    H176969   4.119   3.452  11.743  0.6303 -2.0658 -1.6030
18518TIP3    H276970   4.270   3.442  11.746  1.1235  2.8486  1.3135
18519TIP3   OH276971   2.383   0.424  15.023 -0.1791  0.0796  0.5278
18519TIP3    H176972   2.434   0.413  15.103 -0.6560 -0.0221  0.8225
18519TIP3    H276973   2.304   0.373  15.038  0.5455 -1.5181 -0.7635
18520TIP3   OH276974   1.128   2.266   5.890 -0.7297  0.1552 -0.1846
18520TIP3    H176975   1.037   2.236   5.898 -0.5127 -0.1509  1.4228
18520TIP3    H276976   1.179   2.185   5.883 -0.5405  0.3183 -0.7153
18521TIP3   OH276977   2.865   2.806  16.242 -0.1533 -0.1787 -0.1717
18521TIP3    H176978   2.789   2.824  16.187  0.2616  0.6499 -0.4822
18521TIP3    H276979   2.827   2.771  16.323 -1.0166  1.8591  0.3859
18522TIP3   OH276980   2.607   1.042   1.891 -0.5311 -0.0572 -0.0211
18522TIP3    H176981   2.608   0.973   1.824  0.0440 -1.8513  1.7142
18522TIP3    H276982   2.544   1.011   1.956  0.4476  0.5632  1.2684
18523TIP3   OH276983   1.042   5.882  16.357 -0.5442 -0.5127  0.1126
18523TIP3    H176984   1.023   5.954  16.417  0.3481 -0.9286  0.9392
18523TIP3    H276985   0.982   5.813  16.383  0.3001 -0.9346  1.0228
18524TIP3   OH276986   3.018   1.277   1.491  0.4263  0.7381  0.3047
18524TIP3    H176987   2.978   1.320   1.415  2.3992  1.6731 -0.2523
18524TIP3    H276988   2.944   1.233   1.534 -1.1882  2.3233 -0.6820
18525TIP3   OH276989   6.535   2.572  14.715  0.2913 -0.4176  0.5331
18525TIP3    H176990   6.594   2.497  14.702  0.5457 -0.2119  0.4996
18525TIP3    H276991   6.491   2.583  14.631  1.1989  0.2795  0.1375
18526TIP3   OH276992   1.465   3.140   1.981  0.3635  0.0248  0.2352
18526TIP3    H176993   1.385   3.135   1.930  0.7197  0.2890 -0.3608
18526TIP3    H276994   1.498   3.051   1.983 -0.0798 -0.1323  0.7095
18527TIP3   OH276995   3.940   1.725  13.693 -0.7809 -0.0210  0.1714
18527TIP3    H176996   3.995   1.653  13.664 -1.1760 -0.6592  0.9876
18527TIP3    H276997   3.860   1.684  13.727 -2.1023  0.9001 -1.6244
18528TIP3   OH276998   2.584   0.074   1.104 -0.0107 -0.0706  0.2167
18528TIP3    H176999   2.587  -0.014   1.069 -3.0419 -0.3502  0.3395
18528TIP3    H277000   2.540   0.065   1.189  3.0266  1.1517  2.0723
18529TIP3   OH277001   6.342   4.514  15.157 -0.3075  0.6152 -0.1070
18529TIP3    H177002   6.379   4.444  15.104 -1.0187  0.7054 -0.7567
18529TIP3    H277003   6.351   4.485  15.247 -1.4130 -0.7479 -0.3962
18530TIP3   OH277004   4.271   5.943  15.067  0.2407 -0.6368 -0.2895
18530TIP3    H177005   4.309   5.948  15.155 -0.4618 -1.3405  0.0644
18530TIP3    H277006   4.196   6.001  15.069  2.4311  2.5179 -1.6490
18531TIP3   OH277007   5.270   2.567  11.717  0.5599 -0.0556 -0.0873
18531TIP3    H177008   5.225   2.640  11.673 -3.1148 -1.0044  1.6560
18531TIP3    H277009   5.264   2.494  11.655  0.5860  0.0853 -0.2572
18532TIP3   OH277010   6.062   4.622  10.739  0.2962 -0.2604  0.1632
18532TIP3    H177011   6.153   4.644  10.758 -0.2171  2.6614 -0.3087
18532TIP3    H277012   6.014   4.705  10.748 -1.8812 -1.1196 -2.1527
18533TIP3   OH277013   4.539   5.779   1.437 -0.2334 -0.4865  0.1175
18533TIP3    H177014   4.530   5.686   1.461 -1.3270 -0.1632  1.0724
18533TIP3    H277015   4.506   5.826   1.514 -0.9959  0.6738 -0.8911
18534TIP3   OH277016   0.833   4.602   1.673 -0.4638 -0.4366 -0.5413
18534TIP3    H177017   0.912   4.645   1.707 -0.6767 -0.7562  0.3954
18534TIP3    H277018   0.770   4.609   1.745 -0.7761 -1.5767 -0.6842
18535TIP3   OH277019   1.048   1.055  11.885 -0.1596 -0.6115 -0.3869
18535TIP3    H177020   1.053   1.085  11.976 -0.8459 -1.9351  0.1124
18535TIP3    H277021   1.122   0.995  11.875  0.9866  0.8913 -1.2646
18536TIP3   OH277022   5.666   1.194   4.338 -0.0279  0.3064  0.4234
18536TIP3    H177023   5.748   1.148   4.358  0.5161  1.2044  0.3145
18536TIP3    H277024   5.691   1.262   4.277 -0.0865  3.0671  3.2191
18537TIP3   OH277025   4.369   2.596   3.999  0.6578  0.0406 -1.1158
18537TIP3    H177026   4.446   2.648   4.024 -0.3689  0.8507  0.5689
18537TIP3    H277027   4.404   2.509   3.981  2.0296  0.4915 -0.7717
18538TIP3   OH277028   5.774   4.331   0.513 -0.1301  0.3416 -0.0773
18538TIP3    H177029   5.730   4.383   0.580  0.6945  1.2722 -0.2214
18538TIP3    H277030   5.849   4.292   0.558  1.0607  1.8440 -0.6435
18539TIP3   OH277031   5.837   4.392  11.761  0.2347  0.2278 -0.5565
18539TIP3    H177032   5.834   4.416  11.668  0.5905  1.1127 -0.3526
18539TIP3    H277033   5.861   4.474  11.806  1.6038 -0.5363  0.1582
18540TIP3   OH277034   0.409   1.219   5.323  0.3645  0.0151 -0.1619
18540TIP3    H177035   0.451   1.280   5.384 -0.5403  4.1812 -3.2280
18540TIP3    H277036   0.412   1.264   5.239 -0.1961 -4.4845 -2.9032
18541TIP3   OH277037   3.982   1.746   2.120  0.7403 -0.7440 -0.4462
18541TIP3    H177038   3.984   1.818   2.057 -0.5911  1.5738  1.9658
18541TIP3    H277039   3.902   1.698   2.100 -0.0785  0.4351 -0.0888
18542TIP3   OH277040   5.350   6.239  11.096 -0.3141 -0.2438  0.0767
18542TIP3    H177041   5.432   6.284  11.114 -0.8818  0.2169  1.6065
18542TIP3    H277042   5.282   6.305  11.112 -1.0649 -1.0995  0.5141
18543TIP3   OH277043   3.126   1.295  11.741 -0.1488 -0.0039  0.6074
18543TIP3    H177044   3.133   1.200  11.749  0.4634 -0.0497 -0.3466
18543TIP3    H277045   3.046   1.309  11.690  1.0661 -0.1441 -1.4360
18544TIP3   OH277046   1.197   6.144  10.757  0.5253  0.0090  0.1655
18544TIP3    H177047   1.140   6.090  10.702 -1.5015 -0.5465  2.5913
18544TIP3    H277048   1.248   6.196  10.695 -2.6172  0.5446 -2.2558
18545TIP3   OH277049   5.629   2.663  12.880 -0.5127 -0.5549  0.4256
18545TIP3    H177050   5.682   2.726  12.831 -2.0882  0.2291 -0.3618
18545TIP3    H277051   5.691   2.618  12.937  0.9020  0.6362 -0.1115
18546TIP3   OH277052   5.821   1.028   0.183  0.0459  0.0519  0.0973
18546TIP3    H177053   5.830   1.100   0.121 -0.0629  0.7304  0.8555
18546TIP3    H277054   5.898   1.034   0.239  0.6400 -1.1494 -0.5524
18547TIP3   OH277055   6.653   2.563  11.767 -0.8629  0.2760 -0.1282
18547TIP3    H177056   6.631   2.639  11.822  0.5402  0.6570 -0.0571
18547TIP3    H277057   6.650   2.488  11.826 -2.2887  0.2514 -0.2026
18548TIP3   OH277058   6.592   3.056  13.818 -0.0865 -0.4063 -0.6239
18548TIP3    H177059   6.654   3.030  13.750 -2.4887 -1.2854 -2.5912
18548TIP3    H277060   6.546   2.975  13.841 -0.9297  0.3226  0.3481
18549TIP3   OH277061   1.753   4.708   1.930  0.1049  0.1291  0.1913
18549TIP3    H177062   1.728   4.735   1.842 -0.8054 -0.1809  0.3475
18549TIP3    H277063   1.762   4.790   1.979 -0.5611  0.2470  0.1189
18550TIP3   OH277064   3.581   4.757  12.393  0.2175  0.0310  0.3181
18550TIP3    H177065   3.581   4.786  12.485 -0.3241 -1.2372  0.7371
18550TIP3    H277066   3.596   4.837  12.343 -0.1253  0.8522  1.4871
18551TIP3   OH277067   4.034   1.146  16.434  0.0309  0.5834  0.3779
18551TIP3    H177068   4.105   1.083  16.426  0.9721  1.4994  1.2018
18551TIP3    H277069   3.967   1.100  16.485  1.1121  0.5214  1.8359
18552TIP3   OH277070   6.282   4.940  14.828  0.0187 -0.3964 -0.1341
18552TIP3    H177071   6.267   4.908  14.739 -0.8888 -0.6480  0.0973
18552TIP3    H277072   6.340   5.015  14.817  0.7774 -1.0668 -0.8396
18553TIP3   OH277073   3.501   0.124   3.874  0.3534 -0.2497 -0.2439
18553TIP3    H177074   3.497   0.183   3.799  0.4966  1.0080  0.7188
18553TIP3    H277075   3.433   0.155   3.933 -0.8091 -2.1818 -0.4870
18554TIP3   OH277076   6.433   2.805   0.403  0.3620  0.8174  0.6925
18554TIP3    H177077   6.409   2.715   0.423  1.0192  0.7436  1.2090
18554TIP3    H277078   6.513   2.798   0.350  1.3352  1.0972  2.0543
18555TIP3   OH277079   5.071   6.500  13.455  0.1458  0.0943 -0.4962
18555TIP3    H177080   5.091   6.564  13.523 -0.2313 -0.2418 -0.0681
18555TIP3    H277081   5.066   6.552  13.374 -0.2661  0.6214 -0.1357
18556TIP3   OH277082   2.629   4.507  13.211 -0.4760  0.6045  0.1973
18556TIP3    H177083   2.638   4.534  13.120  2.7761 -2.1481 -0.4978
18556TIP3    H277084   2.631   4.411  13.209 -1.1860  0.4019  3.1462
18557TIP3   OH277085   0.328   0.229   3.187 -0.0451  0.8117 -0.2847
18557TIP3    H177086   0.300   0.143   3.157  0.3867  0.8420 -0.8014
18557TIP3    H277087   0.348   0.277   3.107 -0.2918  1.3970 -0.0013
18558TIP3   OH277088   5.074   6.127  12.207  0.0911 -0.2817 -0.0733
18558TIP3    H177089   5.138   6.077  12.258 -0.3876 -0.0506  0.7754
18558TIP3    H277090   4.989   6.100  12.242 -0.2265  0.1657 -0.4904
18559TIP3   OH277091   4.038   0.700   4.590 -0.1458 -0.0284  0.1037
18559TIP3    H177092   4.117   0.715   4.538 -1.2594  1.8385 -1.1546
18559TIP3    H277093   4.055   0.617   4.635  3.0915  0.9515  0.9801
18560TIP3   OH277094   6.035   5.856   2.254 -0.2723  0.0138 -0.2786
18560TIP3    H177095   6.074   5.940   2.281 -1.0016 -0.0846  1.2210
18560TIP3    H277096   6.097   5.819   2.191  2.0456 -0.1073  1.9241
18561TIP3   OH277097   5.085   1.474  15.264 -0.3829  0.2970  0.0406
18561TIP3    H177098   5.073   1.386  15.230 -0.3023  0.2355  0.1692
18561TIP3    H277099   5.112   1.526  15.188  1.0302 -0.1051  0.2359
18562TIP3   OH277100   4.655   4.147  10.900  0.7265  0.2806 -0.3615
18562TIP3    H177101   4.598   4.071  10.915  1.5307 -0.4105 -0.6914
18562TIP3    H277102   4.717   4.144  10.973 -0.6256  2.0003  0.9406
18563TIP3   OH277103   0.948   6.418  13.612  0.6751  0.6764 -0.0237
18563TIP3    H177104   0.939   6.328  13.578 -2.9645  0.5878  0.8505
18563TIP3    H277105   0.974   6.469  13.535 -2.4294 -0.3398 -1.9444
18564TIP3   OH277106   3.120   0.571   0.585  0.2768 -0.5490  0.2607
18564TIP3    H177107   3.136   0.529   0.670 -0.6294 -2.2658 -0.3817
18564TIP3    H277108   3.053   0.517   0.544 -0.0951  0.8957 -1.1102
18565TIP3   OH277109   5.334   4.327   5.514 -0.2629 -0.1808  0.4844
18565TIP3    H177110   5.249   4.290   5.539  0.7366 -2.1425  1.1739
18565TIP3    H277111   5.375   4.259   5.461 -0.4701  2.0941 -2.9634
18566TIP3   OH277112   0.836   6.760   2.520  0.4836 -0.1354 -0.2930
18566TIP3    H177113   0.837   6.702   2.444  0.3575  0.7890 -1.0275
18566TIP3    H277114   0.881   6.839   2.489 -0.4462  0.6351  0.2722
18567TIP3   OH277115   5.745   5.821   2.630  0.1551  0.5808 -0.0914
18567TIP3    H177116   5.671   5.812   2.571 -0.0016  1.4707 -0.0521
18567TIP3    H277117   5.749   5.915   2.649  0.5241  0.3860  0.8846
18568TIP3   OH277118   4.518   5.952  11.687  0.2857  1.0125  0.9150
18568TIP3    H177119   4.607   5.935  11.657  0.2625  0.6015  1.0712
18568TIP3    H277120   4.475   5.866  11.684 -0.9004  1.5922 -1.6978
18569TIP3   OH277121   0.427   1.280   1.372 -0.1943 -0.3933 -0.6129
18569TIP3    H177122   0.446   1.347   1.307 -0.6080 -0.0670 -0.4042
18569TIP3    H277123   0.501   1.220   1.367  1.0580  0.9980  0.4056
18570TIP3   OH277124   2.475   2.066   5.081  0.2603  0.2003 -0.4215
18570TIP3    H177125   2.475   2.119   5.161  0.8987 -0.4071  0.0048
18570TIP3    H277126   2.442   2.124   5.013 -2.2377  0.1377  0.6466
18571TIP3   OH277127   0.797   4.809  11.159  0.2666 -0.6021 -0.4924
18571TIP3    H177128   0.709   4.843  11.145 -0.2651 -1.1642  1.3125
18571TIP3    H277129   0.831   4.858  11.234  0.9848 -1.3005 -0.3442
18572TIP3   OH277130   4.768   1.443  11.206 -0.1676  0.4274  0.4861
18572TIP3    H177131   4.768   1.484  11.293  0.1274 -1.1522  1.2685
18572TIP3    H277132   4.840   1.380  11.210 -1.3553 -1.0150 -0.2445
18573TIP3   OH277133   5.891   6.086   6.253  0.1201 -0.4015  0.5956
18573TIP3    H177134   5.872   6.018   6.188 -0.5738  0.3972 -0.0605
18573TIP3    H277135   5.977   6.121   6.226  0.1482 -0.5398  0.5069
18574TIP3   OH277136   5.546   2.490  14.209 -0.7326 -0.7324 -0.6824
18574TIP3    H177137   5.533   2.530  14.123 -2.4519 -0.5203 -0.3542
18574TIP3    H277138   5.476   2.526  14.263  0.6925 -0.3378  1.0204
18575TIP3   OH277139   4.189   0.954   0.559  0.1680  0.3578  0.7552
18575TIP3    H177140   4.253   0.929   0.625  0.7715 -2.8445 -0.8920
18575TIP3    H277141   4.240   1.002   0.494  0.6847 -1.0676  0.0788
18576TIP3   OH277142   0.194   0.356  10.747 -0.5497  0.0275 -0.0415
18576TIP3    H177143   0.287   0.375  10.763 -0.7722  0.3858  0.8740
18576TIP3    H277144   0.196   0.279  10.689  0.3190  0.2190 -0.2884
18577TIP3   OH277145   2.450   1.707  15.292 -0.6838 -0.1471 -0.3745
18577TIP3    H177146   2.520   1.760  15.253 -0.8861  0.5688  0.2130
18577TIP3    H277147   2.370   1.757  15.276 -1.1314 -1.1262 -1.3535
18578TIP3   OH277148   1.898   1.776   0.303  0.1523  0.3144 -0.3767
18578TIP3    H177149   1.979   1.788   0.352  0.1323  0.4094 -0.3662
18578TIP3    H277150   1.842   1.849   0.330 -0.7672 -0.9378  1.2554
18579TIP3   OH277151   4.934   5.519   3.248  0.5221 -0.7240 -0.3629
18579TIP3    H177152   4.867   5.547   3.310 -0.3529 -2.4659 -0.4354
18579TIP3    H277153   5.015   5.518   3.298  0.6854  2.0906 -0.4492
18580TIP3   OH277154   2.587   5.609  15.350  0.0621 -0.1671 -0.0103
18580TIP3    H177155   2.620   5.698  15.338  0.4035 -0.5800 -3.1446
18580TIP3    H277156   2.493   5.616  15.333  0.0369 -0.3586  0.0529
18581TIP3   OH277157   2.469   3.356   5.689 -0.0025  0.1293 -0.1217
18581TIP3    H177158   2.417   3.399   5.621  0.2100  0.8138  0.1364
18581TIP3    H277159   2.424   3.379   5.771 -1.4336 -2.3106 -0.1103
18582TIP3   OH277160   4.078   2.021   0.086 -0.0490  0.1781 -0.2914
18582TIP3    H177161   4.155   2.043   0.139 -1.0358  0.6150  1.0110
18582TIP3    H277162   4.102   1.940   0.041  1.2689  0.4593 -0.1277
18583TIP3   OH277163   3.305   2.372  13.207 -0.1818  0.1924 -0.6019
18583TIP3    H177164   3.282   2.377  13.300 -0.3667  2.6863 -0.7254
18583TIP3    H277165   3.400   2.373  13.206 -0.1811  0.4857 -0.4355
18584TIP3   OH277166   6.401   1.270   3.800 -0.6178 -0.1240 -0.1922
18584TIP3    H177167   6.436   1.338   3.857 -1.3602 -0.3914  0.5928
18584TIP3    H277168   6.319   1.305   3.767 -0.6712 -0.3660 -0.3215
18585TIP3   OH277169   4.788   6.504   4.209 -0.2607 -0.0953  0.2469
18585TIP3    H177170   4.869   6.513   4.260 -0.8413  0.1795  1.1459
18585TIP3    H277171   4.722   6.552   4.259 -0.6882  0.8597 -1.1785
18586TIP3   OH277172   1.057   3.630  16.987 -0.1713  0.1005  0.3438
18586TIP3    H177173   1.063   3.725  16.978  0.2852  0.1006  0.5912
18586TIP3    H277174   1.113   3.596  16.917  1.1640  0.0554  1.3833
18587TIP3   OH277175   2.429   1.375  12.954  0.4929  0.3011  0.2080
18587TIP3    H177176   2.399   1.448  13.008 -1.8828 -0.5214  0.0965
18587TIP3    H277177   2.496   1.414  12.897  0.1988  2.0946  1.0196
18588TIP3   OH277178   3.407   0.740  14.539  0.1568  0.2630 -0.0818
18588TIP3    H177179   3.464   0.703  14.471  0.0779 -1.3293  0.6664
18588TIP3    H277180   3.335   0.780  14.491  1.0233  0.7685 -0.9878
18589TIP3   OH277181   5.369   5.582   2.336  0.1832 -0.4618  0.1679
18589TIP3    H177182   5.278   5.601   2.357  0.2896 -0.2265  0.4159
18589TIP3    H277183   5.365   5.545   2.248 -0.0001  1.1278 -0.5406
18590TIP3   OH277184   2.739   0.148   5.136  0.2542  0.8860 -0.0668
18590TIP3    H177185   2.654   0.141   5.181  0.5762  3.5179  1.0884
18590TIP3    H277186   2.736   0.077   5.071 -2.6076  0.5387  0.2727
18591TIP3   OH277187   1.687   4.516   1.011 -0.1266  0.3694 -0.0635
18591TIP3    H177188   1.593   4.528   1.023 -0.2156  0.0598 -0.4140
18591TIP3    H277189   1.727   4.580   1.070 -0.5476  0.0691  0.5576
18592TIP3   OH277190   5.799   3.871  10.518  0.4063  0.0497  0.0185
18592TIP3    H177191   5.706   3.883  10.536  0.4361  1.3980 -0.6402
18592TIP3    H277192   5.823   3.945  10.463  1.9592 -0.0768  0.4741
18593TIP3   OH277193   0.939   3.896  13.723 -0.0007  0.4215 -0.7019
18593TIP3    H177194   0.931   3.983  13.763  0.9240  0.1373  0.1455
18593TIP3    H277195   0.916   3.910  13.631 -2.5978  1.0348 -0.0538
18594TIP3   OH277196   0.679   2.214   4.207  0.3647 -0.2112 -0.7361
18594TIP3    H177197   0.700   2.304   4.232 -1.8762  0.1752  0.0371
18594TIP3    H277198   0.761   2.177   4.175  1.6028  1.7269  0.0663
18595TIP3   OH277199   1.832   1.202   3.727 -0.1238  0.4863  0.5626
18595TIP3    H177200   1.760   1.139   3.738  0.4946 -0.2388  0.5266
18595TIP3    H277201   1.883   1.168   3.654 -0.7982  2.0363 -0.7006
18596TIP3   OH277202   1.859   2.880   5.039 -0.3429 -0.2711 -0.1830
18596TIP3    H177203   1.769   2.865   5.069 -1.0280  2.9461 -0.3345
18596TIP3    H277204   1.906   2.907   5.118 -0.1524  0.5228 -0.5664
18597TIP3   OH277205   4.208   2.906  13.257 -0.1911  0.3524 -0.2633
18597TIP3    H177206   4.147   2.958  13.203 -0.1742 -0.1786 -0.8073
18597TIP3    H277207   4.292   2.951  13.248 -0.1143  0.0788 -0.9613
18598TIP3   OH277208   4.536   2.436  13.038  0.0179 -0.4666  0.0039
18598TIP3    H177209   4.569   2.411  13.124  1.1199 -0.5024 -0.4045
18598TIP3    H277210   4.452   2.392  13.030  0.7072 -1.9148  0.3659
18599TIP3   OH277211   4.255   6.631   1.164  0.2272  0.6389  0.5816
18599TIP3    H177212   4.277   6.541   1.136 -2.1538  0.4164 -0.8349
18599TIP3    H277213   4.326   6.684   1.127  1.1924 -0.5322  0.6513
18600TIP3   OH277214   2.483   2.256   5.294  0.0244  0.2579  0.4262
18600TIP3    H177215   2.448   2.316   5.360  0.3995 -1.6080  2.4328
18600TIP3    H277216   2.578   2.261   5.305  0.0475 -1.2757  1.2598
18601TIP3   OH277217   2.993   3.971  13.111  0.5066 -0.4879  0.0466
18601TIP3    H177218   2.929   3.976  13.040 -1.0826  0.5153  1.4473
18601TIP3    H277219   3.040   4.054  13.106  0.6888 -0.5994 -0.0903
18602TIP3   OH277220   2.674   1.317   6.214  0.1722 -0.1500  0.0707
18602TIP3    H177221   2.579   1.321   6.230  0.1904 -1.5773  0.7038
18602TIP3    H277222   2.682   1.307   6.120 -0.2733  0.5783 -0.0564
18603TIP3   OH277223   3.566   4.568  16.045  0.5310  0.3837 -0.0236
18603TIP3    H177224   3.638   4.599  15.991 -0.6179 -1.5129 -2.8683
18603TIP3    H277225   3.604   4.503  16.103  1.4102  0.8679 -0.0472
18604TIP3   OH277226   3.250   6.455  13.639 -0.0967  0.0331  0.2412
18604TIP3    H177227   3.191   6.410  13.578 -0.7350  0.3137  0.6463
18604TIP3    H277228   3.199   6.464  13.720  0.0622  1.3429  0.2207
18605TIP3   OH277229   1.928   2.524  13.361  0.1176 -0.3140 -0.5424
18605TIP3    H177230   1.930   2.565  13.448  1.1123  1.6119 -1.4266
18605TIP3    H277231   1.989   2.575  13.309 -1.0650 -0.9195 -2.6206
18606TIP3   OH277232   0.710   2.936  11.889 -0.7171 -0.2368  0.9649
18606TIP3    H177233   0.726   2.933  11.795  3.8462 -0.2383  1.5254
18606TIP3    H277234   0.669   2.851  11.908  1.9444 -2.0653 -0.6411
18607TIP3   OH277235   0.260   0.837  15.100  0.5708  0.8233  0.0625
18607TIP3    H177236   0.207   0.812  15.176  2.2268  1.3972  1.4816
18607TIP3    H277237   0.257   0.762  15.042  2.0650 -1.1291  2.3273
18608TIP3   OH277238   1.079   2.270   5.192 -0.5018 -0.6551  0.2365
18608TIP3    H177239   1.125   2.353   5.203  0.4868 -1.3043  1.1608
18608TIP3    H277240   1.131   2.222   5.128 -1.3742 -0.3744 -0.7176
18609TIP3   OH277241   4.126   0.762  14.598 -0.3421  0.0464  0.6776
18609TIP3    H177242   4.093   0.851  14.596 -0.1971  0.0860 -0.9931
18609TIP3    H277243   4.083   0.718  14.525  1.9606 -0.3486 -0.5690
18610TIP3   OH277244   3.530   1.927   1.699 -0.1605 -0.5214  0.0107
18610TIP3    H177245   3.595   1.868   1.660  2.4282  2.8470 -1.2294
18610TIP3    H277246   3.508   1.988   1.628 -2.0127  0.5893  1.4606
18611TIP3   OH277247   0.652   1.428  12.832 -0.3363 -0.5748 -0.0811
18611TIP3    H177248   0.598   1.478  12.894 -0.3857  0.5449 -1.0011
18611TIP3    H277249   0.589   1.392  12.770 -0.2234 -1.1655  0.1374
18612TIP3   OH277250   6.339   4.017  13.971  0.1867  0.0973  0.0320
18612TIP3    H177251   6.371   4.041  14.058 -0.8639 -0.4206  0.5708
18612TIP3    H277252   6.346   3.921  13.968  0.1619  0.1043 -0.4404
18613TIP3   OH277253   3.745   4.174   4.015 -0.1070 -0.3645  0.1452
18613TIP3    H177254   3.835   4.143   4.022  0.3845  0.9671  0.1348
18613TIP3    H277255   3.754   4.268   3.999 -1.5102 -0.0274  1.1277
18614TIP3   OH277256   6.705   6.388  14.148  0.2413  0.0152  0.1086
18614TIP3    H177257   6.800   6.390  14.158  0.2384  1.8667  0.1579
18614TIP3    H277258   6.685   6.465  14.095 -1.0038 -2.0066 -2.5702
18615TIP3   OH277259   1.440   2.895  14.716 -0.2678  0.0257  0.5830
18615TIP3    H177260   1.493   2.896  14.635 -3.4647 -0.0491 -1.7033
18615TIP3    H277261   1.442   2.803  14.744 -0.7066 -0.3685 -0.6036
18616TIP3   OH277262   6.096   6.170   5.509 -0.1378  0.3666 -0.1789
18616TIP3    H177263   6.072   6.253   5.550 -1.2427 -0.1378  0.2406
18616TIP3    H277264   6.036   6.160   5.436  1.0387  0.6778 -1.2322
18617TIP3   OH277265   3.274   1.744  16.414 -0.0379  0.1200 -0.6469
18617TIP3    H177266   3.305   1.834  16.405 -1.1337  0.7935  1.5478
18617TIP3    H277267   3.345   1.691  16.379  1.4429  1.7621 -0.2960
18618TIP3   OH277268   6.464   3.838   3.703  0.6271  0.3697 -0.7569
18618TIP3    H177269   6.558   3.823   3.691  1.1615  1.8868  1.0433
18618TIP3    H277270   6.449   3.822   3.796 -0.9020  0.2019 -1.0080
18619TIP3   OH277271   0.571   5.169   5.157 -0.0607  0.6385 -0.7370
18619TIP3    H177272   0.594   5.162   5.249 -2.0868  3.8010  0.1719
18619TIP3    H277273   0.499   5.108   5.145  0.1665  0.2653 -0.2367
18620TIP3   OH277274   5.639   5.616   5.723 -0.6996  0.5401  0.1498
18620TIP3    H177275   5.601   5.553   5.783 -0.8272  0.1233 -0.3577
18620TIP3    H277276   5.644   5.698   5.773 -1.6903  0.4472  0.4244
18621TIP3   OH277277   6.600   3.939   4.327  0.3495  0.0773  0.2618
18621TIP3    H177278   6.682   3.989   4.321  0.4110 -0.1776 -1.4470
18621TIP3    H277279   6.611   3.885   4.405  0.4178  2.4461  2.0153
18622TIP3   OH277280   0.239   3.338  16.349  0.0549  0.4598 -0.0754
18622TIP3    H177281   0.191   3.407  16.303  0.6451  0.1404 -1.1952
18622TIP3    H277282   0.266   3.379  16.431  1.5846  2.0291 -1.2952
18623TIP3   OH277283   0.402   1.704  16.303 -0.1116 -0.2729 -0.6178
18623TIP3    H177284   0.327   1.737  16.254 -1.0630  0.7411  1.4026
18623TIP3    H277285   0.458   1.782  16.316 -1.6828  0.4560  2.9640
18624TIP3   OH277286   3.841   2.957   2.782  0.5797  0.9334  0.2603
18624TIP3    H177287   3.873   2.887   2.839 -0.6617 -0.2637 -0.4423
18624TIP3    H277288   3.915   2.976   2.725  0.7923 -0.1969  0.1288
18625TIP3   OH277289   0.252   4.605   5.123  0.0793 -0.2255  0.1781
18625TIP3    H177290   0.206   4.521   5.118 -0.9651  0.2658  1.0900
18625TIP3    H277291   0.184   4.668   5.146  1.0183  0.7135  0.4529
18626TIP3   OH277292   2.813   6.274   5.386 -0.0371 -0.2374 -0.7514
18626TIP3    H177293   2.838   6.338   5.319  2.3876 -0.2655  0.0511
18626TIP3    H277294   2.896   6.238   5.417 -1.1148 -0.6627  1.8591
18627TIP3   OH277295   1.785   5.994   1.280  0.1126 -0.2950  0.5940
18627TIP3    H177296   1.786   5.974   1.374  0.2262  0.1829  0.6982
18627TIP3    H277297   1.697   5.968   1.251  0.4604 -1.5318  0.5826
18628TIP3   OH277298   6.279   2.829  16.718  0.4203  0.1994  0.4384
18628TIP3    H177299   6.232   2.899  16.763 -0.1993 -0.9908  1.7073
18628TIP3    H277300   6.227   2.751  16.735  0.6541 -0.4716 -1.6069
18629TIP3   OH277301   2.589   3.678   3.727 -0.5877  0.7716 -0.2432
18629TIP3    H177302   2.681   3.674   3.702 -0.4392  0.9608  0.2606
18629TIP3    H277303   2.544   3.709   3.649 -0.0913  1.6572 -0.1870
18630TIP3   OH277304   1.042   3.324   1.430 -0.3489  0.5004  0.0497
18630TIP3    H177305   1.112   3.265   1.457  0.4455  1.1907 -0.4692
18630TIP3    H277306   1.006   3.357   1.513 -1.0727 -0.9694  0.3672
18631TIP3   OH277307   4.839   0.093   5.194  0.0290  0.3156  0.1878
18631TIP3    H177308   4.830   0.094   5.099  0.6099  1.9099  0.1265
18631TIP3    H277309   4.931   0.069   5.209 -0.2373 -0.6225  0.3789
18632TIP3   OH277310   1.331   4.527   3.610 -0.3042  0.2365 -0.5301
18632TIP3    H177311   1.356   4.441   3.575 -1.9508 -0.4484 -0.1141
18632TIP3    H277312   1.401   4.548   3.673  0.3182 -0.6189 -0.9164
18633TIP3   OH277313   2.333   0.699  13.617 -0.4049  0.0019 -0.5489
18633TIP3    H177314   2.398   0.704  13.547 -1.0960  1.7251 -1.1161
18633TIP3    H277315   2.254   0.667  13.575 -0.8266  1.0588 -0.6008
18634TIP3   OH277316   3.301   1.770   2.371 -0.1931  0.5587 -0.2744
18634TIP3    H177317   3.240   1.696   2.371 -0.5182  0.8018  0.8208
18634TIP3    H277318   3.317   1.789   2.279  0.9402 -1.7280 -0.6038
18635TIP3   OH277319   1.476   3.407  14.915  0.1407  0.2272  0.2116
18635TIP3    H177320   1.451   3.327  14.870 -2.1207  1.5911 -1.1945
18635TIP3    H277321   1.563   3.428  14.881 -0.2484 -0.3938 -1.2542
18636TIP3   OH277322   4.923   1.661  12.966  0.6922 -0.4893  0.0549
18636TIP3    H177323   4.904   1.597  13.034  0.0424 -0.6071 -0.2287
18636TIP3    H277324   4.855   1.647  12.900 -1.8004  2.8293  1.5717
18637TIP3   OH277325   4.198   5.203  12.860  0.2677  0.1828  0.3155
18637TIP3    H177326   4.163   5.114  12.851 -0.3634  0.4661 -0.1092
18637TIP3    H277327   4.292   5.193  12.851  0.2764 -0.5526  1.0856
18638TIP3   OH277328   3.310   6.197   1.980 -0.1255 -0.5304  0.6987
18638TIP3    H177329   3.282   6.169   2.067 -2.5242 -2.1767 -0.4907
18638TIP3    H277330   3.249   6.267   1.956  0.7542  0.1752  0.4420
18639TIP3   OH277331   1.558   1.150   3.918 -0.0669  0.0219  0.3105
18639TIP3    H177332   1.546   1.187   3.831  0.5635 -0.1919  0.1251
18639TIP3    H277333   1.504   1.071   3.918 -0.0122 -0.0177  0.0823
18640TIP3   OH277334   4.238   4.099  14.877  0.0796  0.2387 -0.1004
18640TIP3    H177335   4.224   4.021  14.824  0.3738 -0.1546  0.3973
18640TIP3    H277336   4.188   4.168  14.832 -2.3868 -0.8020  0.8536
18641TIP3   OH277337   2.365   3.505   3.625 -0.2297  0.5199 -0.5517
18641TIP3    H177338   2.275   3.484   3.601  0.2449 -0.9612 -1.1233
18641TIP3    H277339   2.381   3.591   3.585 -0.8757  0.0575 -1.8565
18642TIP3   OH277340   5.688   2.615  16.996 -0.3634  0.1710  0.3670
18642TIP3    H177341   5.652   2.568  16.921 -2.0937  0.5222  0.9365
18642TIP3    H277342   5.731   2.547  17.048 -1.1439 -0.4650  0.2025
18643TIP3   OH277343   5.264   0.857  14.477 -0.1272 -0.1994 -0.5252
18643TIP3    H177344   5.185   0.802  14.477 -0.0733 -0.3068  0.6036
18643TIP3    H277345   5.234   0.941  14.511  0.2248 -0.2167 -0.1629
18644TIP3   OH277346   4.152   5.508   6.009 -0.2049  0.0329 -0.2792
18644TIP3    H177347   4.207   5.552   6.073  0.6456 -0.7126 -0.4750
18644TIP3    H277348   4.075   5.480   6.059  0.2165 -0.1012  0.3158
18645TIP3   OH277349   5.864   0.612   2.193  0.0552  0.4047  0.5918
18645TIP3    H177350   5.856   0.619   2.097 -0.2613 -0.4559  0.5498
18645TIP3    H277351   5.870   0.703   2.222 -0.5967  0.7212 -0.1871
18646TIP3   OH277352   2.529   6.436   1.224 -0.3350 -0.6878  0.5855
18646TIP3    H177353   2.571   6.488   1.292 -0.0452 -0.4418  0.2258
18646TIP3    H277354   2.447   6.407   1.263 -0.4405 -0.0663  0.8440
18647TIP3   OH277355   6.293   0.977   3.673 -0.6011 -0.2397 -0.0659
18647TIP3    H177356   6.277   1.029   3.594 -1.1195  0.3565  0.4167
18647TIP3    H277357   6.387   0.982   3.687 -0.4747 -0.5787 -0.8015
18648TIP3   OH277358   2.249   5.459  11.673 -0.0748 -0.3121  0.1236
18648TIP3    H177359   2.337   5.442  11.705 -0.3338 -1.7431  0.1593
18648TIP3    H277360   2.236   5.553  11.685  0.6177 -0.4258  2.2740
18649TIP3   OH277361   6.132   2.000   4.822  0.8982  0.2430  0.1136
18649TIP3    H177362   6.135   2.075   4.762  2.9245  1.5852  1.7597
18649TIP3    H277363   6.223   1.972   4.831  0.2674 -2.0839  0.0447
18650TIP3   OH277364   0.669   5.157   6.145 -0.1297  0.0833  0.5087
18650TIP3    H177365   0.628   5.166   6.231  0.2571 -1.3619  0.8669
18650TIP3    H277366   0.620   5.086   6.102  1.9445 -1.7337  0.9702
18651TIP3   OH277367   2.014   0.691  16.155  0.1119  0.0624 -0.0814
18651TIP3    H177368   2.005   0.750  16.079  0.3744 -0.1363 -0.2660
18651TIP3    H277369   2.095   0.644  16.139 -0.2118 -0.5151 -0.0418
18652TIP3   OH277370   5.965   5.702   5.807  0.0260 -0.0221 -0.1705
18652TIP3    H177371   6.040   5.755   5.780 -0.6423  0.3973 -1.2768
18652TIP3    H277372   5.980   5.683   5.899  0.0069  2.5735  0.4188
18653TIP3   OH277373   5.301   4.129  16.081 -0.3088  0.0854  0.6457
18653TIP3    H177374   5.299   4.039  16.048 -1.2640 -0.0496  1.0578
18653TIP3    H277375   5.232   4.132  16.147  1.6667  0.2754  2.8457
18654TIP3   OH277376   3.514   1.596  12.567  0.6930  0.4011 -0.4645
18654TIP3    H177377   3.537   1.675  12.615 -1.0997  0.0025  1.2096
18654TIP3    H277378   3.431   1.618  12.524 -0.2103 -0.7472  0.6187
18655TIP3   OH277379   4.877   2.800   1.751  0.3573 -0.3861 -0.1022
18655TIP3    H177380   4.825   2.752   1.816 -0.2307 -0.7130 -0.8075
18655TIP3    H277381   4.853   2.760   1.667  0.4374  0.6313 -0.6182
18656TIP3   OH277382   4.309   2.315   5.365 -0.2055  0.1012  0.0512
18656TIP3    H177383   4.336   2.380   5.300 -2.3759  0.8886 -0.1158
18656TIP3    H277384   4.219   2.337   5.386 -0.6527 -2.1948  0.8528
18657TIP3   OH277385   5.084   0.378   6.653  0.0740 -0.0351  0.1400
18657TIP3    H177386   5.167   0.352   6.692  0.2075 -0.9324 -0.7340
18657TIP3    H277387   5.043   0.296   6.626 -1.4169  0.3190  1.1585
18658TIP3   OH277388   2.758   6.510   3.862  0.5114  0.6581  0.5296
18658TIP3    H177389   2.677   6.519   3.913  0.3090  2.4420 -0.0308
18658TIP3    H277390   2.733   6.455   3.788 -0.3153  1.5090  0.1572
18659TIP3   OH277391   3.804   6.488  16.226 -0.0116 -0.0590 -0.4121
18659TIP3    H177392   3.816   6.548  16.300  0.2382  1.0460 -1.3205
18659TIP3    H277393   3.765   6.409  16.265  1.6275 -0.1606  1.1522
18660TIP3   OH277394   3.137   6.697   0.189 -0.0214 -0.3112  0.4537
18660TIP3    H177395   3.214   6.730   0.142  0.2689 -0.2656  0.9440
18660TIP3    H277396   3.116   6.615   0.146 -0.8947  0.6067 -0.9329
18661TIP3   OH277397   0.381   6.116   4.078  0.2052  0.5897 -0.2483
18661TIP3    H177398   0.376   6.181   4.148 -0.5236 -0.2608  0.5167
18661TIP3    H277399   0.471   6.122   4.046  0.5448  1.0145  0.7455
18662TIP3   OH277400   6.189   5.055   4.633  0.2673  0.0738  0.0618
18662TIP3    H177401   6.124   5.042   4.702 -0.0797  0.1220 -0.2498
18662TIP3    H277402   6.149   5.118   4.573  0.2029 -0.5979 -0.6265
18663TIP3   OH277403   0.859   2.607   3.516  0.3157  0.3302 -0.0935
18663TIP3    H177404   0.814   2.569   3.591 -1.2136 -0.6539 -1.4465
18663TIP3    H277405   0.945   2.565   3.516  0.4790  0.6168  1.2900
18664TIP3   OH277406   2.585   1.686   2.416  0.4846  0.0217  0.2474
18664TIP3    H177407   2.509   1.721   2.369  0.4796  0.9498  0.9236
18664TIP3    H277408   2.550   1.661   2.501  0.3660 -2.2160 -0.3939
18665TIP3   OH277409   0.796   2.540  12.207 -0.0386  0.5446 -0.4490
18665TIP3    H177410   0.808   2.524  12.114 -1.1253  0.9052 -0.6661
18665TIP3    H277411   0.717   2.491  12.230  0.8342 -0.4389  0.5423
18666TIP3   OH277412   4.533   5.350   2.189 -0.0197  0.1651  0.4331
18666TIP3    H177413   4.514   5.259   2.166 -0.8922  0.2926  0.6169
18666TIP3    H277414   4.623   5.348   2.222  0.4755 -0.3946 -0.8551
18667TIP3   OH277415   3.014   3.505   5.765  0.1790 -0.3084  0.1789
18667TIP3    H177416   3.079   3.546   5.708 -0.0617  0.5290  0.4832
18667TIP3    H277417   3.060   3.492   5.848  0.8884 -2.6066 -0.5076
18668TIP3   OH277418   2.819   0.524  15.865 -0.6333 -0.3332 -0.0467
18668TIP3    H177419   2.772   0.510  15.948  0.0424  0.8603  0.5760
18668TIP3    H277420   2.869   0.443  15.851  0.8386  0.1663  1.8229
18669TIP3   OH277421   3.219   5.620  16.772 -0.2069  0.7198  0.0426
18669TIP3    H177422   3.293   5.662  16.729  1.3071 -2.8230 -1.1929
18669TIP3    H277423   3.220   5.655  16.861  1.7786  2.1323 -0.4596
18670TIP3   OH277424   6.597   1.011  14.596 -0.4193 -0.1488 -0.0553
18670TIP3    H177425   6.622   1.028  14.505  2.5026 -0.3396  0.6077
18670TIP3    H277426   6.651   1.071  14.647 -2.0371 -0.0136  1.5845
18671TIP3   OH277427   1.551   2.551  14.009  0.6121  0.4458  0.2186
18671TIP3    H177428   1.618   2.539  13.941  0.4644  0.3704  0.0872
18671TIP3    H277429   1.500   2.626  13.980 -0.0820 -0.1931 -0.2721
18672TIP3   OH277430   0.053   4.037   2.184  0.0008  0.5313 -0.1651
18672TIP3    H177431   0.081   4.095   2.255  0.2313 -1.2115  1.2570
18672TIP3    H277432  -0.026   4.079   2.148  0.9692  2.4257 -0.1959
18673TIP3   OH277433   4.193   6.441  13.636  0.7215 -0.0350  0.3445
18673TIP3    H177434   4.202   6.462  13.729  3.1144  1.3060 -0.1108
18673TIP3    H277435   4.260   6.375  13.620  0.4966 -0.0708 -0.4887
18674TIP3   OH277436   1.110   2.559   0.416 -0.5154 -0.8079 -0.3233
18674TIP3    H177437   1.063   2.615   0.354  0.3342 -0.4299 -0.6400
18674TIP3    H277438   1.085   2.592   0.502 -1.9510 -1.5301 -0.4176
18675TIP3   OH277439   5.687   2.521   2.626  0.3721  0.4687  0.0931
18675TIP3    H177440   5.742   2.596   2.649  0.1243 -0.1561  3.1992
18675TIP3    H277441   5.645   2.496   2.708 -3.0160 -0.3853 -1.7018
18676TIP3   OH277442   6.746   3.582  16.433 -0.1732 -0.3423  0.3510
18676TIP3    H177443   6.795   3.583  16.516  0.5091 -1.7563 -0.0099
18676TIP3    H277444   6.703   3.497  16.431 -0.6146 -0.1089 -0.5115
18677TIP3   OH277445   1.109   3.296  12.446  0.2853  0.0048 -0.2712
18677TIP3    H177446   1.069   3.342  12.372 -0.6687 -1.2428 -0.5689
18677TIP3    H277447   1.174   3.238  12.406 -0.7474 -1.2197 -0.2551
18678TIP3   OH277448   3.600   5.601  11.280 -0.2608 -0.3265 -0.0410
18678TIP3    H177449   3.540   5.526  11.280  0.1474 -0.6993 -1.9228
18678TIP3    H277450   3.645   5.596  11.196  1.9508  0.3312  1.0395
18679TIP3   OH277451   3.278   4.970   2.686  0.3465  0.5685  0.0012
18679TIP3    H177452   3.216   4.996   2.753  0.0016 -0.0256 -0.0763
18679TIP3    H277453   3.271   5.037   2.618 -0.7409  0.1213 -0.3409
18680TIP3   OH277454   5.462   4.164   3.493 -0.2676 -0.2624  0.4847
18680TIP3    H177455   5.472   4.169   3.398  1.9811 -1.6051  0.5930
18680TIP3    H277456   5.489   4.076   3.516  0.3741  0.3950  2.4956
18681TIP3   OH277457   1.842   0.557  14.494  0.8352  0.0940 -0.6714
18681TIP3    H177458   1.832   0.466  14.520  1.6100 -0.4973 -2.3445
18681TIP3    H277459   1.868   0.554  14.402  2.5605  1.9376 -0.3103
18682TIP3   OH277460   2.692   6.139  11.431  0.2004  0.1731  0.2931
18682TIP3    H177461   2.754   6.070  11.453 -1.1653 -1.2152 -0.0102
18682TIP3    H277462   2.607   6.106  11.462 -0.7292  1.0293 -1.1976
18683TIP3   OH277463   6.324   1.963   4.361  0.0045 -0.2605 -0.0053
18683TIP3    H177464   6.296   2.007   4.281  1.9895  0.2503 -0.4880
18683TIP3    H277465   6.329   1.870   4.337  0.2355 -0.1533 -0.3867
18684TIP3   OH277466   1.127   3.891  11.414 -0.1451  0.0256 -0.3364
18684TIP3    H177467   1.134   3.900  11.319  1.4164 -2.2096 -0.4983
18684TIP3    H277468   1.035   3.870  11.430 -0.5003  0.8094 -1.2919
18685TIP3   OH277469   5.295   2.457  14.562 -0.2005  0.6382  0.3847
18685TIP3    H177470   5.243   2.528  14.600  0.4195  0.0690  2.4385
18685TIP3    H277471   5.355   2.501  14.501 -1.3127  1.5874 -0.0662
18686TIP3   OH277472   0.220   1.664   4.577  0.6732 -0.6850 -0.5226
18686TIP3    H177473   0.200   1.726   4.507  1.3226 -0.1826 -0.2754
18686TIP3    H277474   0.242   1.582   4.532 -2.2741 -1.4469 -0.8173
18687TIP3   OH277475   0.548   2.650  11.524  0.4066 -0.3193  1.0324
18687TIP3    H177476   0.492   2.602  11.585 -0.5495  0.2265  0.6054
18687TIP3    H277477   0.538   2.742  11.548  0.6178 -0.1615  0.5373
18688TIP3   OH277478   4.070   3.373  15.501 -0.4866  0.1059  0.7658
18688TIP3    H177479   4.073   3.363  15.596 -2.0444 -0.2923  0.8078
18688TIP3    H277480   4.142   3.320  15.469  0.0306  0.2029  1.7257
18689TIP3   OH277481   4.214   4.368  11.106  0.8119  0.7952 -0.0254
18689TIP3    H177482   4.238   4.279  11.082 -1.6543  0.0370  0.0650
18689TIP3    H277483   4.192   4.411  11.023  0.3731  0.7857  0.0837
18690TIP3   OH277484   0.817   6.632   0.054  0.0360  0.7523  0.1198
18690TIP3    H177485   0.898   6.611   0.102  0.5256  1.6072 -0.3121
18690TIP3    H277486   0.830   6.721   0.023 -1.7371  1.5226  1.3822
18691TIP3   OH277487   6.742   5.002  11.046  0.0981  0.2104 -0.2370
18691TIP3    H177488   6.765   5.064  10.977 -0.1540 -0.9850 -1.4283
18691TIP3    H277489   6.654   5.028  11.074  0.5769  1.2916  0.3514
18692TIP3   OH277490   3.920   2.512   4.519 -0.1982  0.1555  0.0401
18692TIP3    H177491   3.997   2.562   4.544 -0.9687  1.5566 -0.2899
18692TIP3    H277492   3.940   2.480   4.431  0.3277 -0.1877  0.2807
18693TIP3   OH277493   0.043   6.378   3.936  0.0380 -0.3464  0.3603
18693TIP3    H177494  -0.051   6.370   3.924  0.1509 -0.1383 -0.8389
18693TIP3    H277495   0.072   6.291   3.961 -0.3803 -0.6103 -0.0518
18694TIP3   OH277496   1.701   3.879  15.407  0.0611  0.4470 -0.1529
18694TIP3    H177497   1.682   3.798  15.359 -0.5644  1.2012 -1.2000
18694TIP3    H277498   1.772   3.854  15.467 -0.3267 -0.9508 -0.2291
18695TIP3   OH277499   1.787   1.546   6.223  0.2657  0.0039 -0.1078
18695TIP3    H177500   1.859   1.605   6.200 -0.6307  0.4838 -1.9017
18695TIP3    H277501   1.748   1.585   6.301  2.2748 -0.5980  1.2730
18696TIP3   OH277502   3.691   3.095   4.107 -0.4181  0.4695  0.2452
18696TIP3    H177503   3.755   3.161   4.135  0.1449 -0.1621  0.4583
18696TIP3    H277504   3.717   3.073   4.018  0.1591 -0.3633  0.6028
18697TIP3   OH277505   3.347   6.305  17.028  0.4954  0.2794 -0.3057
18697TIP3    H177506   3.373   6.228  17.078  0.1649 -0.2189 -0.8868
18697TIP3    H277507   3.323   6.370  17.094  1.5943  0.1846  0.2099
18698TIP3   OH277508   4.045   4.253  15.287 -0.0039 -0.1875 -0.3880
18698TIP3    H177509   4.103   4.250  15.363 -1.1480 -1.1582  0.4961
18698TIP3    H277510   4.074   4.180  15.233  0.0063 -0.2876 -0.2500
18699TIP3   OH277511   3.597   1.173  16.517 -0.1292  0.2437  0.1685
18699TIP3    H177512   3.520   1.195  16.465  0.7155  1.5119 -0.5975
18699TIP3    H277513   3.580   1.213  16.603  0.0142  1.2078 -0.2430
18700TIP3   OH277514   5.533   2.609   4.799  0.6183  0.5335  0.6753
18700TIP3    H177515   5.457   2.657   4.767 -0.0062 -0.2851  0.8898
18700TIP3    H277516   5.593   2.676   4.832  1.0882  1.3858 -1.7266
18701TIP3   OH277517   1.347   1.146  12.008  0.6956  0.8396 -0.1065
18701TIP3    H177518   1.349   1.175  11.917  1.0787  1.9816  0.2556
18701TIP3    H277519   1.326   1.053  12.002  1.8219  0.6225 -1.4239
18702TIP3   OH277520   2.095   4.334   5.344 -0.4162 -0.2529 -0.0589
18702TIP3    H177521   2.017   4.289   5.377 -1.9551  1.4420 -1.2056
18702TIP3    H277522   2.142   4.362   5.423  0.0475 -2.7993  0.6770
18703TIP3   OH277523   4.548   3.258   4.291 -0.2664  0.2552  0.3624
18703TIP3    H177524   4.541   3.205   4.370 -3.0735 -1.3103 -0.8140
18703TIP3    H277525   4.505   3.341   4.313 -1.7993 -0.4904  0.2859
18704TIP3   OH277526   3.067   3.969   2.545 -0.2782 -0.8153  0.7062
18704TIP3    H177527   3.134   4.029   2.513 -0.4134  0.5419  2.7582
18704TIP3    H277528   3.013   3.950   2.468  0.6955  0.4413 -0.3338
18705TIP3   OH277529   2.166   5.424   5.178 -0.1187  0.7726 -0.1375
18705TIP3    H177530   2.074   5.406   5.194 -0.3667  0.7628 -1.4331
18705TIP3    H277531   2.166   5.503   5.124  0.6507  0.9723  0.1425
18706TIP3   OH277532   5.307   4.553   1.455 -0.1557  0.4043  0.1126
18706TIP3    H177533   5.277   4.636   1.418  1.0277  1.7103  1.8778
18706TIP3    H277534   5.234   4.493   1.441 -1.9253  2.3086  0.5732
18707TIP3   OH277535   4.296   3.426   1.634  0.4033 -0.0805 -0.4437
18707TIP3    H177536   4.267   3.473   1.557 -1.5562 -1.1726 -0.4504
18707TIP3    H277537   4.391   3.428   1.630  0.3431  0.1379 -2.7197
18708TIP3   OH277538   6.641   5.977  12.527 -0.4153 -0.2972 -0.1048
18708TIP3    H177539   6.575   6.018  12.471 -1.6972 -3.5380 -1.2257
18708TIP3    H277540   6.677   5.907  12.472  3.0943  0.4774  0.9469
18709TIP3   OH277541   4.651   4.694   4.854 -0.4830  0.1360  0.1271
18709TIP3    H177542   4.668   4.642   4.933 -0.6104  1.3072  0.9536
18709TIP3    H277543   4.672   4.783   4.880 -1.6073  0.7022 -0.8307
18710TIP3   OH277544   5.314   6.756  10.609  0.1602  0.2273 -0.6626
18710TIP3    H177545   5.396   6.707  10.607 -0.7618 -1.3693 -1.5331
18710TIP3    H277546   5.246   6.688  10.602 -1.1633  1.6576 -2.6729
18711TIP3   OH277547   4.904   2.075  11.285  0.2847 -0.0057 -0.1469
18711TIP3    H177548   4.977   2.060  11.226  1.5189 -0.3112  1.3803
18711TIP3    H277549   4.910   2.168  11.307  0.6214 -0.1641  0.4622
18712TIP3   OH277550   2.365   6.168  16.408 -0.1265  0.3765  0.2854
18712TIP3    H177551   2.329   6.184  16.320 -2.3476  3.0616  1.5088
18712TIP3    H277552   2.439   6.228  16.414  0.4375 -0.2872  0.0479
18713TIP3   OH277553   5.701   0.219  10.464  0.6377 -0.4322 -0.3869
18713TIP3    H177554   5.770   0.164  10.503 -0.6079 -1.3451  0.6600
18713TIP3    H277555   5.724   0.308  10.490  1.5581 -0.6867 -0.2770
18714TIP3   OH277556   1.221   6.456   1.412  0.6790  0.5756  0.1201
18714TIP3    H177557   1.159   6.387   1.389  0.2712  0.4806  1.4561
18714TIP3    H277558   1.218   6.517   1.338 -0.8311  0.4529  0.0486
18715TIP3   OH277559   0.163   6.786  14.658  0.1910 -0.0789 -0.5521
18715TIP3    H177560   0.211   6.857  14.700  1.2985 -0.2030 -1.5401
18715TIP3    H277561   0.073   6.818  14.651 -0.3756 -0.5305  2.9400
18716TIP3   OH277562   4.563   1.659   1.584  0.3509  0.2804 -0.2313
18716TIP3    H177563   4.513   1.739   1.599  0.3258  0.5039 -1.3632
18716TIP3    H277564   4.638   1.687   1.532  0.2583 -0.4469 -0.7781
18717TIP3   OH277565   4.579   2.903   2.746 -0.6390 -0.0358 -0.3403
18717TIP3    H177566   4.595   2.934   2.657 -4.0147  0.3805 -0.9188
18717TIP3    H277567   4.565   2.983   2.797  2.2480 -0.2102  0.8970
18718TIP3   OH277568   3.787   5.332   3.987 -0.0317  0.0185  0.2814
18718TIP3    H177569   3.696   5.358   3.970  0.2925  1.3569  0.4321
18718TIP3    H277570   3.835   5.363   3.910  0.1043 -2.0752 -0.5427
18719TIP3   OH277571   1.863   1.309   3.153 -0.2660  0.3277 -0.0289
18719TIP3    H177572   1.801   1.243   3.123  1.1341  0.0962 -2.7209
18719TIP3    H277573   1.939   1.259   3.183 -0.3727  0.6865  0.8993
18720TIP3   OH277574   5.270   5.642   5.455  0.3466  0.4977  0.2846
18720TIP3    H177575   5.293   5.567   5.510 -1.0389  0.8490  1.4033
18720TIP3    H277576   5.337   5.707   5.473  0.0311  0.5262  1.4186
18721TIP3   OH277577   2.579   4.348  14.544  0.2303 -0.0262  0.1427
18721TIP3    H177578   2.624   4.417  14.496  0.8126 -0.9270 -0.6341
18721TIP3    H277579   2.649   4.292  14.578 -0.2024  0.1289  1.3697
18722TIP3   OH277580   2.463   4.493  16.083  0.7773 -0.4051  0.2501
18722TIP3    H177581   2.462   4.467  16.175  1.0313 -0.3755  0.2627
18722TIP3    H277582   2.543   4.454  16.048  0.5290 -0.6621 -0.0308
18723TIP3   OH277583   2.096   2.121  14.385 -0.1345  0.3204  0.2501
18723TIP3    H177584   2.029   2.054  14.391  0.4066 -0.1353  1.8160
18723TIP3    H277585   2.170   2.078  14.342 -0.0011  0.0815  0.7121
18724TIP3   OH277586   5.820   5.695  11.702 -0.5035  0.2011 -0.8589
18724TIP3    H177587   5.781   5.656  11.624 -0.5411  0.3934 -0.9376
18724TIP3    H277588   5.843   5.784  11.675 -1.3186  0.5588 -0.4018
18725TIP3   OH277589   5.066   1.638   1.304 -0.6926 -0.2218  0.0381
18725TIP3    H177590   5.157   1.636   1.274 -0.8154 -3.5645 -0.5694
18725TIP3    H277591   5.068   1.590   1.387 -1.8625  0.0470  0.2314
18726TIP3   OH277592   2.361   3.318  15.715  0.2508 -0.4502  0.3725
18726TIP3    H177593   2.398   3.406  15.723 -0.3740 -0.1289 -0.1198
18726TIP3    H277594   2.417   3.263  15.769  0.9350  0.1647  0.3036
18727TIP3   OH277595   5.996   1.612   0.698  0.1163 -0.2551  0.2374
18727TIP3    H177596   6.065   1.578   0.756  0.5279 -1.0749 -0.7037
18727TIP3    H277597   6.002   1.707   0.707 -1.2189 -0.3416  3.1253
18728TIP3   OH277598   0.235   1.025  12.376 -0.3512  0.2264  0.2319
18728TIP3    H177599   0.177   1.078  12.320  0.3596 -0.0002 -0.7443
18728TIP3    H277600   0.175   0.966  12.422 -0.9451  0.1454 -0.6002
18729TIP3   OH277601   2.663   1.991   4.776 -0.0119  0.0867  0.2657
18729TIP3    H177602   2.691   2.056   4.840 -1.6458 -0.5907  1.7492
18729TIP3    H277603   2.588   2.030   4.731 -1.0726 -0.7447  1.2396
18730TIP3   OH277604   0.010   2.288  15.115 -0.2729 -0.6935  0.2422
18730TIP3    H177605   0.067   2.218  15.145 -0.3178 -1.6168 -1.7004
18730TIP3    H277606  -0.076   2.248  15.107 -0.7157  0.0949  0.9519
18731TIP3   OH277607   2.335   1.116  13.095  0.0463 -0.6650  0.5569
18731TIP3    H177608   2.340   1.207  13.067  0.5404 -0.9314 -0.2617
18731TIP3    H277609   2.425   1.092  13.116 -0.1827 -0.7518  1.5242
18732TIP3   OH277610   6.512   2.062  11.846 -0.3275 -0.0992 -0.2671
18732TIP3    H177611   6.448   2.084  11.914  1.0166 -0.4696  1.1660
18732TIP3    H277612   6.459   2.048  11.767 -2.0431 -0.6645  0.9231
18733TIP3   OH277613   1.091   0.120  16.072 -0.6810 -0.0797  0.3015
18733TIP3    H177614   1.044   0.041  16.099 -2.1518  0.5431 -0.2870
18733TIP3    H277615   1.080   0.122  15.977  0.6553  0.0561  0.1281
18734TIP3   OH277616   1.700   3.007  13.531  0.6862  0.0127  0.0545
18734TIP3    H177617   1.771   2.950  13.560  1.0523  0.8948  0.9806
18734TIP3    H277618   1.745   3.086  13.500  0.1245  0.3555  0.1142
18735TIP3   OH277619   1.145   6.566   4.418 -0.2651 -0.4907  0.1183
18735TIP3    H177620   1.161   6.489   4.473  0.9717  1.2548  2.3753
18735TIP3    H277621   1.230   6.610   4.413 -1.1433  1.2487 -0.2560
18736TIP3   OH277622   4.320   4.548  15.132  0.0715 -0.3770  0.3344
18736TIP3    H177623   4.350   4.463  15.165  1.1469  0.2876  1.1382
18736TIP3    H277624   4.278   4.589  15.208 -0.6303 -0.2728 -0.1096
18737TIP3   OH277625   1.274   1.859  16.040  0.2679 -0.3553  0.5353
18737TIP3    H177626   1.308   1.936  15.996 -0.7299 -1.0690 -1.6161
18737TIP3    H277627   1.326   1.786  16.006 -0.9099 -0.9998  0.0463
18738TIP3   OH277628   1.416   2.036  15.559  0.0140  0.3841  0.1160
18738TIP3    H177629   1.398   2.086  15.479  1.8805 -1.9962 -1.9869
18738TIP3    H277630   1.501   2.069  15.589  1.2627 -1.3490 -1.2918
18739TIP3   OH277631   6.440   0.211   3.620  0.3713 -0.0300  0.2308
18739TIP3    H177632   6.443   0.174   3.532  0.4014  0.3061  0.0884
18739TIP3    H277633   6.469   0.302   3.609  1.9457 -0.4337  0.8403
18740TIP3   OH277634   2.958   1.591   3.791 -0.5155  1.0095 -0.4985
18740TIP3    H177635   3.009   1.633   3.722 -0.3935  1.5756 -0.0698
18740TIP3    H277636   3.023   1.543   3.842 -0.4694  1.3932 -0.1964
18741TIP3   OH277637   2.669   0.410   2.877  0.1839  0.8467 -0.1685
18741TIP3    H177638   2.607   0.470   2.835 -1.4058 -0.6627 -0.1286
18741TIP3    H277639   2.717   0.370   2.805 -0.4269  0.4551 -0.3680
18742TIP3   OH277640   4.622   1.932  16.541 -0.9843  1.0920 -0.1788
18742TIP3    H177641   4.670   1.853  16.564 -2.3145 -0.0261 -1.0700
18742TIP3    H277642   4.656   1.957  16.455 -2.0851  0.1704 -0.9130
18743TIP3   OH277643   1.438   0.567  16.252  0.5612  0.0082 -0.1819
18743TIP3    H177644   1.463   0.657  16.228 -0.4926 -0.0872 -1.8176
18743TIP3    H277645   1.520   0.520  16.259  1.0333  0.5066 -1.9540
18744TIP3   OH277646   3.648   5.793   2.280 -0.6207 -0.1915 -0.2463
18744TIP3    H177647   3.579   5.756   2.335  1.8544 -0.4266  3.0127
18744TIP3    H277648   3.710   5.722   2.268 -0.9053 -0.0294 -3.2408
18745TIP3   OH277649   4.096   3.310   0.009  0.7766  0.0580 -0.1449
18745TIP3    H177650   4.163   3.262   0.059  1.7230  0.6139 -0.8554
18745TIP3    H277651   4.106   3.401   0.037  1.4056  0.3971 -1.4125
18746TIP3   OH277652   3.783   5.503  14.140  0.4851  0.1763 -0.0748
18746TIP3    H177653   3.873   5.531  14.123  0.4438  0.4482  0.1421
18746TIP3    H277654   3.789   5.408  14.150  0.8062  0.2313  0.3023
18747TIP3   OH277655   2.762   4.824  11.972  0.4848  0.0560 -0.0517
18747TIP3    H177656   2.752   4.784  11.886 -2.1058  0.2338  0.0739
18747TIP3    H277657   2.856   4.823  11.989  0.9260 -1.3138 -2.2277
18748TIP3   OH277658   5.349   2.593  11.319  0.4362  0.1280  0.3758
18748TIP3    H177659   5.378   2.666  11.264 -1.2972  1.1501  0.7482
18748TIP3    H277660   5.383   2.615  11.406 -0.3285  0.6610  0.5478
18749TIP3   OH277661   4.463   6.172   2.977 -0.0546 -0.3990 -0.4683
18749TIP3    H177662   4.469   6.121   3.058  2.9333  1.8885  0.9395
18749TIP3    H277663   4.507   6.118   2.912  0.9712 -0.6636  0.4092
18750TIP3   OH277664   3.820   4.658   5.085  0.0964 -0.5290 -0.6103
18750TIP3    H177665   3.844   4.570   5.056 -2.2236 -1.6446  0.5993
18750TIP3    H277666   3.755   4.688   5.022  0.5621  0.1876 -0.7699
18751TIP3   OH277667   5.648   6.095  14.324  0.5649 -0.2855 -0.9230
18751TIP3    H177668   5.588   6.024  14.303  0.0348  0.1613 -0.9377
18751TIP3    H277669   5.716   6.054  14.377 -1.0070 -0.3722  1.1368
18752TIP3   OH277670   0.687   3.957   5.317 -0.1835 -0.2752  0.0089
18752TIP3    H177671   0.669   4.033   5.261  0.9057  0.0903  0.1449
18752TIP3    H277672   0.621   3.893   5.290 -0.0303  0.0864 -1.3265
18753TIP3   OH277673   4.154   0.944  12.101  0.1624 -0.3648  0.0708
18753TIP3    H177674   4.154   0.895  12.019  1.4725  0.7937 -0.6521
18753TIP3    H277675   4.090   1.014  12.088 -0.2584 -0.6842  0.3750
18754TIP3   OH277676   3.649   4.328  16.171  0.5242 -0.3278  0.4157
18754TIP3    H177677   3.663   4.359  16.261  3.2661  0.7694 -0.2939
18754TIP3    H277678   3.724   4.271  16.154 -1.2668 -2.6015 -0.3898
18755TIP3   OH277679   2.025   5.862   2.855  0.0801  0.0582 -0.1763
18755TIP3    H177680   2.065   5.938   2.813  1.2241 -0.5237 -0.1745
18755TIP3    H277681   2.041   5.790   2.794  3.5925 -1.2445  2.0420
18756TIP3   OH277682   5.434   1.770   4.551 -0.1729 -0.1180  0.0659
18756TIP3    H177683   5.433   1.680   4.583  1.5062 -0.4425 -0.7133
18756TIP3    H277684   5.526   1.787   4.531 -0.6032  1.4644 -0.6662
18757TIP3   OH277685   4.953   0.305  15.740  0.8557 -0.7922 -0.8413
18757TIP3    H177686   4.888   0.314  15.809  0.8410 -0.1166 -0.9349
18757TIP3    H277687   4.904   0.319  15.659  1.4706  2.0402 -0.8282
18758TIP3   OH277688   3.759   3.749  13.148 -0.2188 -0.1437  0.0332
18758TIP3    H177689   3.703   3.795  13.211  0.7760 -0.5247  1.2430
18758TIP3    H277690   3.770   3.812  13.077 -0.4489  0.7581  0.7659
18759TIP3   OH277691   4.721   5.703   2.873 -0.1550 -0.3967  0.1080
18759TIP3    H177692   4.808   5.667   2.861 -0.2823 -0.4777 -0.5890
18759TIP3    H277693   4.726   5.750   2.957  0.5438 -0.4212  0.0845
18760TIP3   OH277694   3.628   2.577   2.309  0.0387 -0.6640 -0.0318
18760TIP3    H177695   3.652   2.489   2.337  1.7612 -0.3218 -0.3322
18760TIP3    H277696   3.709   2.615   2.275 -0.6890  1.0014 -0.0266
18761TIP3   OH277697   2.037   3.757  15.382  0.2778 -0.0972 -0.1410
18761TIP3    H177698   1.974   3.758  15.310  1.4067 -1.1114 -1.1879
18761TIP3    H277699   2.009   3.685  15.438 -0.1203  0.1559 -0.0134
18762TIP3   OH277700   3.227   2.413   5.739 -0.1908 -0.0264  0.3802
18762TIP3    H177701   3.201   2.505   5.749  1.6683  0.5546  0.4284
18762TIP3    H277702   3.169   2.378   5.672 -0.2758  1.4891 -0.3804
18763TIP3   OH277703   5.376   2.566  14.877  0.0070 -0.2509 -1.1263
18763TIP3    H177704   5.294   2.604  14.908 -0.6988 -1.6822 -1.1773
18763TIP3    H277705   5.413   2.633  14.819 -0.5071  0.9071 -0.1652
18764TIP3   OH277706   1.291   3.093  12.358 -0.2900 -0.2846 -0.3279
18764TIP3    H177707   1.354   3.144  12.307  0.0100 -0.4079 -0.0830
18764TIP3    H277708   1.334   3.009  12.373  0.5137  0.4638  1.9322
18765TIP3   OH277709   2.835   1.475  14.534 -0.1625  0.0174 -0.2318
18765TIP3    H177710   2.922   1.458  14.496  0.5890  0.1670  1.3483
18765TIP3    H277711   2.813   1.563  14.503 -0.9812 -1.0117 -2.8015
18766TIP3   OH277712   4.955   2.108  12.381 -0.1271  0.2930  0.3794
18766TIP3    H177713   5.020   2.045  12.411  3.0330  2.5273 -1.1362
18766TIP3    H277714   4.959   2.180  12.444 -1.5105  0.2727  0.5167
18767TIP3   OH277715   2.909   0.899  17.047 -0.0908  0.2080  0.3065
18767TIP3    H177716   2.815   0.878  17.053 -0.5878  2.2202  0.3422
18767TIP3    H277717   2.920   0.975  17.104  1.7888 -0.5663  1.0533
18768TIP3   OH277718   0.444   0.037  14.287 -0.3298  0.1787 -0.8279
18768TIP3    H177719   0.364  -0.014  14.276  1.6831 -4.1035  1.9145
18768TIP3    H277720   0.508  -0.005  14.230  0.8664  1.1599 -0.2695
18769TIP3   OH277721   5.233   5.457   3.152 -0.1646  0.5446  0.1210
18769TIP3    H177722   5.166   5.412   3.203  1.0399 -0.8193  0.5443
18769TIP3    H277723   5.235   5.546   3.188 -0.8022  0.2155  0.9981
18770TIP3   OH277724   2.401   4.239   3.680 -0.2136  0.0688  0.5214
18770TIP3    H177725   2.326   4.180   3.672  0.5333 -1.4564  3.4687
18770TIP3    H277726   2.391   4.300   3.607 -3.1658 -1.3263 -0.3942
18771TIP3   OH277727   1.644   6.764  14.032 -0.6087 -0.2135 -0.6754
18771TIP3    H177728   1.716   6.748  14.094  0.1624  0.3270 -1.4226
18771TIP3    H277729   1.565   6.743  14.082  0.1039 -1.7143 -0.1269
18772TIP3   OH277730   1.952   5.824  17.067 -0.4007  0.3298 -0.8713
18772TIP3    H177731   2.046   5.809  17.083 -0.1763 -0.1902 -2.5009
18772TIP3    H277732   1.949   5.870  16.983 -1.6029  0.6673 -0.6606
18773TIP3   OH277733   5.682   5.247   2.983  0.0429  0.3902 -0.2988
18773TIP3    H177734   5.727   5.231   2.901 -0.0766 -0.2980 -0.2380
18773TIP3    H277735   5.650   5.337   2.977  0.2628  0.4267 -0.8940
18774TIP3   OH277736   5.958   0.618  10.754 -0.5264  0.6633  0.6962
18774TIP3    H177737   5.971   0.684  10.686 -1.0241  0.7234  0.6585
18774TIP3    H277738   5.864   0.607  10.759 -0.4918  0.6691  1.3909
18775TIP3   OH277739   0.307   2.515  14.076  1.0480 -0.0006  0.2781
18775TIP3    H177740   0.298   2.601  14.117 -0.3840 -0.4215  0.9359
18775TIP3    H277741   0.283   2.453  14.145 -0.6573 -0.7678 -0.9284
18776TIP3   OH277742   6.287   5.241  15.292  0.3710 -0.5935  0.2076
18776TIP3    H177743   6.363   5.197  15.332  1.2381 -0.1623 -0.9298
18776TIP3    H277744   6.294   5.221  15.199 -0.7585 -0.3007  0.0529
18777TIP3   OH277745   5.563   3.004  16.763  0.3808  0.1606 -0.2307
18777TIP3    H177746   5.534   2.926  16.716 -1.6450 -0.1293  1.3326
18777TIP3    H277747   5.615   2.970  16.836 -0.1763  0.2703  0.2271
18778TIP3   OH277748   3.920   1.364  16.286  0.1381 -0.0169  0.2660
18778TIP3    H177749   3.963   1.352  16.201 -0.5392 -1.7001  0.1236
18778TIP3    H277750   3.962   1.301  16.344 -1.8401 -1.4962  0.2059
18779TIP3   OH277751   5.616   6.646   5.142 -0.1696 -0.1420  0.8608
18779TIP3    H177752   5.632   6.648   5.237 -0.0969 -0.8546  0.8714
18779TIP3    H277753   5.680   6.707   5.106 -0.2779  0.2272  1.2781
18780TIP3   OH277754   0.915   6.539  15.444  0.2427 -0.0586  0.1687
18780TIP3    H177755   0.957   6.462  15.481 -0.8731 -0.7439  0.0671
18780TIP3    H277756   0.821   6.525  15.459 -0.5370 -1.2736 -4.3405
18781TIP3   OH277757   0.078   0.270  14.947  0.5308 -0.5488 -0.7314
18781TIP3    H177758   0.064   0.231  14.861 -0.0251 -2.2430  0.0671
18781TIP3    H277759   0.140   0.211  14.990 -0.1484 -0.4435  0.4474
18782TIP3   OH277760   3.650   0.649  15.916 -0.2440  0.6477  0.3895
18782TIP3    H177761   3.613   0.714  15.856 -0.9383  1.3450  1.5447
18782TIP3    H277762   3.617   0.565  15.883  0.6452  0.8612 -1.1052
18783TIP3   OH277763   0.828   3.560   4.363  0.3655  0.3593  0.0408
18783TIP3    H177764   0.855   3.646   4.394 -0.2535  0.2851  0.8062
18783TIP3    H277765   0.765   3.529   4.428  1.0756 -0.9607  0.1389
18784TIP3   OH277766   5.160   1.688  14.105 -0.0293  0.2187  0.7035
18784TIP3    H177767   5.068   1.710  14.120 -0.5477 -0.6509 -0.9705
18784TIP3    H277768   5.202   1.702  14.190 -1.2194  2.9168  0.9591
18785TIP3   OH277769   2.977   3.905   1.623  0.3191 -0.6097 -0.5520
18785TIP3    H177770   3.008   3.823   1.583  0.0008 -0.7774 -0.4572
18785TIP3    H277771   2.896   3.880   1.668  0.4985 -0.3489 -0.0901
18786TIP3   OH277772   3.555   5.726   3.862 -0.4918 -0.2888 -0.2839
18786TIP3    H177773   3.650   5.743   3.864 -0.6923  0.9721 -0.4332
18786TIP3    H277774   3.534   5.696   3.950  0.1131 -0.9884 -0.3680
18787TIP3   OH277775   5.842   0.843   0.872  0.7088 -0.6576 -0.0310
18787TIP3    H177776   5.872   0.869   0.959 -2.1950  0.7548  0.6501
18787TIP3    H277777   5.891   0.899   0.812  1.4982 -0.4415  0.7965
18788TIP3   OH277778   3.746   4.770  11.627  0.2368  0.3760 -0.7320
18788TIP3    H177779   3.788   4.848  11.591  0.1333  0.5164 -0.5534
18788TIP3    H277780   3.654   4.796  11.638  0.1982  0.2223 -0.6952
18789TIP3   OH277781   1.428   0.893  17.062  0.5546  0.0042 -0.1665
18789TIP3    H177782   1.481   0.823  17.101  0.8832  0.6820  0.6399
18789TIP3    H277783   1.419   0.868  16.970  0.5075 -1.1848  0.1504
18790TIP3   OH277784   0.259   0.989  15.483  0.0416  0.3226 -0.4119
18790TIP3    H177785   0.331   0.932  15.456 -1.9239 -1.2725 -2.8191
18790TIP3    H277786   0.279   1.074  15.445  0.6241 -0.1139 -1.1033
18791TIP3   OH277787   3.921   1.980   0.583 -0.3253 -0.3531  0.1643
18791TIP3    H177788   3.858   2.013   0.648  0.3497  1.5535 -0.0867
18791TIP3    H277789   3.969   2.058   0.555 -0.5377 -1.1212 -2.5939
18792TIP3   OH277790   4.483   1.584   3.051 -0.1410  0.0700  0.0032
18792TIP3    H177791   4.420   1.511   3.054  0.0980 -0.1146  0.7031
18792TIP3    H277792   4.512   1.586   2.960 -2.7282  1.5167 -0.9038
18793TIP3   OH277793   0.351   6.226  12.152 -0.4003  0.5749  0.0185
18793TIP3    H177794   0.335   6.241  12.245 -0.8116 -1.0743  0.2558
18793TIP3    H277795   0.445   6.212  12.145 -0.0802  2.5342 -0.1420
18794TIP3   OH277796   3.508   2.680  10.460  0.7855  0.4245 -0.2638
18794TIP3    H177797   3.570   2.703  10.390  0.7100  0.6105 -0.2708
18794TIP3    H277798   3.422   2.684  10.419  0.8909 -1.8625 -0.7911
18795TIP3   OH277799   5.499   6.353  11.955  0.0726 -0.4167  0.6398
18795TIP3    H177800   5.423   6.323  12.006 -0.0217 -1.8645 -0.3109
18795TIP3    H277801   5.466   6.427  11.904 -0.0443  0.5242  2.0149
18796TIP3   OH277802   2.886   5.046   2.701  0.3027  0.3038  0.2295
18796TIP3    H177803   2.887   5.132   2.659 -0.8511  0.7875  1.1508
18796TIP3    H277804   2.832   4.991   2.644  1.8217 -0.1132 -0.8698
18797TIP3   OH277805   1.589   1.370  14.994 -0.0298  0.1710  0.2147
18797TIP3    H177806   1.540   1.410  14.922 -1.0153  0.0963  0.8365
18797TIP3    H277807   1.661   1.324  14.951 -1.4756 -1.1660 -0.8590
18798TIP3   OH277808   3.694   6.213  14.617 -0.3049  0.3878  0.3929
18798TIP3    H177809   3.771   6.162  14.640 -0.2891  0.5095  0.6152
18798TIP3    H277810   3.727   6.281  14.557 -0.7994 -1.6433 -2.3813
18799TIP3   OH277811   1.804   2.826  12.038  0.2187  0.4290 -0.3611
18799TIP3    H177812   1.724   2.788  12.002  1.2556 -2.3561  0.0357
18799TIP3    H277813   1.789   2.829  12.133  1.5427 -2.9122  0.0677
18800TIP3   OH277814   3.534   2.984  16.550  0.1577 -0.6118 -0.4687
18800TIP3    H177815   3.526   3.042  16.625  1.0377 -1.1993  0.1056
18800TIP3    H277816   3.448   2.945  16.539  0.1662 -0.9533  0.6056
18801TIP3   OH277817   0.592   5.525   4.135  0.6331  0.2428  0.0559
18801TIP3    H177818   0.631   5.609   4.113 -0.5740  0.8822  0.2432
18801TIP3    H277819   0.535   5.505   4.060 -1.1378  0.9356  1.1409
18802TIP3   OH277820   4.929   1.614  12.613  0.3221  0.8553  0.0078
18802TIP3    H177821   4.931   1.709  12.598 -0.8001  0.9389  0.3301
18802TIP3    H277822   4.994   1.600  12.682 -2.4124  2.0125  3.0539
18803TIP3   OH277823   1.190   3.496  16.055  0.3753  0.1086  0.1070
18803TIP3    H177824   1.138   3.416  16.043 -0.1135  0.1710  1.6753
18803TIP3    H277825   1.241   3.502  15.974 -1.5641 -0.3017 -1.2445
18804TIP3   OH277826   5.134   1.022   2.064  0.3397  0.2429  0.4407
18804TIP3    H177827   5.200   1.092   2.064  0.6623 -0.0573  0.0978
18804TIP3    H277828   5.178   0.948   2.106  0.5286 -0.2364 -0.5790
18805TIP3   OH277829   2.427   5.461  14.696 -0.4638 -0.0248 -0.1198
18805TIP3    H177830   2.466   5.460  14.608  0.5313 -1.5685  0.3050
18805TIP3    H277831   2.502   5.460  14.756 -1.0689 -2.7721  0.7251
18806TIP3   OH277832   6.512   0.940  10.653  0.1894  0.0442  0.1063
18806TIP3    H177833   6.549   1.028  10.665 -0.2700  0.1563  0.7868
18806TIP3    H277834   6.418   0.952  10.669 -0.0434 -0.3681 -0.8724
18807TIP3   OH277835   5.825   0.275  15.336  0.3892 -0.5847  0.0347
18807TIP3    H177836   5.734   0.264  15.307 -0.4416 -0.5298  2.3853
18807TIP3    H277837   5.822   0.348  15.398  2.4985  0.9479 -1.5273
18808TIP3   OH277838   1.138   5.601  16.031  0.2885 -0.3217 -0.1779
18808TIP3    H177839   1.229   5.582  16.053  0.1465 -2.6265 -1.3303
18808TIP3    H277840   1.129   5.575  15.940 -0.8826  2.4455 -0.9784
18809TIP3   OH277841   3.985   3.303  16.834  0.3650 -0.4047  0.1029
18809TIP3    H177842   4.013   3.225  16.785  0.1897 -0.4967  0.1498
18809TIP3    H277843   4.031   3.296  16.918  0.5825 -0.3019 -0.0054
18810TIP3   OH277844   5.573   2.639   4.510 -0.5411  0.0342 -0.0831
18810TIP3    H177845   5.570   2.550   4.545  0.8763  0.1463  0.4051
18810TIP3    H277846   5.497   2.645   4.453 -0.0616 -1.8669 -1.0194
18811TIP3   OH277847   6.567   4.517   2.623 -0.2410  0.7662 -0.0046
18811TIP3    H177848   6.607   4.496   2.539 -1.9468  1.0923 -0.9514
18811TIP3    H277849   6.639   4.513   2.686  0.8983 -0.4143 -1.3166
18812TIP3   OH277850   0.230   0.163  14.046  0.0701 -0.3552  0.5804
18812TIP3    H177851   0.313   0.146  14.090  0.9093  0.0457 -0.7641
18812TIP3    H277852   0.201   0.076  14.017  1.7764 -0.2373 -1.8495
18813TIP3   OH277853   4.543   5.713  16.000  0.3671  0.0331 -0.1852
18813TIP3    H177854   4.527   5.635  16.054 -0.6140 -1.2223 -2.1345
18813TIP3    H277855   4.457   5.735  15.963  1.2141 -0.2550 -2.5324
18814TIP3   OH277856   0.961   2.828   0.484 -0.0178  0.2494 -0.2498
18814TIP3    H177857   0.907   2.856   0.558 -0.4342  0.1764 -0.5231
18814TIP3    H277858   1.048   2.813   0.522  0.2982  2.1190 -0.1154
18815TIP3   OH277859   0.380   0.972  12.145 -0.5082 -0.4431  0.1394
18815TIP3    H177860   0.372   0.959  12.239 -0.6521 -2.2222 -0.0870
18815TIP3    H277861   0.310   0.919  12.107  0.3060 -0.7306 -1.0079
18816TIP3   OH277862   2.331   3.684   4.242  0.3165 -0.6181  0.0543
18816TIP3    H177863   2.292   3.633   4.313  1.8736 -1.6352  0.2218
18816TIP3    H277864   2.338   3.622   4.169  1.3930 -0.4059 -0.0368
18817TIP3   OH277865   4.045   2.012   1.046 -0.0938  0.0613  0.1248
18817TIP3    H177866   4.006   2.007   1.133  2.3617 -0.2666  1.2842
18817TIP3    H277867   3.971   2.004   0.986 -2.0219  1.5360  2.1481
18818TIP3   OH277868   1.172   4.429   3.845 -0.0817 -0.5587 -0.2149
18818TIP3    H177869   1.200   4.365   3.910  0.6984 -1.6665 -1.5798
18818TIP3    H277870   1.252   4.453   3.798 -0.3769  1.3782  0.1935
18819TIP3   OH277871   2.437   5.607   3.039 -0.3873 -0.0308  0.0243
18819TIP3    H177872   2.435   5.699   3.067 -0.5157 -0.2946  0.9031
18819TIP3    H277873   2.443   5.612   2.943 -0.0740  0.8929  0.0761
18820TIP3   OH277874   6.517   0.133  16.069 -0.1750 -0.2938 -0.0104
18820TIP3    H177875   6.599   0.098  16.034  1.2142  2.8497 -0.2739
18820TIP3    H277876   6.490   0.070  16.135  3.2557 -0.8396  1.0940
18821TIP3   OH277877   2.387   2.726  10.287  0.1583  0.3493  0.2908
18821TIP3    H177878   2.435   2.805  10.314  1.6523 -0.3304 -0.2620
18821TIP3    H277879   2.450   2.655  10.299 -0.4596 -0.4931 -1.2138
18822TIP3   OH277880   1.873   6.152  12.801  0.4912  0.2660  0.0447
18822TIP3    H177881   1.786   6.116  12.816  0.3415  0.9036  0.7199
18822TIP3    H277882   1.925   6.076  12.773 -0.0853 -0.2674  0.3835
18823TIP3   OH277883   0.426   4.552  16.604 -0.5980 -0.4806 -0.1104
18823TIP3    H177884   0.441   4.462  16.632  0.6950 -0.4266 -0.5682
18823TIP3    H277885   0.344   4.548  16.553 -0.2104 -1.5245 -0.6801
18824TIP3   OH277886   5.984   2.730   3.888 -0.0229  0.2280 -0.5347
18824TIP3    H177887   5.910   2.733   3.950 -0.2836 -0.0807 -0.8281
18824TIP3    H277888   5.992   2.638   3.866  0.5329  0.2456 -0.4146
18825TIP3   OH277889   2.845   3.857  12.438  0.3627  0.0131 -0.5575
18825TIP3    H177890   2.806   3.933  12.483 -0.6096 -0.5103 -0.4900
18825TIP3    H277891   2.862   3.889  12.349  0.1328  0.3635 -0.4790
18826TIP3   OH277892   2.238   2.700   5.600  0.4770  0.0060 -0.7981
18826TIP3    H177893   2.166   2.637   5.592  0.2486  0.2868 -0.9832
18826TIP3    H277894   2.201   2.783   5.569  0.6027  0.3661 -0.0086
18827TIP3   OH277895   6.070   3.810   4.784 -0.0254 -0.7169 -0.2272
18827TIP3    H177896   5.986   3.765   4.783 -0.7956  0.6967 -1.0136
18827TIP3    H277897   6.048   3.903   4.783  1.5506 -0.3165 -0.2359
18828TIP3   OH277898   6.012   1.041   0.678 -0.2246 -0.3050 -0.3963
18828TIP3    H177899   5.983   1.130   0.659 -0.3582 -0.6658 -1.9929
18828TIP3    H277900   6.090   1.029   0.624  0.6570 -0.6735  0.9211
18829TIP3   OH277901   0.259   6.523   3.849 -0.1777 -0.0934 -0.4063
18829TIP3    H177902   0.187   6.489   3.903 -0.1279  0.4996  0.0496
18829TIP3    H277903   0.289   6.447   3.800  0.0911 -0.7794  0.7642
18830TIP3   OH277904   6.194   0.097  10.765  0.0087  0.3489  0.7556
18830TIP3    H177905   6.230   0.069  10.682 -1.3499 -0.1923  0.3133
18830TIP3    H277906   6.195   0.019  10.820 -0.8714  0.2051  0.5835
18831TIP3   OH277907   0.449   1.897   4.073 -1.0960  0.5608  0.5356
18831TIP3    H177908   0.368   1.863   4.035 -1.6136  2.5941 -0.3192
18831TIP3    H277909   0.509   1.903   3.999 -0.1267 -0.8650  1.1531
18832TIP3   OH277910   0.328   3.799  10.709 -0.5778 -0.0183 -0.1984
18832TIP3    H177911   0.315   3.709  10.677 -4.8409  0.1189  0.5797
18832TIP3    H277912   0.397   3.791  10.774  2.4910 -1.7646 -3.2986
18833TIP3   OH277913   2.957   5.597   3.193  0.0530  0.1771 -0.1344
18833TIP3    H177914   2.977   5.537   3.121 -0.7313  0.2586 -0.4290
18833TIP3    H277915   2.862   5.605   3.192  0.0911  0.8040  0.4106
18834TIP3   OH277916   5.931   1.496   1.486  0.5622 -0.2039 -0.0680
18834TIP3    H177917   5.983   1.502   1.406 -0.7122 -0.0433 -0.9050
18834TIP3    H277918   5.894   1.408   1.485  2.4553 -1.0924  1.6014
18835TIP3   OH277919   5.150   3.944   6.526 -0.3342 -0.4565 -0.1730
18835TIP3    H177920   5.056   3.928   6.522 -0.6452  0.7359  1.4459
18835TIP3    H277921   5.169   3.998   6.449 -1.0935 -0.1999 -0.1839
18836TIP3   OH277922   1.986   4.161   6.222  0.3394  0.1096 -0.0197
18836TIP3    H177923   1.961   4.069   6.215  1.6849 -0.2785 -0.1091
18836TIP3    H277924   1.984   4.179   6.316 -0.0692  0.0323 -0.0124
18837TIP3   OH277925   0.248   6.088   1.082 -0.1925  0.1294  0.3186
18837TIP3    H177926   0.311   6.126   1.022 -1.3619  1.9022  0.1411
18837TIP3    H277927   0.289   6.096   1.168  0.2029  0.4095  0.1050
18838TIP3   OH277928   0.147   2.970   1.099  0.1503 -0.3236  0.2110
18838TIP3    H177929   0.116   3.042   1.044  2.3251  0.5954  0.0559
18838TIP3    H277930   0.075   2.908   1.101 -1.6738  1.6661  0.0114
18839TIP3   OH277931   5.933   5.684   4.293  0.7704 -0.4926  0.3815
18839TIP3    H177932   6.009   5.719   4.247 -0.4695  2.9035  0.7001
18839TIP3    H277933   5.905   5.754   4.351 -2.0524 -1.9912  1.0150
18840TIP3   OH277934   5.516   5.084   0.761 -0.0906  0.1015  0.6592
18840TIP3    H177935   5.595   5.049   0.720  1.4071  2.7548  1.0836
18840TIP3    H277936   5.448   5.021   0.738  2.2283 -2.7089  0.8846
18841TIP3   OH277937   0.819   2.013  13.800  0.1967  0.6187 -0.4560
18841TIP3    H177938   0.749   2.077  13.788 -0.9911 -0.7837 -1.4469
18841TIP3    H277939   0.774   1.928  13.803  1.8161 -0.2926 -0.5927
18842TIP3   OH277940   4.997   5.820  12.334 -0.2046  0.0223 -0.1233
18842TIP3    H177941   5.025   5.849  12.421  1.2997  0.9619 -0.8788
18842TIP3    H277942   4.919   5.871  12.316 -0.8847 -0.6121  0.8911
18843TIP3   OH277943   5.053   3.968   3.979  0.5558 -0.1970 -0.8701
18843TIP3    H177944   5.145   3.952   3.957  0.4052 -1.7486 -0.4493
18843TIP3    H277945   5.055   4.002   4.068  0.7862  0.9012 -1.2799
18844TIP3   OH277946   6.669   0.773  12.439  0.0863  0.3096  0.3650
18844TIP3    H177947   6.586   0.749  12.482  0.3241 -0.9936  0.1262
18844TIP3    H277948   6.644   0.791  12.349 -0.4677  3.3591  0.9966
18845TIP3   OH277949   5.738   5.101   3.816  0.0246 -0.6525 -0.0399
18845TIP3    H177950   5.834   5.097   3.813  0.0695  0.4604 -0.9791
18845TIP3    H277951   5.711   5.079   3.727 -0.5775 -0.6255  0.1356
18846TIP3   OH277952   5.520   0.644   1.995  0.7269  0.1591 -0.4854
18846TIP3    H177953   5.484   0.571   2.046  0.5293  0.3607 -0.3323
18846TIP3    H277954   5.531   0.715   2.059 -0.8843  0.8936 -0.9734
18847TIP3   OH277955   3.211   2.303  15.292 -0.0388 -0.2170 -0.8385
18847TIP3    H177956   3.152   2.235  15.261 -1.1125  0.3774 -0.1532
18847TIP3    H277957   3.159   2.355  15.353  2.0893 -1.5567  2.3449
18848TIP3   OH277958   4.204   4.651  15.343 -0.0831  0.3639 -0.4358
18848TIP3    H177959   4.236   4.681  15.428 -0.2551 -1.2023  0.2213
18848TIP3    H277960   4.115   4.686  15.337  0.6409  2.1954 -0.9152
18849TIP3   OH277961   6.471   6.285   4.693 -0.1039 -0.2668  0.2876
18849TIP3    H177962   6.420   6.234   4.756 -0.8329 -1.2221 -1.0222
18849TIP3    H277963   6.506   6.220   4.633  0.9983  0.5764 -0.0099
18850TIP3   OH277964   0.390   6.323  13.584  0.0523 -0.2016  0.4520
18850TIP3    H177965   0.426   6.398  13.632  0.4385  0.0656 -0.2391
18850TIP3    H277966   0.467   6.281  13.544 -0.3209  0.0097 -0.5232
18851TIP3   OH277967   0.501   5.341  16.146 -0.2277 -0.4216 -0.0114
18851TIP3    H177968   0.429   5.297  16.103 -0.0455 -0.5022 -0.2346
18851TIP3    H277969   0.482   5.333  16.240  0.2254 -1.6863 -0.0158
18852TIP3   OH277970   0.288   4.401  11.370 -0.2336  0.3358  0.4376
18852TIP3    H177971   0.272   4.483  11.324  4.0436  1.3430  0.2851
18852TIP3    H277972   0.288   4.334  11.302 -0.5713  0.7222  0.0523
18853TIP3   OH277973   2.926   6.504   0.868 -0.1576  0.1856 -0.1053
18853TIP3    H177974   2.914   6.472   0.778 -1.5846  2.2042 -0.7114
18853TIP3    H277975   2.884   6.438   0.923 -1.3995  0.0840 -1.1317
18854TIP3   OH277976   0.390   3.881  14.912  0.1827 -0.5874 -0.3151
18854TIP3    H177977   0.466   3.931  14.941  0.3157 -0.2157 -1.2844
18854TIP3    H277978   0.321   3.946  14.902 -0.6104 -1.0556  1.6075
18855TIP3   OH277979   3.033   1.589   2.341  0.9114 -0.0034 -0.0292
18855TIP3    H177980   3.062   1.510   2.296  1.4643 -0.1413  0.5542
18855TIP3    H277981   3.001   1.559   2.426 -2.0631  0.0010 -1.0449
18856TIP3   OH277982   2.177   0.685   4.943 -0.2522  0.5399  0.6597
18856TIP3    H177983   2.186   0.780   4.944 -3.2139  0.9163  0.5186
18856TIP3    H277984   2.240   0.654   5.008  2.2470  2.3549 -0.7047
18857TIP3   OH277985   2.753   1.397  11.869 -0.4350  0.2460 -0.3029
18857TIP3    H177986   2.718   1.471  11.820 -0.3005  0.1311 -0.5716
18857TIP3    H277987   2.842   1.424  11.893  0.3489 -0.5861 -2.0800
18858TIP3   OH277988   0.841   5.788  14.332  0.2182  0.1860 -0.0795
18858TIP3    H177989   0.830   5.726  14.260 -0.4807 -0.4049  0.5078
18858TIP3    H277990   0.931   5.819  14.325  0.4881 -0.6902 -0.5601
18859TIP3   OH277991   3.443   2.614   1.910 -0.0902  0.1308 -0.3181
18859TIP3    H177992   3.511   2.680   1.894 -0.2079 -0.0064 -1.5063
18859TIP3    H277993   3.411   2.592   1.822 -3.2277  1.7759  0.2938
18860TIP3   OH277994   6.745   1.958   3.441 -0.5707 -0.3684  0.1497
18860TIP3    H177995   6.771   1.901   3.514 -0.6892 -0.7970 -0.1363
18860TIP3    H277996   6.714   2.038   3.483  0.4987 -0.1368  0.5251
18861TIP3   OH277997   6.477   0.119  16.923  0.4452 -0.0596  0.2508
18861TIP3    H177998   6.502   0.043  16.870 -0.9816  0.0748 -0.6904
18861TIP3    H277999   6.403   0.088  16.975 -1.9235  1.2888 -2.0670
18862TIP3   OH278000   5.066   6.617   4.149  0.2517 -0.5776  0.5810
18862TIP3    H178001   5.104   6.690   4.197  1.7522 -0.2096 -1.0484
18862TIP3    H278002   5.077   6.641   4.057  1.3948 -3.1007 -0.0364
18863TIP3   OH278003   0.711   5.129   4.923 -0.1755  0.3920 -0.1795
18863TIP3    H178004   0.624   5.100   4.897  0.1992 -2.6003  1.4320
18863TIP3    H278005   0.699   5.164   5.011 -0.0961  2.4044 -0.9276
18864TIP3   OH278006   2.420   3.501   1.940 -0.1268  0.5108 -0.6457
18864TIP3    H178007   2.334   3.460   1.937  0.2137 -0.1778 -1.5068
18864TIP3    H278008   2.435   3.519   2.032 -0.6197 -0.6192 -0.3282
18865TIP3   OH278009   6.188   0.538   3.356 -0.1347 -0.1735 -0.6604
18865TIP3    H178010   6.185   0.488   3.437 -0.6468 -1.0924 -1.2234
18865TIP3    H278011   6.191   0.630   3.383  1.8132 -0.5225  0.4107
18866TIP3   OH278012   3.335   5.177  13.970  0.7850  0.0888 -0.3213
18866TIP3    H178013   3.378   5.262  13.965  1.7154 -0.3028  0.6358
18866TIP3    H278014   3.401   5.114  13.943  0.6777 -0.4806  0.6848
18867TIP3   OH278015   4.674   3.273   0.855  0.6327 -0.0128  0.0597
18867TIP3    H178016   4.612   3.204   0.878 -0.1737  0.6863  0.0433
18867TIP3    H278017   4.620   3.341   0.815  1.7213 -0.3725 -2.1592
18868TIP3   OH278018   3.861   1.864  12.733  0.0825  0.2962 -0.6682
18868TIP3    H178019   3.854   1.802  12.660 -0.8015 -0.4111  0.0080
18868TIP3    H278020   3.869   1.949  12.691 -0.1007 -0.1353 -1.6009
18869TIP3   OH278021   0.615   5.611  15.046 -0.0492  0.2146  0.1286
18869TIP3    H178022   0.687   5.673  15.031 -0.7864  1.2554  0.8231
18869TIP3    H278023   0.658   5.533  15.082  0.5767  1.5259  2.4333
18870TIP3   OH278024   5.907   6.147  14.327 -0.2838  0.0603  0.3658
18870TIP3    H178025   5.907   6.067  14.380 -2.7721 -0.2447  0.0094
18870TIP3    H278026   5.845   6.129  14.256  1.3703  1.2329 -1.4836
18871TIP3   OH278027   6.116   4.290  16.980  0.3645  0.1584 -0.4703
18871TIP3    H178028   6.065   4.311  16.902  0.0264 -0.0793 -0.3149
18871TIP3    H278029   6.051   4.290  17.051  0.8481  1.4926 -0.0037
18872TIP3   OH278030   0.899   4.700   4.875  0.5827 -0.2434  0.4510
18872TIP3    H178031   0.975   4.650   4.905  0.7620  0.3840  1.0701
18872TIP3    H278032   0.928   4.791   4.877  0.2012 -0.0878 -0.4900
18873TIP3   OH278033   4.753   5.993  14.305 -0.0817 -0.4620 -0.1473
18873TIP3    H178034   4.763   6.070  14.250 -1.0852  0.4211  0.8443
18873TIP3    H278035   4.668   6.005  14.347 -0.1453 -1.9927  0.2170
18874TIP3   OH278036   2.144   3.381  15.347 -0.4022 -0.0323  0.2092
18874TIP3    H178037   2.183   3.426  15.271 -0.4417 -0.1445  0.1229
18874TIP3    H278038   2.180   3.293  15.344  0.8322  0.4099  1.2199
18875TIP3   OH278039   1.407   6.189   1.589 -0.3482  0.4360  0.5253
18875TIP3    H178040   1.462   6.247   1.536 -1.5241  0.1994 -1.0408
18875TIP3    H278041   1.404   6.108   1.539 -0.5669 -0.2089  1.5624
18876TIP3   OH278042   4.830   2.491  12.826 -0.6238 -0.6000 -0.3645
18876TIP3    H178043   4.755   2.530  12.871 -0.9316 -0.0284 -1.3481
18876TIP3    H278044   4.851   2.553  12.757 -0.5863 -1.7631 -1.4211
18877TIP3   OH278045   0.425   3.687   1.450  0.2497  0.2435 -0.2979
18877TIP3    H178046   0.367   3.729   1.387  0.1467 -0.1153 -0.4469
18877TIP3    H278047   0.402   3.727   1.534 -0.7262 -0.3926 -0.2350
18878TIP3   OH278048   6.316   6.566  11.360  0.2897  0.4084  0.5451
18878TIP3    H178049   6.229   6.601  11.382 -0.2295  0.5480 -1.5456
18878TIP3    H278050   6.375   6.640  11.371 -0.3738  1.2197 -1.1131
18879TIP3   OH278051   0.096   1.084   3.810  0.0618 -0.1969 -0.0764
18879TIP3    H178052   0.006   1.050   3.810  0.3634 -1.0515  0.9295
18879TIP3    H278053   0.123   1.077   3.718 -0.8801  0.0254 -0.3840
18880TIP3   OH278054   2.487   4.443  16.360  0.0403  0.1749 -0.2994
18880TIP3    H178055   2.515   4.521  16.407  1.3418  0.9809 -2.2798
18880TIP3    H278056   2.449   4.387  16.427  1.7034  1.2739  1.6651
18881TIP3   OH278057   3.459   6.030   3.971  0.0660 -0.0187  0.3184
18881TIP3    H178058   3.524   6.030   3.900 -0.8728 -0.3626 -0.5756
18881TIP3    H278059   3.376   6.011   3.927 -0.3481 -1.6197  1.6843
18882TIP3   OH278060   1.140   6.588  12.978  0.0781  0.0029 -0.7977
18882TIP3    H178061   1.141   6.668  12.926 -0.4822  0.4999 -0.0727
18882TIP3    H278062   1.048   6.561  12.980  0.0456  0.1330  0.1195
18883TIP3   OH278063   0.073   0.453   4.507  0.5961 -0.4802 -0.3348
18883TIP3    H178064   0.167   0.447   4.490  0.8314  0.5840  0.4684
18883TIP3    H278065   0.040   0.364   4.491  1.7674 -0.9239 -0.4166
18884TIP3   OH278066   6.649   2.360   2.312 -0.1569 -0.0430 -0.2557
18884TIP3    H178067   6.619   2.286   2.259  0.0065 -1.2395  1.2414
18884TIP3    H278068   6.594   2.356   2.391  1.8857 -0.4659  1.2249
18885TIP3   OH278069   1.558   4.805   3.643 -0.2608  0.6611  0.2581
18885TIP3    H178070   1.573   4.872   3.576  1.6873  1.0671  1.0439
18885TIP3    H278071   1.602   4.727   3.609 -1.7963 -0.0406 -0.2519
18886TIP3   OH278072   6.228   0.607   1.508  0.2535 -0.3031  0.6556
18886TIP3    H178073   6.261   0.555   1.435  1.1762 -0.4897  1.1955
18886TIP3    H278074   6.159   0.554   1.547 -0.3859 -0.1165 -0.1931
18887TIP3   OH278075   0.922   2.648   3.018 -0.1008 -0.5701 -0.0785
18887TIP3    H178076   0.961   2.688   2.940 -0.5163  1.2160  0.5872
18887TIP3    H278077   0.863   2.581   2.983  1.1307 -1.1073 -1.2122
18888TIP3   OH278078   2.185   2.721  15.609  0.0016 -0.4362  0.3361
18888TIP3    H178079   2.129   2.788  15.572  1.6853  0.4741 -0.6998
18888TIP3    H278080   2.167   2.724  15.703 -0.2419  1.2019  0.2680
18889TIP3   OH278081   3.738   5.487   3.538 -0.6815  0.0415 -0.4793
18889TIP3    H178082   3.805   5.461   3.475 -1.3128 -0.7126 -0.8634
18889TIP3    H278083   3.711   5.574   3.510 -0.5947 -0.0791 -0.9476
18890TIP3   OH278084   5.043   3.749  13.480 -1.2420 -0.0842  0.1952
18890TIP3    H178085   4.973   3.700  13.523 -1.0018  0.2479  0.9889
18890TIP3    H278086   5.092   3.684  13.430 -1.4659 -0.4981  0.5150
18891TIP3   OH278087   0.324   5.938   1.697  0.0268  0.8234 -0.2410
18891TIP3    H178088   0.319   6.004   1.767  3.1590  1.1774 -0.1936
18891TIP3    H278089   0.416   5.914   1.694 -0.5045 -1.2924 -2.3987
18892TIP3   OH278090   4.086   4.946  15.928  0.2272 -0.0029  0.4748
18892TIP3    H178091   3.993   4.927  15.942 -0.0731  2.1474  1.8388
18892TIP3    H278092   4.115   4.986  16.010  1.8186  1.2332 -0.6316
18893TIP3   OH278093   4.320   4.892  15.153 -0.2572  0.4946 -0.2675
18893TIP3    H178094   4.242   4.856  15.195  0.6794 -0.0310  1.0872
18893TIP3    H278095   4.351   4.822  15.096 -0.7454  0.6966 -0.7930
18894TIP3   OH278096   1.356   1.649  12.562  0.2561 -0.5191  0.3110
18894TIP3    H178097   1.388   1.661  12.472 -2.1516  0.9894 -0.4565
18894TIP3    H278098   1.272   1.604  12.551 -1.1148  1.5909  1.5924
18895TIP3   OH278099   0.143   6.143  16.997 -0.4784 -0.0595  0.2538
18895TIP3    H178100   0.055   6.176  16.984 -0.1039  0.4731 -1.1357
18895TIP3    H278101   0.138   6.090  17.076 -2.1633 -0.4796 -0.1085
18896TIP3   OH278102   4.266   5.106   0.367  0.0934  0.4085  0.4066
18896TIP3    H178103   4.288   5.189   0.324 -1.2800  0.6080  0.0387
18896TIP3    H278104   4.173   5.114   0.388  0.1263 -0.7421  1.0692
18897TIP3   OH278105   5.938   5.842  10.954  0.2460 -0.0888 -0.0345
18897TIP3    H178106   5.849   5.856  10.920  0.2318 -0.9006 -0.3484
18897TIP3    H278107   5.989   5.916  10.920 -0.5583  1.0575  1.1286
18898TIP3   OH278108   6.598   5.936  14.133 -0.3678 -0.3879  0.2345
18898TIP3    H178109   6.671   5.895  14.085 -0.5175  0.0302 -0.3621
18898TIP3    H278110   6.544   5.975  14.065 -1.1925 -0.7501  0.6725
18899TIP3   OH278111   3.252   5.730  17.008  0.4457  0.1843  0.1812
18899TIP3    H178112   3.226   5.793  17.074 -1.9268 -0.5058 -0.0180
18899TIP3    H278113   3.223   5.645  17.042  0.6573 -0.3860 -0.9890
18900TIP3   OH278114   5.740   2.137   5.676 -0.3061 -0.1594 -0.0289
18900TIP3    H178115   5.721   2.099   5.590  0.6965 -0.4341 -0.1405
18900TIP3    H278116   5.833   2.162   5.671 -0.1990 -0.3146  1.0233
18901TIP3   OH278117   0.034   4.058  16.806  0.4977 -0.1385  0.7065
18901TIP3    H178118   0.121   4.078  16.771  0.3278 -0.0854  0.2972
18901TIP3    H278119   0.030   4.101  16.891  1.3977 -1.3277  1.3825
18902TIP3   OH278120   2.119   4.751  11.708  0.1682 -0.6078 -0.1390
18902TIP3    H178121   2.036   4.748  11.756 -1.0553  1.5034 -1.9383
18902TIP3    H278122   2.094   4.738  11.617  2.0469 -1.4233 -0.5802
18903TIP3   OH278123   0.519   1.675   4.527 -0.5710 -0.5643 -0.3876
18903TIP3    H178124   0.527   1.689   4.433 -1.6813 -0.1962 -0.4427
18903TIP3    H278125   0.609   1.673   4.559 -0.2031 -0.0466 -1.3653
18904TIP3   OH278126   4.275   0.977   4.248  0.0646  0.0833  0.8153
18904TIP3    H178127   4.257   1.061   4.205 -2.8361  0.2336  2.0685
18904TIP3    H278128   4.357   0.991   4.295  0.1061  1.9349  0.2717
18905TIP3   OH278129   3.428   0.101   1.033  0.2201 -0.1544 -0.4133
18905TIP3    H178130   3.503   0.114   0.975  0.1873  0.7163 -0.2779
18905TIP3    H278131   3.378   0.030   0.992  1.6405 -1.4772  0.0391
18906TIP3   OH278132   4.955   5.222   4.794  0.2378 -0.0434  0.3561
18906TIP3    H178133   4.996   5.285   4.733  0.2925  0.0591  0.4976
18906TIP3    H278134   4.963   5.138   4.750  0.2413  0.0367  0.2021
18907TIP3   OH278135   1.704   3.001  15.692 -0.0909  0.4849  0.3828
18907TIP3    H178136   1.719   3.088  15.653  2.1036  0.0098  0.0212
18907TIP3    H278137   1.655   3.019  15.772  1.1991  2.2155  0.8523
18908TIP3   OH278138   6.631   3.425  15.609 -0.3184 -0.4405  0.2862
18908TIP3    H178139   6.603   3.516  15.596  0.8854 -0.1374 -0.3094
18908TIP3    H278140   6.630   3.387  15.521  0.5691 -0.5813  0.3316
18909TIP3   OH278141   6.330   6.625  16.766 -0.3421 -0.1191  0.4385
18909TIP3    H178142   6.265   6.694  16.781 -0.5091  0.6349 -2.9931
18909TIP3    H278143   6.406   6.652  16.818 -1.5489  0.7620  1.8570
18910TIP3   OH278144   1.073   0.357   5.333 -0.5719 -0.5140 -0.1530
18910TIP3    H178145   1.120   0.421   5.278 -0.8024 -0.4068 -0.2269
18910TIP3    H278146   1.018   0.411   5.390 -1.6741 -0.6765 -1.0355
18911TIP3   OH278147   1.004   3.913   2.558 -0.1172 -0.2437  0.3953
18911TIP3    H178148   0.946   3.899   2.634  0.1974 -1.0528  0.4932
18911TIP3    H278149   0.973   3.851   2.492 -0.3208  0.3848 -0.1054
18912TIP3   OH278150   4.186   6.086  12.852  0.4741  0.2676 -0.0803
18912TIP3    H178151   4.133   6.020  12.807  0.4324 -0.6129  1.2122
18912TIP3    H278152   4.229   6.134  12.781 -0.5395 -0.2637 -1.0909
18913TIP3   OH278153   3.198   6.638  14.656 -0.2231  0.0304 -0.3521
18913TIP3    H178154   3.156   6.642  14.741 -0.0837  1.8380 -0.3416
18913TIP3    H278155   3.218   6.545  14.644 -1.4081 -0.4277  0.9916
18914TIP3   OH278156   1.196   1.710   0.218  0.2535  0.0244  0.7168
18914TIP3    H178157   1.163   1.622   0.238 -0.8693  0.8344  2.6590
18914TIP3    H278158   1.225   1.744   0.302  1.4297  1.2397 -0.1554
18915TIP3   OH278159   3.419   4.194  13.382  0.0712 -0.1198 -0.1226
18915TIP3    H178160   3.490   4.203  13.445  0.2197  0.6520 -0.3855
18915TIP3    H278161   3.396   4.284  13.358 -1.3155 -0.3272  0.2969
18916TIP3   OH278162   6.163   6.274   3.147  0.1708 -0.4882 -0.0268
18916TIP3    H178163   6.146   6.223   3.068  0.9130 -0.2865 -0.3261
18916TIP3    H278164   6.200   6.211   3.209 -1.3230 -0.8620  0.5211
18917TIP3   OH278165   3.456   0.399   3.740 -0.2994  0.4299 -0.5968
18917TIP3    H178166   3.426   0.447   3.817  1.4080  2.5656 -1.1775
18917TIP3    H278167   3.403   0.434   3.668  0.7839  1.3462 -0.9812
18918TIP3   OH278168   4.990   0.118  12.420 -0.3910 -0.0521 -0.1423
18918TIP3    H178169   5.056   0.071  12.368 -0.4615 -1.0785  0.6671
18918TIP3    H278170   5.037   0.146  12.499  0.0880  2.7305 -1.2970
18919TIP3   OH278171   1.844   0.795   0.877 -0.0229 -0.0765  0.6514
18919TIP3    H178172   1.752   0.779   0.896 -0.5378  2.1406  0.2164
18919TIP3    H278173   1.857   0.757   0.790 -0.3217 -0.9898  0.9882
18920TIP3   OH278174   6.774   0.457   6.100 -0.7697 -0.1247 -0.4893
18920TIP3    H178175   6.687   0.478   6.068 -0.0472  0.8175 -1.9753
18920TIP3    H278176   6.800   0.532   6.153 -0.8742 -0.4502  0.0407
18921TIP3   OH278177   4.401   0.822  15.826 -0.1015  0.0332  0.2514
18921TIP3    H178178   4.393   0.858  15.914  1.3035  0.4674  0.2270
18921TIP3    H278179   4.361   0.735  15.832 -0.2155  0.1375  1.2480
18922TIP3   OH278180   1.124   2.295  11.353 -0.1025 -0.2710  0.2103
18922TIP3    H178181   1.105   2.371  11.299  0.0628 -0.0739  0.4229
18922TIP3    H278182   1.153   2.228  11.292  1.0171  0.2558  0.1416
18923TIP3   OH278183   4.991   4.578  14.843 -0.1264  0.0762  0.2107
18923TIP3    H178184   4.914   4.635  14.846 -0.9428 -1.0438  2.1096
18923TIP3    H278185   4.956   4.492  14.821  0.8088 -0.1396 -0.4667
18924TIP3   OH278186   6.225   4.111  15.256 -0.1188  0.6984 -0.0483
18924TIP3    H178187   6.182   4.038  15.211  0.8994 -0.3872  0.6864
18924TIP3    H278188   6.315   4.109  15.225 -0.0634  1.6261  0.0244
18925TIP3   OH278189   1.769   5.309   4.233  0.1106 -0.2272 -0.2040
18925TIP3    H178190   1.698   5.251   4.260  1.3691 -3.5402 -3.1536
18925TIP3    H278191   1.733   5.359   4.160  0.1306 -0.1744 -0.1777
18926TIP3   OH278192   3.508   0.793  15.712 -0.4528 -0.0115 -0.2753
18926TIP3    H178193   3.582   0.744  15.676  0.9242  2.0715 -0.4872
18926TIP3    H278194   3.509   0.877  15.665 -2.1852  0.5584  0.6021
18927TIP3   OH278195   6.777   0.507   3.611  0.1499 -0.0943  0.0348
18927TIP3    H178196   6.831   0.430   3.627 -0.1617 -0.3997 -0.3632
18927TIP3    H278197   6.778   0.518   3.516 -0.8920 -0.4046 -0.0237
18928TIP3   OH278198   2.947   6.391  16.622  0.4250  0.2665  0.3769
18928TIP3    H178199   2.897   6.445  16.561  0.9131 -0.1388 -0.4011
18928TIP3    H278200   2.884   6.366  16.690  0.2164  1.9083  0.8361
18929TIP3   OH278201   2.094   6.551   2.242  0.1132 -0.0240 -0.0337
18929TIP3    H178202   2.190   6.550   2.241  0.1663  1.6707 -1.1533
18929TIP3    H278203   2.072   6.642   2.261 -1.2266  0.1049 -1.9609
18930TIP3   OH278204   2.574   1.582   3.692  0.2204 -0.2070  0.1589
18930TIP3    H178205   2.533   1.569   3.777 -0.3863 -0.1555 -0.1239
18930TIP3    H278206   2.571   1.676   3.677  1.7309 -0.0362  0.7669
18931TIP3   OH278207   1.808   2.380   5.225 -0.3335 -0.0165  0.0023
18931TIP3    H178208   1.862   2.436   5.281 -0.9314 -0.5596  1.1596
18931TIP3    H278209   1.720   2.418   5.232 -0.4281 -0.1262 -0.5413
18932TIP3   OH278210   6.302   2.925  10.290 -0.0336  0.1298 -1.2242
18932TIP3    H178211   6.237   2.871  10.336  0.3994 -1.0655 -1.9585
18932TIP3    H278212   6.285   2.908  10.198 -0.8142  2.4055 -1.5719
18933TIP3   OH278213   2.007   5.136   1.748  0.4793  0.7037  0.4212
18933TIP3    H178214   2.030   5.229   1.751 -0.6934  1.0400 -0.3117
18933TIP3    H278215   1.966   5.119   1.833  1.6472  0.5763  0.9760
18934TIP3   OH278216   0.315   2.331   6.193 -0.5232  0.1468 -0.2730
18934TIP3    H178217   0.368   2.390   6.139  1.3581 -0.5506  0.7027
18934TIP3    H278218   0.234   2.379   6.209 -0.5314  0.9618 -2.4627
18935TIP3   OH278219   3.600   4.440  11.593 -0.3139  0.2836 -0.0491
18935TIP3    H178220   3.626   4.395  11.512  0.5952  1.0398 -0.1914
18935TIP3    H278221   3.682   4.451  11.641 -1.0269 -1.4918  1.7064
18936TIP3   OH278222   0.453   3.097   4.963  0.0424 -0.1731 -0.0718
18936TIP3    H178223   0.542   3.130   4.947  0.7641 -1.5571  0.8400
18936TIP3    H278224   0.432   3.128   5.051 -0.6042  0.5782 -0.4791
18937TIP3   OH278225   1.501   5.854  15.135 -0.1366  0.0073  0.5327
18937TIP3    H178226   1.538   5.842  15.223  0.9881 -2.8051 -0.2087
18937TIP3    H278227   1.422   5.906  15.149  0.4047  0.2750  3.0954
18938TIP3   OH278228   0.231   2.244  13.688  0.0657  0.0874  0.3256
18938TIP3    H178229   0.282   2.321  13.712  0.8607 -0.6314  1.0421
18938TIP3    H278230   0.291   2.191  13.635 -1.0749  0.7851 -1.7595
18939TIP3   OH278231   3.398   4.745  12.865 -0.7363 -0.4333 -0.3851
18939TIP3    H178232   3.406   4.666  12.919 -0.3746  0.4541  0.9056
18939TIP3    H278233   3.444   4.723  12.784  0.6378 -1.0777  0.5168
18940TIP3   OH278234   4.311   5.442  14.925 -0.1137 -0.6198  0.0456
18940TIP3    H178235   4.303   5.380  14.998 -0.2621  1.8187  2.2572
18940TIP3    H278236   4.223   5.478  14.915  0.2222  0.0854 -0.3818
18941TIP3   OH278237   4.553   2.857   2.307  0.6121 -0.9813  0.3488
18941TIP3    H178238   4.558   2.930   2.368  0.7832 -0.4313 -0.3063
18941TIP3    H278239   4.554   2.898   2.220  0.7727 -1.7614 -0.0299
18942TIP3   OH278240   6.035   3.178   6.425 -0.0555 -0.5234 -0.1406
18942TIP3    H178241   6.126   3.151   6.435  0.2084  0.1273 -0.7188
18942TIP3    H278242   5.984   3.097   6.432  0.5741 -0.9033  0.0583
18943TIP3   OH278243   2.922   2.693   1.661 -0.2461 -0.1932  0.4745
18943TIP3    H178244   2.904   2.676   1.569  1.1926 -1.9492  0.4504
18943TIP3    H278245   2.957   2.782   1.663  0.4706 -0.4218 -0.8176
18944TIP3   OH278246   1.201   2.570  16.728 -0.2000  0.4401 -0.0899
18944TIP3    H178247   1.224   2.614  16.810 -1.5212 -0.5546  0.8650
18944TIP3    H278248   1.131   2.623  16.691 -0.7372 -0.0017  0.2790
18945TIP3   OH278249   2.454   3.575   2.451 -0.7271 -0.2786 -0.2602
18945TIP3    H178250   2.459   3.560   2.356 -0.9229 -3.1791  0.1212
18945TIP3    H278251   2.402   3.656   2.459 -0.1585  0.3969 -2.6096
18946TIP3   OH278252   2.751   4.823  13.901 -0.5807  0.9213 -0.1383
18946TIP3    H178253   2.743   4.895  13.839 -0.6803  0.4592 -0.6646
18946TIP3    H278254   2.738   4.744  13.849  1.3009  0.4222  0.1014
18947TIP3   OH278255   4.344   3.695  11.986 -0.1636  0.2060 -0.1348
18947TIP3    H178256   4.347   3.601  12.008  2.4664  0.5039  1.2346
18947TIP3    H278257   4.351   3.739  12.071  0.4186  1.5881 -0.8750
18948TIP3   OH278258   4.153   5.354   0.514 -0.5487  0.3573  0.4232
18948TIP3    H178259   4.237   5.328   0.478 -0.7095  0.3373  0.0570
18948TIP3    H278260   4.090   5.333   0.445 -0.8806  0.1628  0.7806
18949TIP3   OH278261   4.503   6.187  10.825 -0.2263  0.1511  0.6386
18949TIP3    H178262   4.482   6.140  10.906  0.3987  1.9284  1.9102
18949TIP3    H278263   4.417   6.212  10.789 -0.5054  0.0741  1.2293
18950TIP3   OH278264   1.689   6.396   2.245 -0.8949 -0.1156  0.2683
18950TIP3    H178265   1.688   6.489   2.224  1.5176 -0.2086 -0.5517
18950TIP3    H278266   1.611   6.360   2.202 -2.7788  1.6959  1.9125
18951TIP3   OH278267   0.235   4.245   5.709  0.1450  0.2441 -0.5576
18951TIP3    H178268   0.205   4.160   5.675  0.2218 -0.2209  0.5113
18951TIP3    H278269   0.296   4.223   5.779 -2.4846  1.0671  2.1926
18952TIP3   OH278270   0.727   1.878  15.493 -0.5279 -0.3391  0.3653
18952TIP3    H178271   0.655   1.816  15.500 -1.2231  0.1798 -1.7713
18952TIP3    H278272   0.804   1.828  15.522 -1.6014 -1.0388  2.1912
18953TIP3   OH278273   5.477   1.187  13.304 -0.8407 -0.1806 -0.2193
18953TIP3    H178274   5.517   1.217  13.222 -0.0076 -1.5294 -0.3528
18953TIP3    H278275   5.533   1.223  13.372 -1.6390  1.0958 -0.2035
18954TIP3   OH278276   0.070   5.632  14.288  0.3958  0.2363 -0.2819
18954TIP3    H178277   0.111   5.624  14.374  1.3145 -0.5434 -0.7656
18954TIP3    H278278   0.085   5.723  14.262 -0.5971  0.7061  0.7082
18955TIP3   OH278279   1.294   6.235   1.964 -0.3398  0.4044  0.0301
18955TIP3    H178280   1.321   6.289   1.890  1.0026  0.6500  0.6575
18955TIP3    H278281   1.269   6.151   1.926 -1.1733  1.0211 -0.8303
18956TIP3   OH278282   5.860   0.053   2.738 -0.0694  0.1716  0.0832
18956TIP3    H178283   5.867   0.072   2.832  2.7013 -1.2130  0.2467
18956TIP3    H278284   5.836   0.137   2.698 -2.8679  0.4876  2.0796
18957TIP3   OH278285   2.428   4.900   3.960 -1.0099  0.3684  0.0186
18957TIP3    H178286   2.427   4.840   3.885  1.3280 -1.8140  1.5630
18957TIP3    H278287   2.382   4.853   4.029  1.0684  0.1556  1.3329
18958TIP3   OH278288   5.350   5.319  14.280  0.3483  0.1224 -0.1305
18958TIP3    H178289   5.281   5.364  14.232  0.4870  0.1685 -0.2894
18958TIP3    H278290   5.371   5.379  14.352 -0.4130 -0.3121  0.4554
18959TIP3   OH278291   2.501   0.729  14.440 -0.2194 -0.0517  0.3026
18959TIP3    H178292   2.547   0.662  14.491  0.7398 -0.2495 -0.7728
18959TIP3    H278293   2.546   0.810  14.462 -0.1148 -0.0663  0.1489
18960TIP3   OH278294   0.512   3.788   5.051  0.5619 -0.1381 -0.0430
18960TIP3    H178295   0.470   3.762   5.133  0.2627  0.1305 -0.1101
18960TIP3    H278296   0.490   3.717   4.990 -0.4922  0.3979 -0.3039
18961TIP3   OH278297   3.373   0.842   0.223 -0.6510 -0.3256  0.0854
18961TIP3    H178298   3.340   0.872   0.139 -2.3389 -1.8610  0.1537
18961TIP3    H278299   3.304   0.863   0.286  0.1953 -0.0329  0.9581
18962TIP3   OH278300   5.702   5.320  12.261  0.2956 -0.4436 -0.4026
18962TIP3    H178301   5.731   5.401  12.219  1.4188 -1.2686 -1.2858
18962TIP3    H278302   5.612   5.307  12.231  0.5129 -0.1289 -1.1884
18963TIP3   OH278303   2.227   5.733  12.630 -0.1479 -0.2833  0.9282
18963TIP3    H178304   2.319   5.750  12.646 -0.0544 -0.1790  0.2982
18963TIP3    H278305   2.224   5.699  12.540 -0.8730  1.0384  0.4316
18964TIP3   OH278306   4.864   1.635   3.394 -0.0925 -0.0778  0.1315
18964TIP3    H178307   4.896   1.577   3.463  0.3426 -1.0106 -0.8127
18964TIP3    H278308   4.782   1.596   3.365  0.4089 -0.4972 -0.7933
18965TIP3   OH278309   4.579   5.962   5.435  0.5529  0.1721 -0.0685
18965TIP3    H178310   4.493   5.943   5.397 -0.1123 -1.9178  2.2260
18965TIP3    H278311   4.635   5.891   5.404  0.4112 -0.6347  1.4080
18966TIP3   OH278312   0.175   4.799  15.747 -0.5376  0.2019  0.1356
18966TIP3    H178313   0.199   4.707  15.743  1.8605  0.7663 -0.0245
18966TIP3    H278314   0.169   4.819  15.841 -1.7079 -0.2239  0.1719
18967TIP3   OH278315   6.673   1.198  14.803  0.0643 -0.1741  0.4654
18967TIP3    H178316   6.679   1.288  14.771  1.9380 -0.1283  0.8415
18967TIP3    H278317   6.589   1.194  14.848 -2.4229 -0.0408 -3.7231
18968TIP3   OH278318   0.466   3.629   2.738 -0.1930 -0.1085  0.1890
18968TIP3    H178319   0.496   3.655   2.651 -0.3022 -0.4808  0.0413
18968TIP3    H278320   0.424   3.708   2.773  2.6753  1.1287  1.2239
18969TIP3   OH278321   2.770   4.768  16.906 -0.5340 -0.7370  0.5369
18969TIP3    H178322   2.842   4.714  16.872 -0.3908  1.1047 -2.3718
18969TIP3    H278323   2.691   4.719  16.884 -0.2942 -1.6358  1.5933
18970TIP3   OH278324   5.429   4.404  12.432  0.5326  0.3145 -0.0320
18970TIP3    H178325   5.426   4.480  12.490 -0.1621  0.7820 -0.6611
18970TIP3    H278326   5.355   4.349  12.460 -1.0197  1.4573 -1.6555
18971TIP3   OH278327   5.062   4.275   0.513  0.5912  0.0361  0.1609
18971TIP3    H178328   5.067   4.227   0.596 -1.5170 -0.0997  0.2698
18971TIP3    H278329   5.073   4.367   0.537  2.5873 -0.1676  0.2121
18972TIP3   OH278330   5.886   2.776   0.820 -0.3369 -0.0477 -0.1038
18972TIP3    H178331   5.929   2.691   0.819 -1.8308 -0.8558  0.8228
18972TIP3    H278332   5.954   2.838   0.791  1.5872 -1.1713  1.6697
18973TIP3   OH278333   3.346   5.692  10.268 -0.1241 -0.0015  0.2526
18973TIP3    H178334   3.270   5.672  10.322 -0.5994  1.8729  0.3317
18973TIP3    H278335   3.333   5.782  10.239  2.8173  0.9887  1.5746
18974TIP3   OH278336   2.915   2.257  11.459 -0.1197 -0.0534 -0.6680
18974TIP3    H178337   2.869   2.258  11.375 -1.4911  0.5444  0.0734
18974TIP3    H278338   2.857   2.303  11.519  0.0965 -1.8568  1.0152
18975TIP3   OH278339   1.118   5.424  11.928  0.1235  0.0395 -0.0072
18975TIP3    H178340   1.183   5.492  11.908 -0.6025  0.6882 -0.1946
18975TIP3    H278341   1.171   5.347  11.950  1.0159 -0.1831 -2.5756
18976TIP3   OH278342   3.898   4.464   4.026 -0.0226 -0.0795  0.5455
18976TIP3    H178343   3.842   4.530   4.067 -1.1542 -0.4964 -0.2972
18976TIP3    H278344   3.963   4.514   3.977  0.2650  0.4078  1.4046
18977TIP3   OH278345   0.638   1.028  12.163 -0.3769 -0.2502  0.3178
18977TIP3    H178346   0.549   1.009  12.132 -1.1516  2.6601  0.4519
18977TIP3    H278347   0.689   1.040  12.082 -0.2911 -1.0626  0.2419
18978TIP3   OH278348   2.929   6.402   0.580  0.5737  0.3021 -0.1252
18978TIP3    H178349   2.900   6.315   0.554 -0.2422  0.3869  0.4628
18978TIP3    H278350   3.021   6.391   0.605  1.7129  0.3556 -3.7248
18979TIP3   OH278351   3.026   6.260   3.042  0.4392 -0.2079 -0.6881
18979TIP3    H178352   3.039   6.303   2.958  1.9917 -2.3480 -1.6163
18979TIP3    H278353   3.086   6.186   3.041 -1.6419 -2.0567  1.0758
18980TIP3   OH278354   0.378   2.440   4.219  0.2378 -0.4901  0.6567
18980TIP3    H178355   0.430   2.384   4.162 -3.2768 -1.1491 -2.3140
18980TIP3    H278356   0.389   2.528   4.183  0.0169 -0.4841  0.6019
18981TIP3   OH278357   1.700   5.464   1.117  0.6209  0.2437  0.6284
18981TIP3    H178358   1.735   5.529   1.056 -0.6124 -0.1033 -0.4892
18981TIP3    H278359   1.660   5.516   1.187  2.7823  0.6444  1.6401
18982TIP3   OH278360   3.568   2.831  11.466 -1.0497 -0.0652  0.0602
18982TIP3    H178361   3.484   2.796  11.435 -0.8351  1.2965 -2.2587
18982TIP3    H278362   3.594   2.894  11.399  2.4582 -1.3320  0.0345
18983TIP3   OH278363   1.085   6.495  15.218  0.0441 -0.2747  0.0725
18983TIP3    H178364   1.169   6.464  15.252  0.0013 -0.7625 -0.2716
18983TIP3    H278365   1.030   6.505  15.296  0.3130 -0.2796  0.2636
18984TIP3   OH278366   0.740   6.283   4.832 -0.2708 -0.1400 -0.3518
18984TIP3    H178367   0.688   6.271   4.911 -0.6694 -4.0876 -0.9739
18984TIP3    H278368   0.675   6.287   4.761  0.1137 -1.7218 -0.8393
18985TIP3   OH278369   2.783   0.417  13.336  0.3076 -0.0209 -0.3727
18985TIP3    H178370   2.797   0.393  13.245  0.4752 -0.4502 -0.2362
18985TIP3    H278371   2.859   0.470  13.359 -0.6571  1.7520 -1.0375
18986TIP3   OH278372   6.010   0.464   3.119 -0.4592  0.6650  0.5050
18986TIP3    H178373   5.947   0.396   3.143  0.1274 -0.0454  0.1145
18986TIP3    H278374   6.031   0.508   3.201 -0.0829 -0.3165  0.9601
18987TIP3   OH278375   5.805   5.311   0.694 -0.4007 -0.8464  0.1135
18987TIP3    H178376   5.896   5.338   0.692 -0.3529 -0.9140 -2.6721
18987TIP3    H278377   5.807   5.216   0.683 -0.7967 -1.1253  2.0918
18988TIP3   OH278378   4.840   1.838   5.433 -0.1154  0.1614 -0.5494
18988TIP3    H178379   4.873   1.928   5.435  1.1029 -0.2417  2.4225
18988TIP3    H278380   4.860   1.808   5.345  0.8228  2.3268 -1.1585
18989TIP3   OH278381   2.929   5.575  16.740  0.2743  0.1209 -0.5182
18989TIP3    H178382   2.894   5.656  16.700 -0.2597 -0.1448 -0.6042
18989TIP3    H278383   3.023   5.589  16.742  0.2037  0.6863 -0.6818
18990TIP3   OH278384   1.669   2.234   6.362 -0.6482  0.0443  0.5018
18990TIP3    H178385   1.630   2.294   6.298  1.3001  1.4764  0.5516
18990TIP3    H278386   1.646   2.147   6.331 -2.2448  0.7676 -0.4693
18991TIP3   OH278387   4.995   4.769  13.009 -0.3397  0.0664 -0.3388
18991TIP3    H178388   5.088   4.793  13.011 -0.6916  1.5025 -0.0210
18991TIP3    H278389   4.995   4.674  13.022  1.0587  0.0939  0.0854
18992TIP3   OH278390   2.802   4.002  15.795 -0.0727 -0.5082 -0.0671
18992TIP3    H178391   2.839   4.048  15.719 -0.4384 -3.1301 -1.9914
18992TIP3    H278392   2.720   4.049  15.813 -0.1241  0.0316 -1.5023
18993TIP3   OH278393   3.354   0.850  11.502 -1.2311 -0.1700  0.2643
18993TIP3    H178394   3.418   0.806  11.446 -1.3274 -0.7920  0.6444
18993TIP3    H278395   3.302   0.780  11.541 -1.9066  0.3119  0.2573
18994TIP3   OH278396   5.140   5.446  13.706  0.5323  0.4735  0.0615
18994TIP3    H178397   5.205   5.376  13.702  1.2751  1.1185  0.6126
18994TIP3    H278398   5.060   5.406  13.670  1.4798 -0.0077 -1.5771
18995TIP3   OH278399   2.978   3.795   4.282 -0.3028  0.4254 -0.4386
18995TIP3    H178400   2.884   3.786   4.301 -0.1105  1.3724  1.1718
18995TIP3    H278401   3.022   3.753   4.356  0.4883  3.5795  1.0967
18996TIP3   OH278402   0.882   6.611   3.012  0.0357  0.8876  0.1282
18996TIP3    H178403   0.851   6.692   3.052  0.6762  0.8901  0.6398
18996TIP3    H278404   0.872   6.545   3.081 -0.5320  0.5156 -0.3017
18997TIP3   OH278405   0.856   0.375   0.606 -0.0783  0.1110  0.1752
18997TIP3    H178406   0.772   0.421   0.604 -0.1557 -0.0343 -1.4742
18997TIP3    H278407   0.852   0.320   0.684 -0.9246  1.1655  0.9012
18998TIP3   OH278408   3.951   4.655   3.751  0.0061  0.6611 -0.8797
18998TIP3    H178409   3.999   4.573   3.761 -0.6204  0.0441 -2.6110
18998TIP3    H278410   3.993   4.715   3.813  2.0164 -0.2889 -1.2409
18999TIP3   OH278411   4.179   3.366   4.433  0.4487 -0.3372  0.2941
18999TIP3    H178412   4.206   3.275   4.415  1.8266  0.1072 -0.0083
18999TIP3    H278413   4.259   3.417   4.423 -0.5881  1.1320 -1.0564
19000TIP3   OH278414   4.235   1.341  13.768  0.1812  0.0798  0.5243
19000TIP3    H178415   4.266   1.254  13.742 -0.6202  0.2547 -1.1470
19000TIP3    H278416   4.189   1.326  13.851 -0.2726 -1.1648  0.0747
19001TIP3   OH278417   5.864   4.248  12.205  0.0275 -0.0867 -0.6204
19001TIP3    H178418   5.784   4.263  12.254  0.8515  1.1499  0.4279
19001TIP3    H278419   5.846   4.282  12.117 -1.1819 -1.5417 -0.9762
19002TIP3   OH278420   2.936   5.219  14.976 -0.0538  0.5367  0.1154
19002TIP3    H178421   2.946   5.212  15.071 -0.6064  0.0382  0.1375
19002TIP3    H278422   2.866   5.158  14.954 -1.1119  1.8770 -0.3909
19003TIP3   OH278423   4.791   3.494  12.835  0.2391  0.1905 -0.0518
19003TIP3    H178424   4.864   3.495  12.773 -0.0581  2.9569 -0.4763
19003TIP3    H278425   4.714   3.511  12.782 -0.7824 -2.3763  0.4424
19004TIP3   OH278426   6.329   3.250   4.862 -0.1537 -0.2449 -0.8791
19004TIP3    H178427   6.372   3.167   4.879  0.2921  0.1041 -0.2609
19004TIP3    H278428   6.360   3.308   4.931 -0.0606  0.5809 -1.5954
19005TIP3   OH278429   0.033   2.282  11.503 -0.0146  0.3828 -0.4377
19005TIP3    H178430  -0.001   2.264  11.590 -0.4003  0.9984 -0.4580
19005TIP3    H278431  -0.045   2.296  11.449  0.2586  1.7181 -0.5066
19006TIP3   OH278432   3.548   0.062  15.818 -0.3529 -0.7776  0.3595
19006TIP3    H178433   3.496   0.086  15.742 -2.2255 -2.7032  0.9250
19006TIP3    H278434   3.494   0.086  15.893 -0.5761 -2.9646  0.9705
19007TIP3   OH278435   6.302   2.077   3.846 -0.3960 -0.2327  0.2338
19007TIP3    H178436   6.387   2.044   3.815  0.7205  0.5464  2.2915
19007TIP3    H278437   6.242   2.004   3.833  0.5845 -0.8207 -1.2234
19008TIP3   OH278438   5.029   3.833  16.158 -0.2839 -0.2455  0.9357
19008TIP3    H178439   5.106   3.797  16.114 -1.1995 -1.4362  0.2344
19008TIP3    H278440   5.045   3.927  16.161  0.0407 -0.1547 -1.5547
19009TIP3   OH278441   2.336   5.708  11.120 -0.1718 -0.2147 -0.0940
19009TIP3    H178442   2.265   5.650  11.092  1.3143 -1.5923 -1.1570
19009TIP3    H278443   2.307   5.795  11.093 -2.2452 -0.4745  1.1204
19010TIP3   OH278444   4.725   0.547   2.955 -0.0604  0.0326  0.0948
19010TIP3    H178445   4.671   0.592   3.020 -0.9559  1.0996 -1.3338
19010TIP3    H278446   4.663   0.514   2.891  0.7741 -1.3904 -0.0181
19011TIP3   OH278447   2.601   6.360  13.573 -1.0773 -0.1544 -0.4581
19011TIP3    H178448   2.652   6.387  13.497  0.8767 -2.8990 -0.2878
19011TIP3    H278449   2.618   6.428  13.638  3.8584 -1.5207  0.1006
19012TIP3   OH278450   2.671   4.244   4.189 -1.1362  0.4280  0.0143
19012TIP3    H178451   2.588   4.233   4.235 -0.7157 -0.4728  0.5937
19012TIP3    H278452   2.683   4.162   4.141 -0.9379  0.8480 -0.6611
19013TIP3   OH278453   2.838   2.176   3.007 -0.4491  0.2541 -0.5176
19013TIP3    H178454   2.889   2.183   2.927 -1.5066  1.0857 -1.1364
19013TIP3    H278455   2.793   2.260   3.014  0.6052  0.7160  1.6370
19014TIP3   OH278456   4.553   0.446   1.223 -0.0545 -0.0143 -0.4120
19014TIP3    H178457   4.503   0.524   1.249 -0.7804  0.0476 -1.8786
19014TIP3    H278458   4.605   0.424   1.300 -1.5606  0.5588  0.8194
19015TIP3   OH278459   6.339   2.515  15.091 -0.0070 -0.2336  0.2653
19015TIP3    H178460   6.251   2.552  15.076  0.1670  1.0548  2.1793
19015TIP3    H278461   6.338   2.486  15.182  1.6776  0.2085  0.4614
19016TIP3   OH278462   3.819   5.479   4.216  0.1554  0.0720  0.0406
19016TIP3    H178463   3.798   5.423   4.142 -0.2384 -0.1194  0.2929
19016TIP3    H278464   3.888   5.537   4.184 -0.0023 -0.0206 -0.4681
19017TIP3   OH278465   3.961   2.973  13.114 -0.1071 -0.5312 -0.0556
19017TIP3    H178466   3.994   3.056  13.081  0.8129 -0.9716 -0.2918
19017TIP3    H278467   3.868   2.974  13.094 -0.3449  0.9208  0.9799
19018TIP3   OH278468   5.849   0.439  15.572  0.7848 -0.1679  0.5963
19018TIP3    H178469   5.851   0.524  15.616  2.1120  1.3678 -2.1433
19018TIP3    H278470   5.927   0.394  15.604  0.4541 -0.0763  1.5538
19019TIP3   OH278471   3.296   1.498  12.722 -0.2282  0.3491 -0.0201
19019TIP3    H178472   3.371   1.480  12.666  0.4220  1.3270  0.5192
19019TIP3    H278473   3.227   1.527  12.661 -0.0224 -0.0941 -0.4659
19020TIP3   OH278474   3.214   3.577   0.668  0.1828  0.1123 -0.3488
19020TIP3    H178475   3.178   3.503   0.717  1.4337  0.1246  0.6253
19020TIP3    H278476   3.210   3.548   0.576 -1.9083 -0.0185 -0.2700
19021TIP3   OH278477   4.365   5.317  15.428 -0.0229  0.5696  0.1068
19021TIP3    H178478   4.339   5.314  15.520  1.1308 -0.5884  0.4304
19021TIP3    H278479   4.383   5.410  15.411  0.8186  0.6681  1.3850
19022TIP3   OH278480   5.301   4.442   2.273 -0.2404 -0.3831  0.1081
19022TIP3    H178481   5.336   4.492   2.200 -0.0566 -0.1614  0.3460
19022TIP3    H278482   5.351   4.360   2.271  0.1259 -0.1695  0.2947
19023TIP3   OH278483   4.685   2.948  11.742 -0.2311 -0.3020 -0.4113
19023TIP3    H178484   4.610   2.890  11.753 -0.1611 -0.1329  1.0551
19023TIP3    H278485   4.700   2.986  11.828  0.7396  0.6642 -0.9760
19024TIP3   OH278486   2.211   4.283  13.636  0.1922 -0.5050 -0.0705
19024TIP3    H178487   2.159   4.304  13.559 -0.6382  0.2340  0.6773
19024TIP3    H278488   2.205   4.188  13.644 -0.9414 -0.4403 -0.0618
19025TIP3   OH278489   3.352   1.256   2.325  0.2819 -0.0188 -0.3402
19025TIP3    H178490   3.383   1.180   2.275  0.9137  0.9487 -1.4990
19025TIP3    H278491   3.377   1.237   2.415  2.5496 -0.1868 -0.9218
19026TIP3   OH278492   5.349   1.989  14.075 -0.3557  0.0894  0.2321
19026TIP3    H178493   5.354   2.083  14.059  2.1963 -0.1167 -0.5888
19026TIP3    H278494   5.307   1.981  14.161 -1.2778  1.9094 -0.0076
19027TIP3   OH278495   2.775   6.412  16.837 -0.3317 -0.2389  0.0593
19027TIP3    H178496   2.759   6.506  16.825 -1.9506 -0.6670 -1.6634
19027TIP3    H278497   2.743   6.393  16.925 -3.7029  0.1968 -0.9146
19028TIP3   OH278498   4.026   6.552  16.062 -0.2827 -0.2812  0.2004
19028TIP3    H178499   3.941   6.537  16.103 -0.2692 -1.7066 -0.2224
19028TIP3    H278500   4.083   6.486  16.100  0.5231  0.3612  0.1346
19029TIP3   OH278501   0.670   1.831   0.653 -0.2859  0.6096  0.1972
19029TIP3    H178502   0.761   1.854   0.671  0.2887  0.3990 -2.0320
19029TIP3    H278503   0.639   1.900   0.595 -0.7088 -0.5993 -1.0918
19030TIP3   OH278504   1.927   0.769  12.291  0.5525 -0.5954 -0.1219
19030TIP3    H178505   1.968   0.854  12.280 -0.4452  0.0626  1.0818
19030TIP3    H278506   1.950   0.741  12.379 -0.3335 -0.9004  0.0271
19031TIP3   OH278507   0.138   5.652   5.038 -0.0326 -0.3226 -0.5164
19031TIP3    H178508   0.095   5.612   4.963 -0.9826  0.9728 -0.7063
19031TIP3    H278509   0.205   5.589   5.064  0.6674 -0.5995 -2.7479
19032TIP3   OH278510   0.206   0.960   5.371 -0.0199  0.3556  0.0671
19032TIP3    H178511   0.161   0.887   5.328 -0.5004  0.1901  0.8357
19032TIP3    H278512   0.232   0.925   5.457 -2.4028  1.7796  1.4635
19033TIP3   OH278513   1.573   0.096   0.981 -0.0243 -0.5407  0.8772
19033TIP3    H178514   1.547   0.175   0.933 -0.6321 -0.4911  1.2766
19033TIP3    H278515   1.497   0.075   1.035 -0.2304 -1.9355  0.0875
19034TIP3   OH278516   0.109   6.332  15.752 -1.4576  0.6639  0.3358
19034TIP3    H178517   0.105   6.398  15.821 -0.7913  1.2463 -0.1681
19034TIP3    H278518   0.095   6.381  15.671 -2.1293  0.0009  0.0460
19035TIP3   OH278519   2.046   1.357   4.267  0.1461 -0.2267  0.4495
19035TIP3    H178520   2.118   1.320   4.318  0.0501 -0.3276  0.5093
19035TIP3    H278521   1.968   1.341   4.319 -0.3060 -2.5419 -0.8266
19036TIP3   OH278522   4.620   0.677   0.640  0.3115 -0.3675  0.4036
19036TIP3    H178523   4.619   0.738   0.714 -0.0572 -0.9385  0.8754
19036TIP3    H278524   4.563   0.718   0.575 -0.3486 -0.4375  0.9202
19037TIP3   OH278525   3.464   5.505   6.670  0.0836  0.1710  0.6819
19037TIP3    H178526   3.424   5.566   6.607  1.3878  2.2882  1.7783
19037TIP3    H278527   3.545   5.477   6.627 -1.7968 -3.2810 -1.0792
19038TIP3   OH278528   5.021   6.217  13.431 -0.1528  0.3494  0.0401
19038TIP3    H178529   5.024   6.187  13.521  0.1628 -0.7572 -0.3179
19038TIP3    H278530   5.038   6.311  13.436 -0.9390  0.4455  1.1827
19039TIP3   OH278531   0.267   0.646  15.470 -0.2153 -0.1323 -0.2373
19039TIP3    H178532   0.319   0.607  15.399 -0.5882  1.8802 -1.7229
19039TIP3    H278533   0.212   0.711  15.426 -0.8567  0.8226  1.8592
19040TIP3   OH278534   4.145   4.461   3.553  0.2315  0.1072  0.6107
19040TIP3    H178535   4.239   4.447   3.565  0.5056 -0.9804 -2.0425
19040TIP3    H278536   4.104   4.389   3.601  0.9206 -0.7546 -0.0363
19041TIP3   OH278537   6.447   2.562   3.254 -0.2041  0.5838  0.8438
19041TIP3    H178538   6.516   2.580   3.318 -0.9175  1.6413  1.3553
19041TIP3    H278539   6.381   2.512   3.302  0.7816 -1.6108 -0.0041
19042TIP3   OH278540   1.287   0.488   2.923  0.5092  0.2712 -0.0971
19042TIP3    H178541   1.346   0.418   2.951  2.1931  1.3482 -0.8131
19042TIP3    H278542   1.225   0.497   2.996  1.5907 -0.4745  0.9566
19043TIP3   OH278543   2.851   5.317   1.470 -0.3510  0.1892 -0.4279
19043TIP3    H178544   2.943   5.290   1.469 -0.3222  0.2047  1.0045
19043TIP3    H278545   2.820   5.298   1.381  0.6874 -0.9935 -0.5647
19044TIP3   OH278546   6.701   1.815  14.108 -0.0924 -0.0595  0.2536
19044TIP3    H178547   6.646   1.751  14.153  0.9102 -0.0494  1.5489
19044TIP3    H278548   6.654   1.833  14.026 -0.8092 -1.8282  0.2134
19045TIP3   OH278549   5.744   1.231  12.321 -0.2448  0.0676  0.1813
19045TIP3    H178550   5.684   1.229  12.246 -0.1871  2.0201  0.0250
19045TIP3    H278551   5.719   1.155  12.373 -1.6972 -0.1543 -0.7614
19046TIP3   OH278552   1.159   1.822   4.953  0.2389  0.5135  0.5336
19046TIP3    H178553   1.091   1.809   4.888 -0.0932 -1.0990  1.1607
19046TIP3    H278554   1.115   1.806   5.037  1.2574 -0.0608  0.9773
19047TIP3   OH278555   6.148   0.479   0.920  0.3806 -0.2012  0.0899
19047TIP3    H178556   6.095   0.521   0.852 -0.0822  1.8400  1.6248
19047TIP3    H278557   6.192   0.407   0.875  1.5647  2.1456 -2.8740
19048TIP3   OH278558   4.747   5.122   3.117  0.4608 -0.3134 -0.4326
19048TIP3    H178559   4.674   5.061   3.122  0.9933 -0.8639  2.2510
19048TIP3    H278560   4.731   5.173   3.038 -0.7835 -2.9041 -1.9549
19049TIP3   OH278561   5.728   0.997  12.750  0.0601  0.7336  0.6482
19049TIP3    H178562   5.687   1.037  12.674 -0.1205 -0.0530  0.3139
19049TIP3    H278563   5.802   1.053  12.770  0.9233  0.2360 -0.9585
19050TIP3   OH278564   2.382   1.960  15.065 -0.0906  0.7880  0.2791
19050TIP3    H178565   2.446   1.893  15.091 -1.0067 -0.4275 -0.4773
19050TIP3    H278566   2.315   1.957  15.133  0.3258  1.6290  0.7452
19051TIP3   OH278567   0.800   2.191  14.284 -0.2036 -0.1775 -0.5865
19051TIP3    H178568   0.743   2.182  14.207  0.1566 -1.0635 -0.7641
19051TIP3    H278569   0.796   2.105  14.326 -0.1135  0.1923  0.1953
19052TIP3   OH278570   5.119   3.764   3.710 -0.2721 -0.1034  0.5048
19052TIP3    H178571   5.103   3.855   3.686  0.5203 -0.2681 -0.7915
19052TIP3    H278572   5.038   3.735   3.751 -1.3234  0.5773 -1.0004
19053TIP3   OH278573   3.216   2.728   3.037 -0.2788 -0.5020 -0.1291
19053TIP3    H178574   3.296   2.773   3.009  0.8641 -1.3180  1.6072
19053TIP3    H278575   3.156   2.737   2.963  0.4539  2.4301 -0.4695
19054TIP3   OH278576   0.765   4.115   4.953 -0.0958  0.2863  0.4437
19054TIP3    H178577   0.757   4.141   4.862  0.7000  0.2097  0.3511
19054TIP3    H278578   0.795   4.024   4.950 -1.2299 -0.1194  0.7777
19055TIP3   OH278579   4.834   5.467  16.335 -0.3770 -0.0531  0.2221
19055TIP3    H178580   4.784   5.538  16.294 -1.6312 -1.0829 -0.0859
19055TIP3    H278581   4.890   5.511  16.399  0.0984  1.3849 -1.1186
19056TIP3   OH278582   5.292   1.271   3.916  0.2536 -0.3808  0.0385
19056TIP3    H178583   5.212   1.232   3.952  0.1490 -0.1660  0.0393
19056TIP3    H278584   5.264   1.355   3.880  0.3326 -0.6491 -0.6621
19057TIP3   OH278585   2.710   6.455   0.023  0.3339  0.0599 -0.0559
19057TIP3    H178586   2.694   6.549   0.034 -3.1987 -0.6488  2.7947
19057TIP3    H278587   2.770   6.432   0.094  0.1181 -0.0343  0.0983
19058TIP3   OH278588   1.338   0.700   3.547 -0.3130  0.2448 -0.2515
19058TIP3    H178589   1.433   0.689   3.559 -0.5255  0.3762  2.0503
19058TIP3    H278590   1.321   0.791   3.572 -1.3562 -0.5507  2.3070
19059TIP3   OH278591   6.026   3.380   3.314 -0.0233 -0.2732 -0.2610
19059TIP3    H178592   6.024   3.293   3.275  0.4435 -0.1845 -0.4802
19059TIP3    H278593   6.106   3.420   3.281  1.5996 -0.9960  2.4847
19060TIP3   OH278594   3.387   2.340   1.245  0.6217 -0.0780 -0.2569
19060TIP3    H178595   3.458   2.404   1.239 -0.0126  0.5975 -0.7683
19060TIP3    H278596   3.311   2.386   1.210 -0.6330  0.0331  2.3440
19061TIP3   OH278597   5.297   5.157   0.980  0.4416 -0.7649 -0.2875
19061TIP3    H178598   5.230   5.180   1.044 -0.4483 -1.5144 -0.9112
19061TIP3    H278599   5.333   5.073   1.011  0.5978 -0.7116 -0.3223
19062TIP3   OH278600   3.505   3.382   5.045 -0.1182 -0.1639  0.3811
19062TIP3    H178601   3.477   3.468   5.077 -0.7599  0.3377 -1.4096
19062TIP3    H278602   3.595   3.395   5.017 -0.4920  0.1973 -0.7176
19063TIP3   OH278603   0.814   0.818  15.050 -0.4727 -0.5320 -0.2360
19063TIP3    H178604   0.817   0.810  14.955 -1.3911  2.6099 -0.6626
19063TIP3    H278605   0.720   0.816  15.071 -0.3948  0.6458  0.3272
19064TIP3   OH278606   0.950   1.392   3.961 -0.5490 -0.1688 -0.5501
19064TIP3    H178607   0.858   1.417   3.957 -0.5727 -0.4231 -2.1599
19064TIP3    H278608   0.994   1.467   4.002 -1.2591  0.6112 -1.1861
19065TIP3   OH278609   6.421   0.947  11.527 -0.0292 -0.0947  0.4842
19065TIP3    H178610   6.510   0.914  11.518 -0.2316 -0.3671 -0.5920
19065TIP3    H278611   6.365   0.870  11.515 -0.4189  0.0395  1.3250
19066TIP3   OH278612   4.409   2.467   4.957  0.3085 -0.3835  0.0858
19066TIP3    H178613   4.364   2.385   4.979 -0.0640 -0.1073  0.3691
19066TIP3    H278614   4.397   2.476   4.863  1.1451 -1.1208 -0.1009
19067TIP3   OH278615   4.948   2.843  16.006  0.2142  0.7699  0.3309
19067TIP3    H178616   5.037   2.811  15.995 -0.0912 -0.0736  0.2673
19067TIP3    H278617   4.958   2.936  16.028  1.1745  0.3786  1.6806
19068TIP3   OH278618   4.615   1.669   5.468  0.0039 -0.2332  0.2546
19068TIP3    H178619   4.563   1.744   5.496  0.1543 -1.0999  3.1611
19068TIP3    H278620   4.706   1.698   5.478  0.2130  0.5311 -2.7297
19069TIP3   OH278621   5.895   0.438   5.347  0.3797 -0.9862 -0.0426
19069TIP3    H178622   5.909   0.428   5.441  0.6727 -0.1727  0.0089
19069TIP3    H278623   5.801   0.427   5.335  0.1991 -0.0844  0.4898
19070TIP3   OH278624   2.812   3.886  11.929  0.3908  0.2299 -0.5493
19070TIP3    H178625   2.859   3.934  11.997 -0.5684  1.7878 -0.9332
19070TIP3    H278626   2.881   3.850  11.873  1.1534  0.4880  0.2053
19071TIP3   OH278627   4.763   2.025  12.195  0.0281  0.2591 -0.0028
19071TIP3    H178628   4.720   2.087  12.254 -0.4688 -1.3311  1.3988
19071TIP3    H278629   4.852   2.017  12.229 -0.5158 -1.3551  1.2200
19072TIP3   OH278630   1.075   1.210  15.565 -0.2289 -0.1705 -0.2797
19072TIP3    H178631   1.073   1.116  15.585 -1.4466 -0.3616 -1.2004
19072TIP3    H278632   1.023   1.250  15.635  2.3303  0.1694  1.5697
19073TIP3   OH278633   5.073   1.010  15.415  0.9717  0.1763  0.3102
19073TIP3    H178634   5.147   1.059  15.451  1.2693 -0.8619  1.1737
19073TIP3    H278635   5.091   0.918  15.438 -0.4808 -0.1244  0.3799
19074TIP3   OH278636   6.261   2.714   2.238 -0.0037  0.7995 -0.8008
19074TIP3    H178637   6.227   2.746   2.155  2.5723  0.6709 -2.0038
19074TIP3    H278638   6.231   2.623   2.244 -0.3060  0.8496 -1.5222
19075TIP3   OH278639   1.521   3.655   0.749  0.1456  0.2436 -0.5185
19075TIP3    H178640   1.491   3.567   0.771 -0.5811  0.6484  0.1439
19075TIP3    H278641   1.545   3.694   0.833 -0.9136  1.1734 -0.6312
19076TIP3   OH278642   6.507   0.639   1.831  0.4625 -0.6603  0.0023
19076TIP3    H178643   6.502   0.695   1.754  5.0042 -0.2725 -0.2752
19076TIP3    H278644   6.519   0.550   1.796  2.8399 -0.4445  0.1558
19077TIP3   OH278645   6.339   3.891   4.985  0.1118  0.2060  0.0666
19077TIP3    H178646   6.293   3.939   5.054  1.4733 -0.0679  1.2259
19077TIP3    H278647   6.336   3.799   5.013 -2.2600 -0.4458 -2.0051
19078TIP3   OH278648   6.358   4.041   6.062  0.1978  0.3001 -0.0247
19078TIP3    H178649   6.333   4.018   6.152  1.2752  1.4503  0.5925
19078TIP3    H278650   6.295   4.107   6.035 -2.6381 -2.7582 -1.6481
19079TIP3   OH278651   4.307   2.672  11.511 -0.1488 -0.2997  0.5432
19079TIP3    H178652   4.367   2.738  11.476 -1.4264  0.4779 -0.2492
19079TIP3    H278653   4.267   2.632  11.434 -0.4862 -0.9660  1.0488
19080TIP3   OH278654   0.807   0.748  11.904  0.3225  0.2303  0.6779
19080TIP3    H178655   0.750   0.672  11.915  0.3873  0.1903  0.7411
19080TIP3    H278656   0.865   0.746  11.981  1.4834 -0.6556 -0.1772
19081TIP3   OH278657   4.226   0.455   4.550  0.4958  0.3707 -0.1058
19081TIP3    H178658   4.157   0.394   4.577 -0.2041 -0.0955 -2.6464
19081TIP3    H278659   4.251   0.425   4.462  2.1284  2.0815 -0.2815
19082TIP3   OH278660   0.882   2.451  10.353  0.1114  0.5464  0.0921
19082TIP3    H178661   0.884   2.453  10.449  2.4867  1.4195  0.0800
19082TIP3    H278662   0.791   2.431  10.332  0.1526 -3.2206  2.5306
19083TIP3   OH278663   5.234   2.212   1.331 -0.1079  0.3565 -0.6151
19083TIP3    H178664   5.312   2.254   1.367 -0.7542 -0.5025  1.9684
19083TIP3    H278665   5.173   2.285   1.313 -0.1646  0.7755  1.1217
19084TIP3   OH278666   3.809   3.374  15.415  0.3292  0.5720  0.0313
19084TIP3    H178667   3.905   3.380  15.418  0.4352 -0.5799 -0.4580
19084TIP3    H278668   3.790   3.336  15.329 -0.4268 -1.2167  0.9197
19085TIP3   OH278669   2.932   4.185  14.396 -0.5007  0.1566 -0.2245
19085TIP3    H178670   2.928   4.280  14.386  0.6994  0.4275  1.4875
19085TIP3    H278671   3.025   4.164  14.392 -0.5313 -0.6138  1.7770
19086TIP3   OH278672   3.177   2.420   0.753 -0.9909  0.3085 -0.2643
19086TIP3    H178673   3.199   2.337   0.796 -2.1835  0.0581 -0.0915
19086TIP3    H278674   3.201   2.407   0.661  1.5074  0.8159  0.2576
19087TIP3   OH278675   3.665   5.960   1.362  0.1493  0.3821 -0.8188
19087TIP3    H178676   3.704   6.014   1.431  1.7286  1.8389 -2.7393
19087TIP3    H278677   3.575   5.943   1.392  1.2032 -0.3648  2.2579
19088TIP3   OH278678   2.182   0.352  12.943  0.1759  0.0813 -0.6165
19088TIP3    H178679   2.231   0.270  12.946 -0.2886 -0.1724  0.7896
19088TIP3    H278680   2.120   0.346  13.015 -0.9372  1.0208 -1.4521
19089TIP3   OH278681   2.705   0.101  14.076 -0.4287 -0.0226 -0.2381
19089TIP3    H178682   2.644   0.172  14.094 -0.2625  0.3078 -0.9330
19089TIP3    H278683   2.679   0.068  13.990  0.6189  0.4217 -0.7593
19090TIP3   OH278684   3.373   6.591   4.625  0.0130 -0.3696  0.0279
19090TIP3    H178685   3.427   6.557   4.553  0.6658 -0.3436  0.4930
19090TIP3    H278686   3.403   6.542   4.702 -0.4778 -0.1960  0.3336
19091TIP3   OH278687   6.719   2.947   6.048 -0.3980 -0.2070  0.1796
19091TIP3    H178688   6.684   2.944   5.960  0.1227  0.6746 -0.0754
19091TIP3    H278689   6.642   2.954   6.105 -0.6784  0.9817 -0.3233
19092TIP3   OH278690   0.049   3.372   6.091  0.2548  1.0146  0.9883
19092TIP3    H178691   0.057   3.283   6.125 -0.8507  1.9550  4.0478
19092TIP3    H278692   0.139   3.403   6.084  0.5949  0.2301  1.6356
19093TIP3   OH278693   4.338   4.312  12.927  0.6195  0.1692  0.1599
19093TIP3    H178694   4.299   4.225  12.928 -2.7547  1.5049 -1.1715
19093TIP3    H278695   4.368   4.324  12.836  2.6795 -0.1784  0.7510
19094TIP3   OH278696   1.746   4.018  11.099 -0.7600 -0.3474  0.7863
19094TIP3    H178697   1.838   4.000  11.082 -0.3217  1.2184  1.3521
19094TIP3    H278698   1.699   3.964  11.036  0.6296  1.1169 -1.6637
19095TIP3   OH278699   3.413   2.742  15.441  0.1179  0.9431  0.2436
19095TIP3    H178700   3.355   2.700  15.379  1.3877  2.0578 -1.8032
19095TIP3    H278701   3.446   2.670  15.496 -1.9343  0.1061  0.4757
19096TIP3   OH278702   0.750   5.295   3.202  0.0314 -0.3500  0.2284
19096TIP3    H178703   0.686   5.364   3.220  0.3549 -0.0325  0.1693
19096TIP3    H278704   0.703   5.214   3.219 -1.5588 -0.3303 -3.1392
19097TIP3   OH278705   1.793   1.767   5.926  0.1668  0.0028  0.2718
19097TIP3    H178706   1.848   1.773   6.004  0.2928  0.4233  0.1538
19097TIP3    H278707   1.706   1.747   5.960  0.0785  0.8744  0.5794
19098TIP3   OH278708   5.861   1.140   6.067  0.3501  0.6073  0.2950
19098TIP3    H178709   5.889   1.184   6.148  2.7388 -0.1052 -0.0828
19098TIP3    H278710   5.862   1.209   6.001  0.2385  0.7927  0.4836
19099TIP3   OH278711   4.907   0.391  16.002  0.5618 -0.7970 -0.0493
19099TIP3    H178712   4.993   0.405  15.962  0.8107  1.6762  1.1786
19099TIP3    H278713   4.864   0.476  15.997 -1.1307 -1.5500  0.9491
19100TIP3   OH278714   3.665   0.458  11.746 -0.0352  0.0648 -0.5741
19100TIP3    H178715   3.581   0.411  11.752 -0.4877  0.6012 -2.1267
19100TIP3    H278716   3.679   0.493  11.834 -0.4585 -1.6436  0.2152
19101TIP3   OH278717   2.421   4.483  13.380 -0.2372  0.4907  0.1711
19101TIP3    H178718   2.439   4.393  13.408 -0.8462 -0.6567 -2.8065
19101TIP3    H278719   2.489   4.502  13.316 -1.2211  1.4373 -0.6210
19102TIP3   OH278720   2.429   5.349   1.024  0.0070  0.3708 -0.4539
19102TIP3    H178721   2.470   5.381   1.104 -0.9968  1.3233 -0.2913
19102TIP3    H278722   2.335   5.356   1.040 -0.2210 -0.3956 -1.3409
19103TIP3   OH278723   1.060   2.359   3.811 -0.4168 -0.3279  0.1037
19103TIP3    H178724   1.064   2.454   3.818 -3.0188 -0.1984  0.8383
19103TIP3    H278725   1.123   2.328   3.876 -0.5299  0.8946  0.8278
19104TIP3   OH278726   2.012   4.964  13.702 -0.2069 -0.0369 -0.3842
19104TIP3    H178727   1.931   4.999  13.665  0.8359  0.8754 -1.8613
19104TIP3    H278728   2.005   4.869  13.688 -0.6071  0.1249 -1.3347
19105TIP3   OH278729   3.053   5.506  12.298 -0.0609  0.2424 -0.0591
19105TIP3    H178730   3.048   5.489  12.392  0.3770 -1.6072 -0.3338
19105TIP3    H278731   2.962   5.512  12.269 -0.2170  2.2834  0.6747
19106TIP3   OH278732   3.488   5.327   4.706 -0.1320  0.2690  0.1544
19106TIP3    H178733   3.420   5.260   4.711 -0.1254  0.3074  0.7783
19106TIP3    H278734   3.565   5.280   4.676 -0.5844  0.3459 -1.2237
19107TIP3   OH278735   1.791   0.225  16.661  0.4410  0.4677  0.0941
19107TIP3    H178736   1.886   0.217  16.659  0.5689  1.6046  0.4564
19107TIP3    H278737   1.763   0.212  16.570  0.8447 -0.7218  0.1259
19108TIP3   OH278738   5.900   3.078  13.524  0.4986 -0.5545  0.5990
19108TIP3    H178739   5.957   3.021  13.472  0.7965 -0.4883  0.8459
19108TIP3    H278740   5.812   3.042  13.512  0.7235 -1.2651  1.0158
19109TIP3   OH278741   1.084   0.355  15.308 -0.5079 -0.3306 -0.6058
19109TIP3    H178742   1.039   0.271  15.298 -2.3314  0.4136  0.6137
19109TIP3    H278743   1.021   0.419  15.275 -0.2209  0.7333  0.8093
19110TIP3   OH278744   2.628   4.822   3.242  0.1595 -0.0049 -0.0876
19110TIP3    H178745   2.722   4.835   3.255  0.5828 -0.8711 -1.9495
19110TIP3    H278746   2.615   4.839   3.149 -1.4738 -0.2981  0.0685
19111TIP3   OH278747   0.140   6.648  15.519 -0.4204 -0.0430  0.2445
19111TIP3    H178748   0.087   6.724  15.498 -0.4041 -0.3165 -0.8155
19111TIP3    H278749   0.192   6.675  15.595 -2.8505 -0.1338  2.0646
19112TIP3   OH278750   3.938   0.261  12.496  0.0590  0.3352 -0.0789
19112TIP3    H178751   3.898   0.275  12.581  0.6440 -0.3084  0.3194
19112TIP3    H278752   3.871   0.286  12.433 -0.7428 -0.1476  0.5665
19113TIP3   OH278753   4.583   0.292   0.069 -0.2468 -0.4952  0.0463
19113TIP3    H178754   4.676   0.274   0.078  0.0259  0.9939  0.4671
19113TIP3    H278755   4.549   0.288   0.158  0.2429  2.8850  0.5415
19114TIP3   OH278756   1.142   6.079   0.094 -0.4917 -0.1520 -0.0696
19114TIP3    H178757   1.234   6.057   0.107 -0.4053  0.2986  0.1085
19114TIP3    H278758   1.141   6.175   0.088 -0.8972 -0.1829 -0.4874
19115TIP3   OH278759   4.594   6.017   3.386 -0.1778 -0.2888  0.0748
19115TIP3    H178760   4.662   6.052   3.329 -1.1475  0.7451 -0.4917
19115TIP3    H278761   4.608   6.062   3.470  1.2941 -1.8637  0.7214
19116TIP3   OH278762   4.475   0.316   4.667 -0.1992 -0.2292  0.4615
19116TIP3    H178763   4.435   0.251   4.725 -1.6373  0.5243  0.3339
19116TIP3    H278764   4.408   0.382   4.654  0.3232 -0.0158 -1.5203
19117TIP3   OH278765   3.081   6.677  15.448 -0.4615 -0.1452  0.3218
19117TIP3    H178766   3.002   6.659  15.500 -0.8851  2.6486  0.7906
19117TIP3    H278767   3.054   6.743  15.385  1.1244 -0.3786 -0.6599
19118TIP3   OH278768   4.071   1.484   5.699  0.1718  0.0021 -0.4318
19118TIP3    H178769   4.099   1.412   5.643 -2.4811 -0.7255 -0.9594
19118TIP3    H278770   4.066   1.560   5.640  0.4970 -0.0013 -0.4613
19119TIP3   OH278771   3.442   2.142  13.004 -0.3124 -0.2253  0.0331
19119TIP3    H178772   3.461   2.176  12.917 -2.4694  0.0756 -0.3786
19119TIP3    H278773   3.513   2.176  13.059  0.0621  1.1681 -1.2390
19120TIP3   OH278774   1.910   0.506  11.524 -0.3198  0.6629  0.9673
19120TIP3    H178775   1.852   0.578  11.497 -1.4920 -0.4009  0.5264
19120TIP3    H278776   1.995   0.528  11.486 -0.7584  1.6130  0.4991
19121TIP3   OH278777   5.067   0.390   3.478  0.0250 -0.0250 -0.2825
19121TIP3    H178778   5.151   0.434   3.470 -0.7600  1.2440 -2.2777
19121TIP3    H278779   5.047   0.358   3.390 -1.2293 -0.9919  0.3044
19122TIP3   OH278780   3.992   6.119   4.064 -0.0642 -0.3297 -0.0954
19122TIP3    H178781   3.921   6.181   4.051  0.1686  0.1959  0.9617
19122TIP3    H278782   4.069   6.163   4.027  0.1287  0.1079  0.7803
19123TIP3   OH278783   1.018   6.535   1.604  0.6755 -0.5888 -0.1524
19123TIP3    H178784   1.097   6.538   1.549  1.0142  0.5796  0.3706
19123TIP3    H278785   1.003   6.442   1.617  2.2687 -0.8456  0.1324
19124TIP3   OH278786   2.301   1.619   4.739 -0.2423 -0.6540 -0.0332
19124TIP3    H178787   2.280   1.712   4.730  0.6189 -0.5730 -1.6412
19124TIP3    H278788   2.387   1.618   4.782  0.0071 -0.6705 -0.5235
19125TIP3   OH278789   2.313   0.026   0.308  0.0691  0.1647 -0.2854
19125TIP3    H178790   2.252   0.097   0.324 -0.2146  0.1941 -1.4137
19125TIP3    H278791   2.273  -0.050   0.350 -0.5131  0.2843 -0.6260
19126TIP3   OH278792   4.069   2.208   0.506  0.0508  0.4974  0.0877
19126TIP3    H178793   4.160   2.197   0.534 -0.8467  0.8038  3.4655
19126TIP3    H278794   4.076   2.257   0.423  2.9631 -0.9731 -0.6783
19127TIP3   OH278795   3.017   4.485   4.885  0.2053 -0.8254 -0.2567
19127TIP3    H178796   3.018   4.581   4.894 -1.1319 -0.7357 -0.8795
19127TIP3    H278797   2.991   4.453   4.971 -1.0674 -0.5268 -0.5051
19128TIP3   OH278798   3.816   3.094   4.396  0.3214 -0.5189 -0.3155
19128TIP3    H178799   3.757   3.156   4.439 -0.2927 -1.2209 -0.1150
19128TIP3    H278800   3.853   3.143   4.323  0.0945  0.1798  0.0268
19129TIP3   OH278801   1.823   0.414   2.268  0.0124 -0.0290  0.3141
19129TIP3    H178802   1.793   0.502   2.291 -0.4205 -0.1716  0.3041
19129TIP3    H278803   1.892   0.394   2.331 -1.4971 -0.6247  1.8244
19130TIP3   OH278804   1.635   1.249   5.013  0.4981 -0.2581  0.5929
19130TIP3    H178805   1.672   1.178   4.960 -1.2890 -0.9576  0.2147
19130TIP3    H278806   1.607   1.314   4.949  2.3134  0.9662  0.9432
19131TIP3   OH278807   4.785   3.314   3.583 -0.1576  0.8823  0.0921
19131TIP3    H178808   4.870   3.271   3.589 -1.4326 -2.6897 -2.9237
19131TIP3    H278809   4.722   3.247   3.610 -2.1351  2.7571  0.4167
19132TIP3   OH278810   0.102   6.613  10.464 -0.0164  0.0886 -0.5738
19132TIP3    H178811   0.050   6.641  10.389 -0.4253 -1.4064 -0.8702
19132TIP3    H278812   0.191   6.643  10.444 -0.5565  1.9169 -0.4539
19133TIP3   OH278813   3.745   5.320  16.628  0.3731 -0.3655 -0.4261
19133TIP3    H178814   3.706   5.250  16.574 -1.3648  0.4113 -0.2322
19133TIP3    H278815   3.817   5.353  16.575 -1.5476  0.6852 -2.5884
19134TIP3   OH278816   0.099   0.809   4.158 -0.1632  0.2835  0.3003
19134TIP3    H178817   0.016   0.827   4.202  0.3856  0.2128  1.3981
19134TIP3    H278818   0.123   0.892   4.117  0.5787  1.1241  2.3258
19135TIP3   OH278819   1.807   0.823   4.288  0.4927 -0.0332  0.3194
19135TIP3    H178820   1.726   0.771   4.295 -0.2385  0.7171 -1.7315
19135TIP3    H278821   1.780   0.903   4.242  2.4289  0.1589 -0.5795
19136TIP3   OH278822   1.351   6.278   5.682 -0.2988 -0.3599 -0.0721
19136TIP3    H178823   1.409   6.308   5.753 -0.4800  0.9553 -0.4483
19136TIP3    H278824   1.408   6.273   5.605 -0.6976  1.2539 -0.5190
19137TIP3   OH278825   0.472   4.813   2.917  0.5984 -0.0617  0.4042
19137TIP3    H178826   0.415   4.874   2.871  0.3038  0.3087  1.2430
19137TIP3    H278827   0.558   4.854   2.917  0.9105 -0.6587 -0.9353
19138TIP3   OH278828   4.208   1.545  13.353 -0.3711 -0.8587 -0.3500
19138TIP3    H178829   4.248   1.490  13.286  0.4155  0.7528 -1.2672
19138TIP3    H278830   4.282   1.581  13.402 -0.8566 -0.5018  0.1282
19139TIP3   OH278831   4.146   3.846  16.613 -0.1921 -0.4053  0.0211
19139TIP3    H178832   4.216   3.867  16.675  1.0537 -0.5181 -1.2968
19139TIP3    H278833   4.189   3.846  16.527 -1.7713 -0.6974 -0.8073
19140TIP3   OH278834   3.625   5.128  16.494  0.7173  0.5197 -0.0148
19140TIP3    H178835   3.588   5.182  16.425 -1.1402 -0.7304 -0.0719
19140TIP3    H278836   3.680   5.064  16.448  0.0695  0.1469 -0.2757
19141TIP3   OH278837   4.203   2.900   4.880 -0.3878 -0.1314  0.3810
19141TIP3    H178838   4.246   2.884   4.796 -2.4915 -0.9900 -0.6275
19141TIP3    H278839   4.257   2.855   4.945  0.5505 -0.6183 -0.7125
19142TIP3   OH278840   4.003   5.338  14.873 -0.2765 -0.6727  0.6844
19142TIP3    H178841   3.908   5.345  14.862 -0.3551  2.2254  2.1784
19142TIP3    H278842   4.039   5.402  14.812  0.3934  1.1638  2.8625
19143TIP3   OH278843   0.780   1.191  12.947  0.2129 -0.0450  0.1912
19143TIP3    H178844   0.756   1.264  12.890 -0.6323 -0.9982 -0.7238
19143TIP3    H278845   0.764   1.223  13.036 -0.8807  0.6371 -0.2369
19144TIP3   OH278846   0.409   5.082   1.553 -0.8575 -0.2792 -0.1347
19144TIP3    H178847   0.341   5.139   1.589  1.0657  0.0985  3.3261
19144TIP3    H278848   0.384   4.994   1.583 -0.6830 -0.3682 -0.2540
19145TIP3   OH278849   1.762   0.867  13.546  0.4829  0.0485 -0.0581
19145TIP3    H178850   1.682   0.835  13.588  1.7781 -2.5866  0.6259
19145TIP3    H278851   1.829   0.856  13.613  1.7648  0.2659 -1.2755
19146TIP3   OH278852   4.111   2.292  11.097  0.1391 -0.4758 -0.0492
19146TIP3    H178853   4.060   2.274  11.017 -2.1145 -2.6815  1.7297
19146TIP3    H278854   4.175   2.222  11.101 -0.3988 -0.9479  0.5291
19147TIP3   OH278855   0.902   2.812   3.929  0.1122  0.1060  0.0528
19147TIP3    H178856   0.878   2.852   3.845  2.0689  1.5629  0.1311
19147TIP3    H278857   0.825   2.826   3.985 -0.1949  1.5989 -0.6855
19148TIP3   OH278858   6.376   0.879   4.225  0.0086 -0.5871 -0.3321
19148TIP3    H178859   6.306   0.927   4.180  0.8190  0.2368 -0.7596
19148TIP3    H278860   6.369   0.907   4.316 -0.9129 -1.3775 -0.1404
19149TIP3   OH278861   4.202   0.635   0.617 -0.3862 -0.1284 -0.4493
19149TIP3    H178862   4.243   0.601   0.538 -0.7603 -1.4583 -0.1048
19149TIP3    H278863   4.231   0.726   0.622  0.2210 -0.2254 -1.7161
19150TIP3   OH278864   0.002   4.384   0.365 -0.1058  0.1415  0.4684
19150TIP3    H178865  -0.078   4.436   0.376 -1.8079 -2.2815  0.3649
19150TIP3    H278866   0.016   4.343   0.450  0.0999 -0.6563  0.0611
19151TIP3   OH278867   4.259   0.056   5.497  0.0073 -0.7324 -0.1124
19151TIP3    H178868   4.191   0.053   5.429 -0.1788 -1.3069  0.0927
19151TIP3    H278869   4.309  -0.024   5.483  0.1342 -0.7172  0.2619
19152TIP3   OH278870   6.086   0.927  16.355 -0.2867  0.2557  0.1362
19152TIP3    H178871   6.034   0.856  16.317 -0.0037  0.7092 -1.1572
19152TIP3    H278872   6.120   0.891  16.437  1.3840 -1.7907 -1.3491
19153TIP3   OH278873   3.619   0.788   4.847  0.2554  0.1785 -0.1984
19153TIP3    H178874   3.558   0.793   4.774 -0.7552 -0.8682  0.5362
19153TIP3    H278875   3.704   0.812   4.810 -0.3584  0.2999 -1.5518
19154TIP3   OH278876   1.118   5.831   6.084 -0.3500  0.1676  0.1779
19154TIP3    H178877   1.145   5.755   6.135  1.4120  0.9152  0.4176
19154TIP3    H278878   1.057   5.878   6.140 -2.9395 -1.9467 -0.6600
19155TIP3   OH278879   3.106   4.312   5.226  0.0017 -1.2958 -0.1300
19155TIP3    H178880   3.184   4.345   5.272  0.1337 -1.4487 -0.2430
19155TIP3    H278881   3.134   4.228   5.189 -0.2616 -1.4201 -0.0468
19156TIP3   OH278882   6.486   5.073  13.145 -0.3016 -0.1075  0.3184
19156TIP3    H178883   6.511   5.165  13.139  0.0120 -0.1140  1.3460
19156TIP3    H278884   6.390   5.074  13.147 -0.4847 -0.0431 -3.0453
19157TIP3   OH278885   2.589   4.729  16.163  0.2019 -0.2362  0.4626
19157TIP3    H178886   2.521   4.667  16.136 -0.1442  1.0135 -1.7835
19157TIP3    H278887   2.646   4.737  16.087  1.0215  1.1829  1.1825
19158TIP3   OH278888   5.755   2.821  16.283  0.6118  0.1635  0.2939
19158TIP3    H178889   5.795   2.900  16.248  0.5029  0.0688 -0.0530
19158TIP3    H278890   5.661   2.839  16.282  0.5960  0.0883  0.3556
19159TIP3   OH278891   5.607   6.777   0.027 -0.0437  0.3121 -0.0693
19159TIP3    H178892   5.635   6.765   0.117  2.6539  0.4971 -0.8014
19159TIP3    H278893   5.512   6.790   0.033 -0.4155 -2.4779  2.4389
19160TIP3   OH278894   5.119   0.361   4.183  0.9434 -0.6870  0.4607
19160TIP3    H178895   5.121   0.413   4.263  0.9742  0.1037 -0.0411
19160TIP3    H278896   5.044   0.303   4.194  1.0585 -0.7183  1.1380
19161TIP3   OH278897   3.743   6.771  14.576  0.3411  0.3679 -0.2681
19161TIP3    H178898   3.814   6.783  14.639 -1.3077  1.7202  1.4549
19161TIP3    H278899   3.669   6.741  14.628 -0.5765 -0.3175 -1.8974
19162TIP3   OH278900   5.823   6.757   4.121 -0.2606  0.5100 -0.0482
19162TIP3    H178901   5.850   6.674   4.161 -0.6596  1.0684  1.4409
19162TIP3    H278902   5.735   6.740   4.087 -0.1034  0.1664 -0.2950
19163TIP3   OH278903   4.345   1.254  11.581 -0.1562 -0.1911  0.3158
19163TIP3    H178904   4.319   1.337  11.621  1.5321  1.0213 -0.9582
19163TIP3    H278905   4.273   1.231  11.523 -0.3191  0.8146  0.1059
19164TIP3   OH278906   3.906   5.993   5.758 -0.6593  0.4776  0.1589
19164TIP3    H178907   3.868   5.909   5.734 -1.1654  0.0230  2.3849
19164TIP3    H278908   3.976   6.007   5.693 -0.3619 -1.8002 -0.0811
19165TIP3   OH278909   2.528   2.078  12.309  0.6199 -0.4225  0.1864
19165TIP3    H178910   2.588   2.126  12.251  1.3780  0.4493  1.6020
19165TIP3    H278911   2.524   2.133  12.388  0.2370 -1.9189  1.2478
19166TIP3   OH278912   4.443   3.463  14.454 -0.3010  0.8344  0.2232
19166TIP3    H178913   4.381   3.414  14.400 -0.8004  0.2498  1.2926
19166TIP3    H278914   4.528   3.424  14.435 -0.8873 -1.6815  2.3001
19167TIP3   OH278915   6.597   1.363  15.810 -0.0712 -0.2506 -0.1160
19167TIP3    H178916   6.664   1.354  15.742  0.4258  0.4489  0.2685
19167TIP3    H278917   6.633   1.428  15.870  0.9291 -2.9293  2.4586
19168TIP3   OH278918   6.003   0.628   0.703 -0.0059  0.3966 -0.0514
19168TIP3    H178919   6.055   0.593   0.631  1.6257  2.0384  0.2496
19168TIP3    H278920   5.949   0.697   0.663 -0.1621  0.3252  0.0380
19169TIP3   OH278921   3.684   4.804   5.289 -0.2745  0.2072  0.1270
19169TIP3    H178922   3.677   4.827   5.196 -0.6241  0.6696  0.2596
19169TIP3    H278923   3.769   4.762   5.298 -0.8498 -1.1972 -0.6838
19170TIP3   OH278924   1.148   2.727  10.726  0.2710 -0.6402 -0.6684
19170TIP3    H178925   1.157   2.822  10.734  2.4729 -0.5574 -2.9429
19170TIP3    H278926   1.175   2.692  10.811 -2.1311  0.7245  0.7799
19171TIP3   OH278927   4.485   5.064  12.569  0.0768 -0.3448  0.6867
19171TIP3    H178928   4.568   5.056  12.616 -0.0085 -0.5527  0.8054
19171TIP3    H278929   4.502   5.128  12.500  0.7947 -1.5394 -0.2921
19172TIP3   OH278930   1.596   0.494  15.458  0.0117 -0.4234  0.2060
19172TIP3    H178931   1.644   0.565  15.500  0.1077 -0.0438 -0.5241
19172TIP3    H278932   1.548   0.536  15.386  0.4606 -1.1677 -0.5471
19173TIP3   OH278933   6.340   4.848   0.924 -0.3034  0.3823  0.6837
19173TIP3    H178934   6.434   4.846   0.906  0.5068 -0.2110  4.3164
19173TIP3    H278935   6.309   4.927   0.880  2.1823  1.3677  0.5487
19174TIP3   OH278936   4.658   1.098   3.969 -0.3863 -0.2817  0.5926
19174TIP3    H178937   4.650   1.025   4.030  0.0267 -0.4616  0.4419
19174TIP3    H278938   4.659   1.176   4.024 -0.8523 -0.3882  0.7535
19175TIP3   OH278939   2.247   5.290   1.423 -0.1822 -0.7678  0.4631
19175TIP3    H178940   2.231   5.242   1.341 -0.2437 -0.8221  0.5063
19175TIP3    H278941   2.159   5.305   1.458 -0.1464 -0.9369  0.6283
19176TIP3   OH278942   1.200   4.314   1.380 -0.5271  0.1081  0.1806
19176TIP3    H178943   1.293   4.313   1.401 -0.5784 -0.2027  0.4037
19176TIP3    H278944   1.161   4.250   1.440 -0.6517 -0.9962 -1.0352
19177TIP3   OH278945   5.269   1.990  12.187 -0.0173  0.0166 -0.2062
19177TIP3    H178946   5.193   2.021  12.139 -0.1503 -1.6557 -1.1431
19177TIP3    H278947   5.278   2.052  12.261 -2.9967 -0.4369  0.6574
19178TIP3   OH278948   4.637   3.107  11.523  0.3343  0.1559 -0.4438
19178TIP3    H178949   4.642   3.041  11.591  2.2964  0.5803 -0.1079
19178TIP3    H278950   4.544   3.119  11.507 -0.2482  0.4589  2.5775
19179TIP3   OH278951   4.041   0.206   1.989  0.0632 -0.1429  0.0091
19179TIP3    H178952   4.063   0.237   1.901  4.5301  2.2843  1.6397
19179TIP3    H278953   4.072   0.116   1.991 -2.2572 -1.0584 -1.4386
19180TIP3   OH278954   4.255   3.905   5.047  0.4114  0.4334  0.2885
19180TIP3    H178955   4.230   3.972   4.984  2.1194  1.7163  0.8988
19180TIP3    H278956   4.172   3.872   5.082 -0.5029  1.0395 -1.2258
19181TIP3   OH278957   0.136   2.590   5.562 -0.3808 -0.1223 -1.2099
19181TIP3    H178958   0.090   2.674   5.571  0.4013  0.2291 -0.2906
19181TIP3    H278959   0.077   2.526   5.602  0.0637  0.3799  0.3040
19182TIP3   OH278960   4.692   2.246  12.794 -0.1285  0.7667 -0.0889
19182TIP3    H178961   4.671   2.285  12.709 -0.1740 -0.6184 -0.7329
19182TIP3    H278962   4.773   2.291  12.821 -2.2076  4.1870  1.1359
19183TIP3   OH278963   2.460   3.494  13.527  0.0749 -0.4603  0.6154
19183TIP3    H178964   2.523   3.514  13.596 -1.1820  0.4181  1.5529
19183TIP3    H278965   2.506   3.432  13.470  1.7621  0.1334  1.2677
19184TIP3   OH278966   4.926   0.652   0.807 -0.6082  0.2826 -0.3180
19184TIP3    H178967   4.967   0.721   0.859  0.4875 -1.4087  1.1740
19184TIP3    H278968   4.832   0.667   0.817 -0.3920  1.4201  0.1422
19185TIP3   OH278969   5.004   6.628   2.877 -0.0795 -0.1534  0.0583
19185TIP3    H178970   5.040   6.539   2.885 -0.2082 -0.3293 -1.1408
19185TIP3    H278971   5.059   6.681   2.934 -0.3769 -1.1006  1.2789
19186TIP3   OH278972   1.015   0.477   1.009  0.1715 -0.0484  0.1381
19186TIP3    H178973   0.989   0.569   1.002 -0.2468 -0.2325 -0.9165
19186TIP3    H278974   1.102   0.480   1.048 -0.4021  0.7107  1.4842
19187TIP3   OH278975   4.092   4.354  14.787  0.5720 -0.1346  0.6800
19187TIP3    H178976   4.046   4.377  14.868 -1.4098 -0.7734 -0.2079
19187TIP3    H278977   4.091   4.433  14.734 -0.7334 -0.4845  0.1380
19188TIP3   OH278978   2.688   4.817   4.531  0.3494 -0.6606  0.6761
19188TIP3    H178979   2.689   4.767   4.450  0.4953  0.7091 -0.1998
19188TIP3    H278980   2.702   4.752   4.600  0.5058 -1.8065 -0.4100
19189TIP3   OH278981   2.198   0.057   5.853 -0.3724  0.0138 -0.4882
19189TIP3    H178982   2.224  -0.007   5.920 -0.3791 -1.3816 -1.7561
19189TIP3    H278983   2.115   0.091   5.884  0.9977  1.6407  1.6752
19190TIP3   OH278984   6.510   5.310  11.440  0.0681 -0.5837  0.2747
19190TIP3    H178985   6.602   5.334  11.449  0.2108 -1.3938  1.0667
19190TIP3    H278986   6.467   5.392  11.413  1.1280 -0.3998 -0.9710
19191TIP3   OH278987   6.495   3.653  14.402 -0.8276 -0.3287 -0.2804
19191TIP3    H178988   6.576   3.645  14.452 -0.4994  0.5852 -0.6446
19191TIP3    H278989   6.488   3.569  14.355 -0.3717 -0.6175  0.1520
19192TIP3   OH278990   2.063   2.197   4.624  0.3537 -0.0939 -0.5697
19192TIP3    H178991   2.110   2.122   4.588  0.7664  0.0456 -0.3326
19192TIP3    H278992   1.986   2.159   4.667 -2.2114 -0.0574 -4.5828
19193TIP3   OH278993   4.681   2.708   0.326  0.3305 -0.1367 -0.9721
19193TIP3    H178994   4.743   2.733   0.394 -0.1363 -1.6163  0.0479
19193TIP3    H278995   4.723   2.636   0.280  0.5885  0.7716 -2.2120
19194TIP3   OH278996   0.466   6.129   0.883  0.1601 -0.3904  0.5628
19194TIP3    H178997   0.555   6.096   0.900  0.6586  0.8226  0.4495
19194TIP3    H278998   0.421   6.056   0.841 -0.0976 -2.4189  3.9385
19195TIP3   OH278999   2.890   2.470   1.057  0.0010  0.4591 -0.1175
19195TIP3    H179000   2.815   2.442   1.110  0.5177 -0.4257  0.1647
19195TIP3    H279001   2.860   2.550   1.013 -1.5275 -0.4985 -0.9106
19196TIP3   OH279002   3.366   0.212  15.987  0.5241  0.1863 -0.0927
19196TIP3    H179003   3.374   0.231  16.080  0.4349 -0.2266 -0.0003
19196TIP3    H279004   3.274   0.230  15.966  0.4461 -0.1074 -0.0106
19197TIP3   OH279005   2.757   0.653  16.324  0.2226  0.5690  0.2483
19197TIP3    H179006   2.748   0.718  16.394  0.4048 -0.6418  1.4361
19197TIP3    H279007   2.834   0.602  16.349 -0.2690 -0.4819 -0.3357
19198TIP3   OH279008   3.373   3.210  11.565 -0.9057 -0.2361 -0.0957
19198TIP3    H179009   3.382   3.200  11.470  0.8371 -2.4378  0.2211
19198TIP3    H279010   3.434   3.280  11.587  2.0106 -2.5606 -0.2041
19199TIP3   OH279011   2.438   1.498  12.054  0.2308  0.5634  0.3106
19199TIP3    H179012   2.342   1.493  12.062  0.1612 -0.5140 -0.8235
19199TIP3    H279013   2.455   1.587  12.023 -0.4893  0.5025 -0.2927
19200TIP3   OH279014   6.490   0.328   2.390 -0.2833 -0.0335  0.3315
19200TIP3    H179015   6.582   0.319   2.414 -0.0653  0.8826 -0.1175
19200TIP3    H279016   6.446   0.351   2.472 -0.0978 -0.3388  0.5187
19201TIP3   OH279017   2.016   5.842  14.639  0.4506  0.5183  0.1918
19201TIP3    H179018   1.939   5.833  14.582 -0.9182  0.2063  2.0119
19201TIP3    H279019   2.071   5.768  14.616  0.5436  1.0814 -1.5751
19202TIP3   OH279020   4.857   0.815   6.455  0.2436  0.2630  0.0035
19202TIP3    H179021   4.857   0.902   6.415 -1.3158 -0.4951 -1.8023
19202TIP3    H279022   4.797   0.822   6.529 -0.9224  0.4028 -0.9448
19203TIP3   OH279023   4.301   1.493   3.730 -0.1198 -0.0012  0.4382
19203TIP3    H179024   4.254   1.478   3.648 -1.1165  0.4211  0.9083
19203TIP3    H279025   4.232   1.513   3.794  0.7002  0.5937  1.1690
19204TIP3   OH279026   5.511   4.905   4.064  0.6280 -0.1908 -0.0691
19204TIP3    H179027   5.573   4.885   4.133  0.4334 -1.6560 -0.2953
19204TIP3    H279028   5.425   4.889   4.103  0.5312 -1.3724 -0.7429
19205TIP3   OH279029   0.377   2.350  14.640  0.0359 -0.1682  0.0150
19205TIP3    H179030   0.427   2.303  14.574  0.1692 -0.7427  0.5201
19205TIP3    H279031   0.407   2.441  14.633  1.5044 -0.5838  0.6394
19206TIP3   OH279032   6.575   5.636   2.593 -0.0094 -0.6707 -0.3094
19206TIP3    H179033   6.637   5.673   2.656  0.6502 -1.9375 -0.1781
19206TIP3    H279034   6.489   5.654   2.630  0.2877  0.5772 -0.1868
19207TIP3   OH279035   0.057   4.712   2.560  0.3481 -0.4960 -0.2866
19207TIP3    H179036   0.145   4.746   2.548  0.0833  0.6156  0.7681
19207TIP3    H279037   0.028   4.748   2.644 -0.4918 -2.1879  0.1949
19208TIP3   OH279038   2.413   3.537  11.065 -0.1046  0.0191 -0.4903
19208TIP3    H179039   2.388   3.461  11.012 -0.7477 -0.4412  0.4493
19208TIP3    H279040   2.423   3.608  11.001 -1.5692 -0.3369 -1.1752
19209TIP3   OH279041   0.661   5.980  16.377  0.7681 -0.0848 -0.2908
19209TIP3    H179042   0.677   6.061  16.329 -1.5578  1.0022  0.6065
19209TIP3    H279043   0.624   5.920  16.313  0.6088  0.2699 -0.5311
19210TIP3   OH279044   4.467   1.393  14.085  0.6401 -0.4447  0.7663
19210TIP3    H179045   4.393   1.332  14.088 -0.0076  0.3441  1.6102
19210TIP3    H279046   4.426   1.479  14.072  1.3749  0.0584  1.6473
19211TIP3   OH279047   2.602   1.496   2.991  0.2155  0.3268  0.4089
19211TIP3    H179048   2.555   1.579   2.990 -0.8739 -0.2696  0.7158
19211TIP3    H279049   2.575   1.452   2.911  0.6073  0.1628  0.3633
19212TIP3   OH279050   0.600   0.429   4.558 -0.1430 -0.1211  0.1819
19212TIP3    H179051   0.664   0.500   4.566 -0.5061  0.1416  0.7624
19212TIP3    H279052   0.583   0.424   4.464  2.2723 -1.5721 -0.2724
19213TIP3   OH279053   6.821   4.617  16.821  0.2305 -0.5466 -0.1785
19213TIP3    H179054   6.897   4.560  16.805  0.5764 -0.5685  1.3852
19213TIP3    H279055   6.860   4.701  16.844 -0.2361 -0.4204  0.1485
19214TIP3   OH279056   5.778   6.502   4.168 -0.6219 -0.9565 -0.6868
19214TIP3    H179057   5.849   6.448   4.133 -0.4444 -0.9881 -0.2930
19214TIP3    H279058   5.699   6.449   4.155 -0.1488 -2.5197  2.0266
19215TIP3   OH279059   2.318   2.283   4.447  0.1756 -0.0334  0.1890
19215TIP3    H179060   2.313   2.305   4.354  2.0013  2.1090  0.5102
19215TIP3    H279061   2.231   2.300   4.481  0.1300  1.6187 -0.6774
19216TIP3   OH279062   2.848   6.304   5.803 -0.2026 -0.5485  0.6213
19216TIP3    H179063   2.823   6.213   5.819  1.3733 -1.1941 -0.3197
19216TIP3    H279064   2.775   6.355   5.836 -2.7262 -2.2511 -1.8537
19217TIP3   OH279065   0.879   1.461   5.120  0.4795 -0.8945  0.1285
19217TIP3    H179066   0.962   1.502   5.098 -0.1646  0.5433  0.2644
19217TIP3    H279067   0.825   1.533   5.153 -1.2663 -1.5536 -1.1817
19218TIP3   OH279068   4.944   5.268  16.729 -0.6774  0.4972  0.2404
19218TIP3    H179069   4.977   5.195  16.781 -0.7276 -0.9309 -1.6158
19218TIP3    H279070   4.887   5.317  16.789  0.0247 -0.4715  1.7616
19219TIP3   OH279071   3.679   4.458   0.211 -0.3530  0.1909  0.2214
19219TIP3    H179072   3.732   4.386   0.245 -0.0327  0.1202 -0.4064
19219TIP3    H279073   3.726   4.537   0.238  0.4285  0.1178 -0.8711
19220TIP3   OH279074   1.520   2.064   4.534  0.0803 -0.1478  0.2071
19220TIP3    H179075   1.456   2.024   4.592 -0.5645 -0.0152 -0.4129
19220TIP3    H279076   1.531   2.002   4.462  1.7575 -0.8660  1.0262
19221TIP3   OH279077   2.075   2.451   4.762  0.0326 -0.4011  0.0082
19221TIP3    H179078   2.080   2.364   4.723 -0.1939 -0.8236  0.8887
19221TIP3    H279079   1.986   2.458   4.795  0.2464 -0.1100  0.5495
19222TIP3   OH279080   1.609   3.156   5.198  1.1967  0.5802 -1.1285
19222TIP3    H179081   1.550   3.230   5.182  0.4284  0.4803  0.9017
19222TIP3    H279082   1.643   3.172   5.286 -0.3749 -2.3165  0.1425
19223TIP3   OH279083   1.922   4.356  17.034 -0.0950 -0.3077  0.2093
19223TIP3    H179084   2.014   4.329  17.038 -0.1961 -0.6907  0.0360
19223TIP3    H279085   1.902   4.386  17.122  0.5390  0.9389 -0.0473
19224TIP3   OH279086   2.910   1.779   2.208  0.1611 -0.2308  0.4139
19224TIP3    H179087   2.889   1.781   2.301  0.9229 -0.1843  0.5892
19224TIP3    H279088   2.982   1.716   2.200  1.0889  0.8182  0.0809
19225TIP3   OH279089   6.697   0.932  16.293 -0.1973  1.1358  0.2490
19225TIP3    H179090   6.645   0.914  16.214  0.8323  1.9249 -0.6480
19225TIP3    H279091   6.754   0.856  16.302 -0.4400  0.9627  0.3473
19226TIP3   OH279092   3.071   6.526   4.220 -0.6581 -0.3351 -0.2498
19226TIP3    H179093   3.073   6.465   4.294 -1.7923 -0.0737  0.0163
19226TIP3    H279094   2.996   6.582   4.238  1.4010  2.3934  0.5023
19227TIP3   OH279095   6.536   5.881   3.390  0.0423 -0.0153 -0.2501
19227TIP3    H179096   6.565   5.949   3.329  0.9922 -0.2813 -0.1066
19227TIP3    H279097   6.610   5.869   3.449 -1.2754  1.0446  1.6906
19228TIP3   OH279098   0.438   6.729  14.671  0.3896  0.1732  0.3897
19228TIP3    H179099   0.352   6.730  14.629 -0.0051 -1.5802  1.0936
19228TIP3    H279100   0.490   6.791  14.619 -0.7261 -0.1861 -1.2515
19229TIP3   OH279101   6.048   1.195   0.921  0.2198  0.0068  0.6117
19229TIP3    H179102   6.034   1.118   0.866 -1.5105  1.2303 -0.7769
19229TIP3    H279103   6.108   1.250   0.871  0.5182  0.0778  1.0470
19230TIP3   OH279104   2.417   0.894   5.882  0.4173 -0.0819  0.7583
19230TIP3    H179105   2.421   0.934   5.969  0.8679 -0.9828  1.1665
19230TIP3    H279106   2.481   0.942   5.830 -0.1488  0.7338  0.7950
19231TIP3   OH279107   1.305   4.994   2.728  0.5421 -0.0725  0.4020
19231TIP3    H179108   1.216   4.988   2.694  1.2948 -0.9496 -1.5693
19231TIP3    H279109   1.325   4.905   2.759  1.0983 -0.1715 -0.2095
19232TIP3   OH279110   3.793   3.217   5.225  0.3991 -0.2060 -0.3650
19232TIP3    H179111   3.746   3.275   5.285 -0.1739  0.7021 -1.6443
19232TIP3    H279112   3.837   3.155   5.282  1.1307  1.5358  1.0725
19233TIP3   OH279113   4.677   0.592   4.636  0.2920 -0.1284  0.2779
19233TIP3    H179114   4.592   0.621   4.671  1.1199  0.7071  1.7013
19233TIP3    H279115   4.737   0.664   4.655  1.4536 -0.9344 -0.1979
19234TIP3   OH279116   0.387   5.574  15.394  0.2729 -0.0682 -0.2424
19234TIP3    H179117   0.393   5.643  15.460  0.0782 -0.0524 -0.2397
19234TIP3    H279118   0.455   5.596  15.330 -0.2033  0.4941 -0.5776
19235TIP3   OH279119   2.514   3.239  10.820  0.6112  0.3944 -0.0496
19235TIP3    H179120   2.469   3.172  10.768 -0.7216 -0.5883  2.2120
19235TIP3    H279121   2.604   3.207  10.828  0.2288 -0.6758  0.2142
19236TIP3   OH279122   1.638   1.134   1.910  0.2897  0.1662  0.2448
19236TIP3    H179123   1.590   1.073   1.966  0.8663 -1.5576 -1.0285
19236TIP3    H279124   1.729   1.127   1.940 -0.0548  3.0837  2.3574
19237TIP3   OH279125   3.182   0.437  10.751 -0.8347 -0.1242  0.4544
19237TIP3    H179126   3.259   0.494  10.743 -0.8168  0.3021  2.8575
19237TIP3    H279127   3.137   0.445  10.667  1.8626 -0.6089 -1.1632
19238TIP3   OH279128   0.177   4.069  14.916  0.1597  0.1250 -0.1087
19238TIP3    H179129   0.248   4.132  14.926 -0.2404  0.6262 -0.3710
19238TIP3    H279130   0.127   4.100  14.840 -0.6188  0.0538  0.3581
19239TIP3   OH279131   6.060   3.910  11.110 -0.0963 -0.4673 -0.1801
19239TIP3    H179132   6.084   3.843  11.045  1.0534 -0.0369 -0.2250
19239TIP3    H279133   5.965   3.919  11.102 -0.0073 -0.6354 -1.5937
19240TIP3   OH279134   1.968   5.087  13.342  0.5452  0.4962  0.6030
19240TIP3    H179135   1.900   5.055  13.402  0.5047  0.5881  0.6065
19240TIP3    H279136   2.040   5.026  13.352 -0.2019 -0.6723 -0.7106
19241TIP3   OH279137   3.236   2.239  16.309  0.7753 -0.1674 -0.5866
19241TIP3    H179138   3.158   2.253  16.364  1.3954 -0.1824  0.3238
19241TIP3    H279139   3.211   2.168  16.249  0.5417 -1.1651  0.6429
19242TIP3   OH279140   2.142   3.781  10.947  0.2008 -0.3021 -0.5963
19242TIP3    H179141   2.155   3.862  10.897 -2.0529  0.1145 -0.6352
19242TIP3    H279142   2.205   3.787  11.019 -0.5891  2.0370 -0.0008
19243TIP3   OH279143   4.157   5.872  16.874 -0.6354  0.4095  0.3293
19243TIP3    H179144   4.164   5.955  16.922 -0.5611  1.3265 -1.2205
19243TIP3    H279145   4.064   5.849  16.881 -0.8738  1.1882 -0.1202
19244TIP3   OH279146   2.689   3.789   4.289  0.4054  0.0237 -0.4010
19244TIP3    H179147   2.698   3.723   4.357  1.2176 -0.8292 -1.2978
19244TIP3    H279148   2.659   3.740   4.212  0.4584  0.7927 -0.9236
19245TIP3   OH279149   3.154   3.810  16.591  0.6729  0.6534  0.0469
19245TIP3    H179150   3.197   3.895  16.597  0.5581  0.6057  2.7337
19245TIP3    H279151   3.075   3.819  16.646  0.1236 -0.8694 -0.4362
19246TIP3   OH279152   4.566   2.200  12.286 -0.1410  0.0783  0.2778
19246TIP3    H179153   4.547   2.178  12.377 -1.7164 -2.0346 -0.4719
19246TIP3    H279154   4.484   2.237  12.252 -0.1981 -0.9383 -0.7534
19247TIP3   OH279155   2.999   2.095  16.448  0.4289 -0.5526  0.1719
19247TIP3    H179156   2.957   2.140  16.521  1.1544 -1.4090  1.1511
19247TIP3    H279157   3.059   2.033  16.490  1.2862 -0.6633 -1.1605
19248TIP3   OH279158   3.437   5.477   1.546 -0.5251  0.0457  0.1297
19248TIP3    H179159   3.459   5.530   1.622 -0.3166 -0.1381  0.1978
19248TIP3    H279160   3.458   5.387   1.572  0.0005  0.0322 -0.3138
19249TIP3   OH279161   3.068   1.312  11.330 -0.1843  0.5837  0.0120
19249TIP3    H179162   3.011   1.335  11.404  0.0630  1.5459 -0.0909
19249TIP3    H279163   3.019   1.245  11.283 -0.7724  0.6492  0.5123
19250TIP3   OH279164   1.487   2.873   2.027 -0.0022 -0.0325  0.0696
19250TIP3    H179165   1.538   2.810   1.975 -0.1290  0.0381 -0.1414
19250TIP3    H279166   1.416   2.821   2.065 -0.2634  0.0317 -0.3212
19251TIP3   OH279167   3.068   5.441  11.166  0.6045  0.0529 -0.8700
19251TIP3    H179168   3.158   5.465  11.145  1.6177  0.8282  3.4625
19251TIP3    H279169   3.030   5.520  11.205 -1.5753 -0.6374 -1.4495
19252TIP3   OH279170   0.897   0.115  15.825 -0.2760 -0.3046 -1.1628
19252TIP3    H179171   0.947   0.196  15.811 -1.0036  0.2231 -0.7545
19252TIP3    H279172   0.915   0.063  15.747 -0.4437  0.5851 -1.8157
19253TIP3   OH279173   5.339   0.726   2.599 -0.2694 -0.9397 -0.6329
19253TIP3    H179174   5.266   0.759   2.652 -0.7562 -2.5690 -0.2441
19253TIP3    H279175   5.382   0.662   2.654  0.4377 -1.2257 -1.4896
19254TIP3   OH279176   1.702   0.091  11.747 -0.0065  0.2726 -0.0421
19254TIP3    H179177   1.654   0.170  11.771 -0.2712  0.1406 -0.1379
19254TIP3    H279178   1.761   0.120  11.677 -0.1339  0.3753 -0.1083
19255TIP3   OH279179   5.176   3.229  14.245 -0.6480 -0.0854  0.2621
19255TIP3    H179180   5.260   3.204  14.283 -1.5647 -1.2380  1.6735
19255TIP3    H279181   5.154   3.312  14.288  1.1963  2.0202 -2.5184
19256TIP3   OH279182   2.901   1.785  12.566 -0.0212 -0.5335 -0.1171
19256TIP3    H179183   2.810   1.769  12.539 -0.1477 -0.0506  0.0143
19256TIP3    H279184   2.902   1.763  12.659 -0.9548  2.9987  0.8656
19257TIP3   OH279185   0.772   6.302  15.118  0.1640 -0.7359 -0.1294
19257TIP3    H179186   0.685   6.263  15.112  0.6771 -1.8646 -0.5365
19257TIP3    H279187   0.796   6.322  15.027  0.0186  0.2908  0.0503
19258TIP3   OH279188   5.653   1.083   5.466 -0.0367  0.0339  0.6002
19258TIP3    H179189   5.747   1.084   5.480  0.0284 -0.6251  0.2481
19258TIP3    H279190   5.628   0.992   5.480 -0.0974 -0.5593 -2.6322
19259TIP3   OH279191   5.998   3.871   2.351 -0.2092  0.6040  0.1363
19259TIP3    H179192   6.051   3.877   2.271 -0.1280  0.7323  0.1989
19259TIP3    H279193   5.960   3.959   2.360 -1.0489  0.2957 -0.3336
19260TIP3   OH279194   2.910   4.360   5.489  0.0504 -0.9433  0.4096
19260TIP3    H179195   2.964   4.292   5.529 -0.6958 -1.3431  0.7550
19260TIP3    H279196   2.820   4.331   5.503 -0.2757 -0.0076  0.3389
19261TIP3   OH279197   0.513   1.219  12.726  0.8208 -0.4128 -0.3189
19261TIP3    H179198   0.549   1.160  12.660 -0.1623 -0.9975 -0.3586
19261TIP3    H279199   0.491   1.162  12.800  0.0491 -0.0714 -0.2721
19262TIP3   OH279200   6.802   1.924  15.426 -0.1667 -0.4697  0.0253
19262TIP3    H179201   6.832   1.869  15.353  2.0827  2.6924 -1.6357
19262TIP3    H279202   6.732   1.977  15.388 -1.7272 -1.4577  1.3785
19263TIP3   OH279203   5.113   6.660  13.236  0.1780 -0.5828  0.2085
19263TIP3    H179204   5.148   6.690  13.152  0.9503 -0.3341  0.6175
19263TIP3    H279205   5.021   6.686  13.234  0.3004 -0.1724 -0.3714
19264TIP3   OH279206   6.326   1.463   4.025 -0.0690 -0.1563  0.0225
19264TIP3    H179207   6.304   1.513   3.946  1.8097 -2.0686 -1.8455
19264TIP3    H279208   6.241   1.449   4.068 -1.1193  1.2145 -1.4632
19265TIP3   OH279209   3.300   0.855   6.051  0.3827 -0.1260 -0.4995
19265TIP3    H179210   3.298   0.761   6.073 -2.3128  0.1090  0.6452
19265TIP3    H279211   3.321   0.898   6.134 -0.4819  0.3716 -0.5376
19266TIP3   OH279212   2.918   0.993   1.702 -0.3825 -0.2780 -0.1351
19266TIP3    H179213   2.972   0.942   1.642 -0.9479 -1.7568  0.5471
19266TIP3    H279214   2.835   1.005   1.656 -0.1801  0.2320 -0.3775
19267TIP3   OH279215   5.544   3.279   0.409  0.4552  0.4661  0.7148
19267TIP3    H179216   5.531   3.311   0.320  2.5831 -0.0100  0.1846
19267TIP3    H279217   5.585   3.193   0.398  1.4947  0.7420  2.1225
19268TIP3   OH279218   0.000   5.024   4.453 -0.1076  0.6606  0.3743
19268TIP3    H179219   0.090   5.027   4.421 -0.3397  1.6489 -0.2206
19268TIP3    H279220  -0.054   5.027   4.374 -0.6672  1.5814  0.7730
19269TIP3   OH279221   3.440   2.401  16.755  1.0296 -0.0069 -0.3135
19269TIP3    H179222   3.348   2.384  16.736 -0.3805  1.5281  3.9561
19269TIP3    H279223   3.454   2.492  16.727  1.4499 -0.4057 -1.4386
19270TIP3   OH279224   1.544   1.333   4.376 -0.4519 -0.0430 -0.1427
19270TIP3    H179225   1.473   1.298   4.430 -0.7817  1.0040  0.1264
19270TIP3    H279226   1.500   1.390   4.313  0.1120  0.3598 -0.1810
19271TIP3   OH279227   5.657   2.905   1.391 -0.5078 -0.6953  1.0105
19271TIP3    H179228   5.570   2.936   1.365  0.8561  2.7355 -0.1482
19271TIP3    H279229   5.707   2.903   1.309  1.0775 -0.3169  1.9150
19272TIP3   OH279230   1.550   0.355   2.353 -0.1211 -0.4693  0.0296
19272TIP3    H179231   1.458   0.375   2.338  0.2136 -0.0919 -1.7364
19272TIP3    H279232   1.589   0.353   2.266  1.6672 -0.0594  0.7668
19273TIP3   OH279233   5.149   4.212  14.833  0.5812 -0.2033 -0.1358
19273TIP3    H179234   5.139   4.269  14.757  0.7087  1.7041  1.2222
19273TIP3    H279235   5.237   4.176  14.824  0.9105  0.6611 -0.4729
19274TIP3   OH279236   5.483   1.953  14.810  0.0691 -0.0337 -0.2299
19274TIP3    H179237   5.432   2.034  14.809  1.4641  0.8705 -1.4130
19274TIP3    H279238   5.548   1.966  14.878  1.5788  0.7257 -1.7481
19275TIP3   OH279239   0.277   0.712   4.833  0.0165 -0.3359 -0.0817
19275TIP3    H179240   0.311   0.747   4.915 -3.2100  0.8546  0.9110
19275TIP3    H279241   0.269   0.788   4.775 -0.8855 -0.5547 -0.2634
19276TIP3   OH279242   2.316   4.740   4.179 -0.1220 -0.3718 -0.2959
19276TIP3    H179243   2.301   4.791   4.258 -0.6008 -2.4015  1.0141
19276TIP3    H279244   2.228   4.719   4.147  0.0655  0.5100 -1.4634
19277TIP3   OH279245   2.970   0.868   2.959  0.8873  0.7771  0.0281
19277TIP3    H179246   2.938   0.815   3.033  1.0495  0.1551 -0.3351
19277TIP3    H279247   2.992   0.952   2.998  1.6904  0.2104  0.8466
19278TIP3   OH279248   0.100   3.993  11.178 -0.1963 -0.8116  0.5217
19278TIP3    H179249   0.086   3.989  11.273  2.1137  2.2229  1.1422
19278TIP3    H279250   0.151   3.914  11.159  0.0186 -1.0685  1.9958
19279TIP3   OH279251   6.109   6.556  10.663  0.4886 -0.0171  0.4988
19279TIP3    H179252   6.186   6.516  10.704  0.1654 -0.3488  0.7844
19279TIP3    H279253   6.036   6.533  10.721  0.1171 -0.0069  0.0394
19280TIP3   OH279254   6.135   0.249  12.399 -0.1681  0.3590  0.2316
19280TIP3    H179255   6.174   0.169  12.431 -1.7588 -0.4947  0.1436
19280TIP3    H279256   6.183   0.319  12.444  0.1446 -0.6828  1.5867
19281TIP3   OH279257   4.500   2.820   3.031 -0.5060  0.0670  0.1444
19281TIP3    H179258   4.493   2.903   3.077  1.3132  0.9038 -0.9730
19281TIP3    H279259   4.451   2.834   2.949  1.3647  0.7693 -0.9170
19282TIP3   OH279260   2.189   0.964   1.450 -0.4332 -0.3357 -0.2581
19282TIP3    H179261   2.192   1.057   1.426 -0.7907  0.0447  1.0830
19282TIP3    H279262   2.097   0.940   1.445 -0.7222  0.1049  1.8398
19283TIP3   OH279263   5.160   0.011  13.577  0.4963 -0.8288  0.2157
19283TIP3    H179264   5.195  -0.078  13.588  1.9471 -0.1434  1.7022
19283TIP3    H279265   5.232   0.060  13.537 -0.2912 -0.3075 -0.6006
19284TIP3   OH279266   5.863   0.002  10.961  0.0692  0.4801 -0.1232
19284TIP3    H179267   5.819   0.011  10.876  1.2333 -1.2520 -0.9681
19284TIP3    H279268   5.866  -0.092  10.977  0.1062  0.7637  1.7440
19285TIP3   OH279269   2.506   1.546   5.857 -0.0490 -0.3218 -0.4991
19285TIP3    H179270   2.510   1.610   5.785  1.5732 -0.4244 -0.5275
19285TIP3    H279271   2.461   1.593   5.928 -1.1208 -0.0167 -1.3553
19286TIP3   OH279272   2.880   4.948  12.357  0.6492 -0.0631 -0.3156
19286TIP3    H179273   2.921   4.997  12.285 -1.3470  1.4254 -0.5292
19286TIP3    H279274   2.801   4.911  12.319 -1.4794  2.3278  1.4470
19287TIP3   OH279275   5.039   1.211   4.000  0.1162  0.2404 -0.7019
19287TIP3    H179276   5.026   1.203   4.094 -1.1389 -1.5875 -0.9707
19287TIP3    H279277   5.008   1.299   3.978  0.5451  0.7312  0.5956
19288TIP3   OH279278   1.816   6.396  16.971 -0.3168  0.2169  0.0659
19288TIP3    H179279   1.732   6.351  16.962 -0.3647  0.3896 -0.3512
19288TIP3    H279280   1.838   6.424  16.882  0.7577 -0.8611 -0.0181
19289TIP3   OH279281   3.506   3.735   1.637 -0.3943 -0.4129  0.1752
19289TIP3    H179282   3.480   3.709   1.549 -0.7353 -1.2643  0.5190
19289TIP3    H279283   3.560   3.662   1.669  1.5815  0.8334 -0.1178
19290TIP3   OH279284   4.429   3.970  15.075  0.7743  0.1652 -0.8432
19290TIP3    H179285   4.499   4.028  15.104 -0.6639  1.2182  0.7698
19290TIP3    H279286   4.375   4.025  15.018  0.5046 -0.1995 -0.9432
19291TIP3   OH279287   3.216   4.026  11.013  0.3160  0.1809  0.3495
19291TIP3    H179288   3.224   4.121  11.002  0.0012  0.2590  0.7676
19291TIP3    H279289   3.270   4.006  11.090 -2.2732  0.5352  2.4148
19292TIP3   OH279290   1.111   2.469   5.708  0.2915 -0.3379  0.3020
19292TIP3    H179291   1.110   2.400   5.775 -1.3299  0.3697  1.0577
19292TIP3    H279292   1.018   2.486   5.690  0.6875  0.6334 -0.9423
19293TIP3   OH279293   6.483   2.402   6.118  0.7672 -0.6393  0.4997
19293TIP3    H179294   6.414   2.350   6.160 -0.7524 -0.4955 -1.6378
19293TIP3    H279295   6.561   2.385   6.170 -0.4735 -2.2408  1.9641
19294TIP3   OH279296   0.825   2.948  13.771 -0.2368 -0.2954 -0.5400
19294TIP3    H179297   0.844   2.950  13.864 -1.0371 -2.0488 -0.3070
19294TIP3    H279298   0.904   2.914  13.730 -0.6052 -1.5116 -0.2616
19295TIP3   OH279299   1.178   6.096   5.559 -0.0147  0.5872  0.9048
19295TIP3    H179300   1.249   6.136   5.608  1.8669 -0.5050 -0.7705
19295TIP3    H279301   1.131   6.170   5.521  1.8940  1.3373 -0.1327
19296TIP3   OH279302   5.263   6.587  13.662  0.0790  0.0479  0.9646
19296TIP3    H179303   5.325   6.533  13.612 -0.7444 -0.1892  0.1836
19296TIP3    H279304   5.319   6.637  13.721  1.2672  1.4899 -1.2224
19297TIP3   OH279305   3.216   2.486   2.070 -0.3185 -0.3645  0.0701
19297TIP3    H179306   3.138   2.430   2.072  0.2286 -1.1702 -0.4820
19297TIP3    H279307   3.209   2.534   1.988 -1.2919  1.1729  0.9848
19298TIP3   OH279308   5.829   1.638   3.685  0.7673  0.1193 -0.3163
19298TIP3    H179309   5.775   1.639   3.764  0.3200  0.2845 -0.6194
19298TIP3    H279310   5.768   1.616   3.615  0.8085  1.6198 -0.8648
19299TIP3   OH279311   2.200   4.737  16.830  0.4449 -0.3443 -0.4694
19299TIP3    H179312   2.137   4.691  16.774 -2.8631 -0.2630  2.7623
19299TIP3    H279313   2.206   4.825  16.793 -1.0024 -0.5138 -1.1696
19300TIP3   OH279314   2.950   4.786   0.081 -0.1517 -0.0681 -0.2274
19300TIP3    H179315   2.970   4.830   0.163 -0.8625  0.3476 -0.2704
19300TIP3    H279316   2.903   4.852   0.029 -2.9684 -1.3859  0.4438
19301TIP3   OH279317   4.282   3.349  14.055 -0.1910 -0.0498 -0.3095
19301TIP3    H179318   4.341   3.335  14.128 -3.5344 -1.6561  2.3758
19301TIP3    H279319   4.197   3.369  14.095 -1.7765  1.2200 -3.8199
19302TIP3   OH279320   0.764   5.396   4.698 -0.4636 -0.8646  0.0446
19302TIP3    H179321   0.705   5.467   4.673 -0.0183 -0.6095 -0.3237
19302TIP3    H279322   0.732   5.365   4.782  0.4366  1.0515  1.1597
19303TIP3   OH279323   4.193   2.963  14.374 -0.3761 -0.1690 -0.6606
19303TIP3    H179324   4.283   2.995  14.383  0.2483 -1.8344 -0.6916
19303TIP3    H279325   4.200   2.889  14.313 -1.8909  0.1401 -1.2521
19304TIP3   OH279326   3.076   4.328  11.225 -0.0385  0.0647 -0.6995
19304TIP3    H179327   3.172   4.321  11.222 -0.1169 -0.7205 -2.4325
19304TIP3    H279328   3.056   4.404  11.172 -0.3547  0.9284  0.6001
19305TIP3   OH279329   1.338   1.375   6.316  0.3579 -0.2308 -0.3793
19305TIP3    H179330   1.335   1.462   6.356  2.6352 -0.7767  1.1793
19305TIP3    H279331   1.268   1.326   6.359 -0.0782  0.4351 -0.3160
19306TIP3   OH279332   4.966   6.613  11.084 -0.2756 -1.1356 -0.6354
19306TIP3    H179333   4.906   6.685  11.103  0.8651  0.7412 -3.4962
19306TIP3    H279334   4.919   6.558  11.022 -0.1782 -1.4535 -0.4344
19307TIP3   OH279335   5.145   4.147   1.147 -0.3929  0.3838  0.2513
19307TIP3    H179336   5.169   4.055   1.136 -1.9758 -0.1220  0.6678
19307TIP3    H279337   5.104   4.170   1.063 -0.0260  0.7053  0.1599
19308TIP3   OH279338   5.599   4.574   3.611  0.5591 -0.3697  0.2891
19308TIP3    H179339   5.614   4.654   3.661 -3.3483  1.0286 -0.4053
19308TIP3    H279340   5.633   4.594   3.524  0.0023  0.4410  0.2412
19309TIP3   OH279341   0.233   4.239   4.104 -1.1902  0.9240 -0.2661
19309TIP3    H179342   0.268   4.152   4.121 -2.0438  0.2194 -1.9334
19309TIP3    H279343   0.183   4.230   4.023 -2.1240  2.7430  0.0550
19310TIP3   OH279344   2.107   5.488   3.744 -0.3679 -0.5960  0.4775
19310TIP3    H179345   2.116   5.456   3.655  0.3075 -0.9256  0.6622
19310TIP3    H279346   2.138   5.417   3.799  0.0527 -0.0648  0.9396
19311TIP3   OH279347   2.714   1.019   1.335  0.1501  0.7884  0.5705
19311TIP3    H179348   2.643   1.051   1.391 -2.2122  1.2317 -2.4110
19311TIP3    H279349   2.700   0.925   1.330  0.0765  0.8113  0.3566
19312TIP3   OH279350   4.344   0.294   5.107 -0.1340 -0.3740  0.5669
19312TIP3    H179351   4.358   0.220   5.047  1.2500 -0.9336  1.5205
19312TIP3    H279352   4.376   0.262   5.192 -2.7834  0.0917  1.8316
19313TIP3   OH279353   6.508   6.178   0.594  0.2033 -0.2409  0.2420
19313TIP3    H179354   6.535   6.146   0.508  0.2251  0.7830 -0.1463
19313TIP3    H279355   6.582   6.158   0.651  0.6251  0.0057 -0.2093
19314TIP3   OH279356   6.739   0.107   5.003 -0.3482 -0.2285 -0.6016
19314TIP3    H179357   6.746   0.029   4.948  0.3551  0.3764 -1.3959
19314TIP3    H279358   6.787   0.174   4.955 -0.0816  0.4296  0.5505
19315TIP3   OH279359   4.664   2.043  16.850  0.5845 -0.7047 -0.5545
19315TIP3    H179360   4.609   2.120  16.841 -0.2122 -1.2336 -0.2941
19315TIP3    H279361   4.603   1.970  16.863  1.3403 -1.2959 -0.1964
19316TIP3   OH279362   0.861   0.365   1.401 -0.5760  0.2869  0.0894
19316TIP3    H179363   0.835   0.367   1.309 -0.1239 -1.1877 -0.0904
19316TIP3    H279364   0.924   0.293   1.407 -0.3076  0.6102  1.4797
19317TIP3   OH279365   1.496   5.706   2.697  0.1132  0.0701  0.5813
19317TIP3    H179366   1.480   5.624   2.744 -1.1847 -0.2686 -0.3921
19317TIP3    H279367   1.424   5.763   2.724 -0.8493 -0.2432 -1.1802
19318TIP3   OH279368   6.539   1.984  16.498  0.8804 -0.1063 -0.0803
19318TIP3    H179369   6.481   2.058  16.479  0.6067 -0.1758  0.4630
19318TIP3    H279370   6.625   2.012  16.466  0.5705  0.0362 -0.8018
19319TIP3   OH279371   6.258   1.797   5.255  0.5465  0.1329  0.4067
19319TIP3    H179372   6.325   1.769   5.193 -0.9810 -1.1342 -0.7755
19319TIP3    H279373   6.250   1.723   5.316 -2.0791 -1.3412 -1.5144
19320TIP3   OH279374   0.500   0.792   3.071 -0.1211 -0.1446  0.3369
19320TIP3    H179375   0.539   0.707   3.095 -0.2043 -0.2341  0.1581
19320TIP3    H279376   0.457   0.821   3.151 -1.1895 -0.8850  0.0428
19321TIP3   OH279377   2.611   6.705  11.258 -0.0202 -0.1147 -0.6540
19321TIP3    H179378   2.660   6.659  11.326 -0.2891  0.9819  0.3068
19321TIP3    H279379   2.525   6.722  11.297 -0.2820  0.2747 -1.3745
19322TIP3   OH279380   4.565   5.850   1.088 -0.4724 -0.2433  0.2523
19322TIP3    H179381   4.479   5.829   1.126 -0.0782 -0.7149  0.9021
19322TIP3    H279382   4.564   5.808   1.002 -0.7181 -0.6468  0.4497
19323TIP3   OH279383   5.429   1.696   0.740 -0.0889  0.0176  0.3136
19323TIP3    H179384   5.489   1.677   0.811  0.6456  0.2739 -0.2319
19323TIP3    H279385   5.435   1.791   0.727  1.0984 -0.2233 -1.2190
19324TIP3   OH279386   3.837   1.355  15.115 -0.3728 -0.0365 -0.4026
19324TIP3    H179387   3.844   1.260  15.110 -0.2266 -0.0699  0.3046
19324TIP3    H279388   3.897   1.379  15.186 -0.9184  0.5196 -0.1262
19325TIP3   OH279389   1.427   2.774   1.446  0.2052 -0.5381 -0.2954
19325TIP3    H179390   1.358   2.807   1.389  1.4564  0.6390 -1.2189
19325TIP3    H279391   1.382   2.739   1.522 -1.3531  2.0102  0.0839
19326TIP3   OH279392   6.002   5.490   5.646  0.0971  0.1551 -0.6676
19326TIP3    H179393   6.051   5.456   5.721 -1.4425 -0.0487  0.2764
19326TIP3    H279394   5.977   5.579   5.671 -0.3199  0.1339 -0.9925
19327TIP3   OH279395   3.565   3.414  11.603  0.2716 -0.7142  0.6490
19327TIP3    H179396   3.533   3.503  11.621  0.1333 -0.7051  0.3583
19327TIP3    H279397   3.653   3.427  11.570  0.0993 -0.6593  0.2105
19328TIP3   OH279398   3.791   5.670  13.759 -0.9544  0.2391  0.1899
19328TIP3    H179399   3.879   5.677  13.796 -0.8922  0.7842 -0.0657
19328TIP3    H279400   3.797   5.707  13.672 -1.7772  1.7119  0.7197
19329TIP3   OH279401   2.857   4.948   4.089  0.0593  0.5097  0.1889
19329TIP3    H179402   2.894   4.913   4.008  1.4732  1.4218  0.3924
19329TIP3    H279403   2.900   4.898   4.158 -1.2875 -0.4014  0.4012
19330TIP3   OH279404   6.205   4.626   1.410 -0.0011 -0.4607 -0.2373
19330TIP3    H179405   6.291   4.667   1.402  0.6482 -1.7707 -0.2537
19330TIP3    H279406   6.168   4.630   1.321  0.0312  0.0902 -0.2324
19331TIP3   OH279407   1.514   6.595  10.746  0.0305 -0.5871 -0.4296
19331TIP3    H179408   1.506   6.650  10.824 -3.0101 -0.7235 -0.5279
19331TIP3    H279409   1.595   6.546  10.760  0.0250 -0.0166  2.2431
19332TIP3   OH279410   1.018   6.482  12.268  0.2666  0.3729 -0.2355
19332TIP3    H179411   0.954   6.420  12.303  0.3686 -0.1668 -0.9896
19332TIP3    H279412   1.070   6.430  12.207  1.8433  0.6371  0.8172
19333TIP3   OH279413   2.425   3.703   6.285 -0.1834  0.1231 -0.1052
19333TIP3    H179414   2.404   3.635   6.349  0.0591  0.4177  0.2875
19333TIP3    H279415   2.441   3.655   6.203  1.4985 -0.4218  0.5155
19334TIP3   OH279416   4.936   6.230   4.235  0.1112  0.3921  0.4429
19334TIP3    H179417   4.855   6.252   4.281 -0.2630 -0.6117  0.3085
19334TIP3    H279418   4.919   6.255   4.144 -0.3331 -0.4392  0.2789
19335TIP3   OH279419   2.129   5.770  15.571  0.0399 -0.0043  0.1909
19335TIP3    H179420   2.200   5.762  15.508 -0.8002 -0.7399 -0.7109
19335TIP3    H279421   2.114   5.864  15.579  1.4035  0.1791  0.7571
19336TIP3   OH279422   2.229   5.915  13.845  0.5484 -0.2942 -0.0361
19336TIP3    H179423   2.149   5.863  13.846  0.2174  0.1745  1.6048
19336TIP3    H279424   2.273   5.891  13.764 -1.1849 -0.6622 -0.9107
19337TIP3   OH279425   1.116   0.287   2.590 -0.3783  0.0682 -0.5113
19337TIP3    H179426   1.158   0.363   2.630 -2.1689  1.7999 -1.7463
19337TIP3    H279427   1.187   0.225   2.575  1.0890  1.3462  0.8218
19338TIP3   OH279428   0.229   3.518  10.598 -0.0969 -0.1138 -0.1324
19338TIP3    H179429   0.204   3.438  10.645 -1.9320 -0.2071 -1.1661
19338TIP3    H279430   0.192   3.506  10.510  0.7880  1.2801 -0.7157
19339TIP3   OH279431   3.149   0.773   5.492  0.0887  0.3788 -0.3119
19339TIP3    H179432   3.167   0.679   5.491 -0.8584  0.1634  1.0494
19339TIP3    H279433   3.062   0.781   5.453 -1.4162  0.2579  2.7421
19340TIP3   OH279434   5.932   3.242   2.573  0.5549  0.0027  0.4557
19340TIP3    H179435   5.943   3.266   2.481 -0.2657 -1.1614  0.0353
19340TIP3    H279436   5.858   3.296   2.603  0.3768 -0.1177  0.2368
19341TIP3   OH279437   6.389   5.726   0.174 -0.2697  0.0957  0.4038
19341TIP3    H179438   6.295   5.726   0.156 -0.4242 -0.6039  1.1528
19341TIP3    H279439   6.420   5.810   0.140 -0.8212 -0.4261 -1.5535
19342TIP3   OH279440   3.191   3.477  11.510 -0.3511 -0.9031  0.0344
19342TIP3    H179441   3.273   3.455  11.465  0.1351  0.4659  0.1887
19342TIP3    H279442   3.127   3.417  11.474  0.6934 -1.9181 -0.1941
19343TIP3   OH279443   4.574   0.665   1.742 -0.0398 -0.4885 -0.1962
19343TIP3    H179444   4.635   0.721   1.694  0.4063 -1.2237 -0.4998
19343TIP3    H279445   4.499   0.722   1.761 -0.3030 -0.2061 -1.9053
19344TIP3   OH279446   2.778   6.221  13.752 -0.1802 -0.3990  0.1157
19344TIP3    H179447   2.821   6.135  13.752  1.1543  0.2465 -0.7222
19344TIP3    H279448   2.734   6.225  13.668  0.2992 -0.0050 -0.1172
19345TIP3   OH279449   2.194   3.442   2.247  0.3302  0.8617 -0.3309
19345TIP3    H179450   2.159   3.453   2.158 -1.8816 -0.0778  0.3438
19345TIP3    H279451   2.119   3.411   2.298  2.1588 -1.1892  1.2961
19346TIP3   OH279452   2.212   1.773  16.192  0.0388 -0.0962  0.5471
19346TIP3    H179453   2.217   1.864  16.164  0.9839 -0.3566 -0.1610
19346TIP3    H279454   2.302   1.741  16.188 -0.4178 -1.3754 -0.3305
19347TIP3   OH279455   2.324   6.451  14.012  0.1576  0.3124  0.0977
19347TIP3    H179456   2.404   6.471  14.060 -0.1885  0.1162  0.7674
19347TIP3    H279457   2.275   6.394  14.071 -0.1951 -0.0743 -0.5683
19348TIP3   OH279458   1.346   0.067  11.266 -0.0273  0.4032 -0.3535
19348TIP3    H179459   1.333   0.068  11.171  0.9284  2.3922 -0.5288
19348TIP3    H279460   1.285   0.133  11.299 -2.8905 -2.6512  0.9147
19349TIP3   OH279461   6.360   2.111  16.907 -0.0726  0.0628  0.4583
19349TIP3    H179462   6.289   2.172  16.884  2.5411  2.9299 -0.7905
19349TIP3    H279463   6.363   2.049  16.833 -0.0784  1.1488 -0.4862
19350TIP3   OH279464   0.180   6.504  12.998 -0.3829 -0.2573 -0.4587
19350TIP3    H179465   0.161   6.597  12.988  1.3922 -0.0256 -2.3334
19350TIP3    H279466   0.191   6.472  12.909 -0.7852 -2.2484  0.1579
19351TIP3   OH279467   4.070   3.808   3.571 -0.1969  0.1820  0.1462
19351TIP3    H179468   4.068   3.887   3.516  3.3791 -0.0649 -0.5403
19351TIP3    H279469   4.048   3.737   3.511 -2.7985  0.4628  0.6311
19352TIP3   OH279470   0.831   6.800   1.997  0.2618 -0.1455  0.1695
19352TIP3    H179471   0.826   6.714   2.037  1.2644 -0.1418  0.3361
19352TIP3    H279472   0.919   6.804   1.958  0.6283  1.1610  1.0402
19353TIP3   OH279473   0.838   6.804  14.537 -0.6490  0.5018  0.4207
19353TIP3    H179474   0.846   6.851  14.453  0.1929  1.1468  0.8412
19353TIP3    H279475   0.925   6.810  14.576 -0.8648 -0.3497  1.0614
19354TIP3   OH279476   2.455   2.696   5.376 -0.1358  0.0848  0.2070
19354TIP3    H179477   2.458   2.614   5.426 -1.9712 -0.5552 -0.6124
19354TIP3    H279478   2.444   2.764   5.442  0.6412 -0.4108  0.8611
19355TIP3   OH279479   0.591   0.673   5.228 -0.5799 -0.1905 -0.9355
19355TIP3    H179480   0.563   0.764   5.218  2.9207  0.9801 -1.5706
19355TIP3    H279481   0.561   0.648   5.315  0.2539  2.4159  0.2209
19356TIP3   OH279482   5.019   0.546  14.141 -0.3083 -0.8113 -0.0682
19356TIP3    H179483   4.975   0.620  14.098  1.3572  1.4157  1.7787
19356TIP3    H279484   5.106   0.544  14.101 -0.3349 -1.7756 -0.0830
19357TIP3   OH279485   0.189   2.749   2.227 -0.0320  0.7863 -0.7563
19357TIP3    H179486   0.233   2.707   2.153  0.1326  1.3293 -0.9723
19357TIP3    H279487   0.123   2.806   2.187  0.8025  1.9382 -0.5469
19358TIP3   OH279488   3.125   4.448  16.955  0.0938 -0.0950 -0.2813
19358TIP3    H179489   3.192   4.513  16.978 -0.8913  0.4647  1.1234
19358TIP3    H279490   3.056   4.460  17.020 -1.6246 -0.3292 -1.9630
19359TIP3   OH279491   2.363   6.448   4.453  0.3035 -0.1148 -0.1770
19359TIP3    H179492   2.379   6.418   4.364 -0.1780 -1.8115  0.2712
19359TIP3    H279493   2.293   6.390   4.486 -0.6688  1.5125  0.7697
19360TIP3   OH279494   1.901   5.409  14.167  0.6231 -0.0634 -0.1711
19360TIP3    H179495   1.875   5.466  14.239 -0.0798 -1.9498  1.1703
19360TIP3    H279496   1.982   5.447  14.134  0.2802  1.5656  0.7815
19361TIP3   OH279497   4.308   4.430   6.710  0.4091  0.2714  0.5573
19361TIP3    H179498   4.225   4.391   6.736 -0.2655 -0.3042 -2.1440
19361TIP3    H279499   4.326   4.392   6.624  3.1509  0.8997  0.7738
19362TIP3   OH279500   6.047   4.723   3.125  0.0403  0.0457  0.2238
19362TIP3    H179501   6.058   4.744   3.032  0.4631  0.0487  0.2754
19362TIP3    H279502   5.982   4.787   3.156 -3.7919 -2.7923 -1.1287
19363TIP3   OH279503   3.095   2.656   5.786  0.4233  0.2048  0.3304
19363TIP3    H179504   3.090   2.737   5.736 -0.7813 -0.8048 -1.2920
19363TIP3    H279505   3.019   2.658   5.844  0.9750  0.6828  1.0557
19364TIP3   OH279506   6.796   1.430  12.624 -0.4138  0.5289 -0.0657
19364TIP3    H179507   6.762   1.346  12.593 -1.6481  0.6369  0.8936
19364TIP3    H279508   6.791   1.488  12.548  1.4561 -0.4995 -1.0428
19365TIP3   OH279509   2.492   2.337  12.587  0.3596  0.0596  0.2345
19365TIP3    H179510   2.579   2.301  12.571  0.2400 -0.2392  0.2548
19365TIP3    H279511   2.504   2.395  12.662  0.3917 -0.5615  0.7183
19366TIP3   OH279512   1.705   1.205  15.732 -0.0907  0.9375 -0.3209
19366TIP3    H179513   1.635   1.155  15.691  0.4343 -1.7073  1.7247
19366TIP3    H279514   1.733   1.267  15.665 -3.2141  0.9389 -1.7720
19367TIP3   OH279515   6.109   0.091   2.192  0.0304  0.4784  0.0464
19367TIP3    H179516   6.062   0.054   2.266 -0.6822 -0.3900 -0.8033
19367TIP3    H279517   6.167   0.157   2.230  0.9083 -1.0746  1.5693
19368TIP3   OH279518   6.121   5.014  13.737 -0.0838 -0.5477  0.1733
19368TIP3    H179519   6.055   4.980  13.798 -0.0395 -0.7410  0.1143
19368TIP3    H279520   6.141   5.101  13.770 -0.6476 -0.3357 -0.0303
19369TIP3   OH279521   1.753   4.839   5.639  0.5730 -0.4504 -0.0798
19369TIP3    H179522   1.798   4.780   5.700 -0.4759 -1.3268 -0.1182
19369TIP3    H279523   1.814   4.911   5.627  1.4099 -0.9569  0.8877
19370TIP3   OH279524   5.598   4.450  15.514 -0.0226 -0.1320 -0.1537
19370TIP3    H179525   5.587   4.376  15.454 -1.2640  0.4200 -0.6457
19370TIP3    H279526   5.543   4.428  15.589 -1.3221  0.7748 -0.7984
19371TIP3   OH279527   3.642   5.837   2.918 -0.3977  0.6799 -0.2160
19371TIP3    H179528   3.672   5.751   2.889  2.7289  1.8194 -0.7254
19371TIP3    H279529   3.630   5.828   3.013 -0.9824 -0.5097 -0.3885
19372TIP3   OH279530   5.390   1.366  16.839  0.1169 -0.2461 -0.6472
19372TIP3    H179531   5.401   1.308  16.764  0.4892 -0.3128 -0.5423
19372TIP3    H279532   5.418   1.452  16.808  0.9507 -0.4114 -0.3899
19373TIP3   OH279533   3.146   5.150   0.042  0.2044  0.5790  0.5268
19373TIP3    H179534   3.181   5.148  -0.047  0.2188  2.0374  0.4773
19373TIP3    H279535   3.189   5.077   0.087  0.2514 -0.1249 -0.6264
19374TIP3   OH279536   2.617   5.133  12.644  0.0637  0.5878  0.5607
19374TIP3    H179537   2.577   5.112  12.728 -0.1739  1.7066  0.7341
19374TIP3    H279538   2.552   5.105  12.579  0.1263 -0.0067  0.7451
19375TIP3   OH279539   6.228   1.454  13.428 -0.3394 -0.7085 -0.2556
19375TIP3    H179540   6.166   1.466  13.356 -0.1377 -1.4727 -0.5628
19375TIP3    H279541   6.183   1.397  13.490  0.0831 -1.3285 -0.5151
19376TIP3   OH279542   1.521   3.426  11.115  0.2118  0.0024 -0.1994
19376TIP3    H179543   1.474   3.413  11.033 -0.9337 -1.8917  0.7061
19376TIP3    H279544   1.593   3.364  11.112  1.1395  1.0501 -0.4246
19377TIP3   OH279545   5.649   4.742   1.824  0.1953 -0.2541  0.0253
19377TIP3    H179546   5.742   4.721   1.837  0.7356  0.7876 -1.7989
19377TIP3    H279547   5.607   4.657   1.813  1.3094 -0.6826 -1.2265
19378TIP3   OH279548   4.661   0.425   1.635  0.1921  0.3007  0.4384
19378TIP3    H179549   4.586   0.365   1.640  0.6344 -0.2305  0.8282
19378TIP3    H279550   4.622   0.512   1.639 -0.3632  0.0268  1.3716
19379TIP3   OH279551   4.973   4.690   2.486 -0.1516  0.7484  0.2369
19379TIP3    H179552   4.958   4.610   2.535 -1.1542  1.1234  0.5731
19379TIP3    H279553   5.067   4.706   2.495 -0.1993  0.4702  1.5200
19380TIP3   OH279554   6.351   6.004   3.814 -0.0952  0.1181  0.0305
19380TIP3    H179555   6.356   6.073   3.747  0.1448 -0.0618 -0.1404
19380TIP3    H279556   6.441   5.990   3.841  0.5443 -3.0135 -2.9172
19381TIP3   OH279557   0.665   2.890   2.124 -0.2786 -0.2443 -0.3418
19381TIP3    H179558   0.749   2.849   2.100 -0.5938 -1.7869  1.0040
19381TIP3    H279559   0.609   2.816   2.148 -2.3298  0.6880 -2.0151
19382TIP3   OH279560   4.222   2.401  10.608  0.3135  1.0348  0.5127
19382TIP3    H179561   4.289   2.417  10.541 -1.1543  1.0365 -1.0324
19382TIP3    H279562   4.218   2.482  10.659  1.0217  1.2722  0.1961
19383TIP3   OH279563   6.052   1.097   5.683  0.8304 -0.0771 -0.1808
19383TIP3    H179564   6.064   1.033   5.613  0.2493 -0.5570  0.1457
19383TIP3    H279565   6.124   1.079   5.744 -0.3911 -1.7322  0.8708
19384TIP3   OH279566   2.931   4.974   1.866 -0.2665  0.4148  0.1075
19384TIP3    H179567   2.956   4.882   1.859 -0.3529  0.3537  0.5576
19384TIP3    H279568   2.910   5.000   1.776 -0.1466  0.0226 -0.0371
19385TIP3   OH279569   6.400   4.806   1.698 -0.3711  0.5607 -0.3302
19385TIP3    H179570   6.373   4.725   1.740 -2.6137  0.9704 -0.8197
19385TIP3    H279571   6.491   4.819   1.724  0.0811 -2.1442 -0.3417
19386TIP3   OH279572   5.621   2.015  11.806 -0.7743 -0.1691 -0.5934
19386TIP3    H179573   5.613   1.996  11.899 -2.1084  2.4481 -0.0967
19386TIP3    H279574   5.713   2.000  11.786 -0.2695  0.0734  1.3490
19387TIP3   OH279575   6.029   5.205   0.022  0.3856 -0.7354 -0.1649
19387TIP3    H179576   6.004   5.127   0.071  2.5837 -1.4907 -0.1359
19387TIP3    H279577   6.055   5.269   0.089  2.4712 -1.4382 -0.2302
19388TIP3   OH279578   0.240   2.025  15.713  0.1822  0.0967 -0.3809
19388TIP3    H179579   0.160   1.992  15.753  0.2937  0.9928  0.5941
19388TIP3    H279580   0.309   2.003  15.775  0.8906 -1.6738 -1.7197
19389TIP3   OH279581   2.283   3.397   0.439 -0.3145 -0.2384  0.0839
19389TIP3    H179582   2.241   3.410   0.524 -3.3078  1.0049 -1.4162
19389TIP3    H279583   2.370   3.435   0.449 -0.5272 -0.2188  2.5746
19390TIP3   OH279584   5.362   5.058   5.728  0.0801  0.0265 -0.2727
19390TIP3    H179585   5.272   5.089   5.720  0.0766  0.2093  0.3667
19390TIP3    H279586   5.406   5.088   5.649 -0.2547  0.5308 -0.2686
19391TIP3   OH279587   4.298   6.701  16.128 -0.2991  0.5203 -0.0114
19391TIP3    H179588   4.319   6.614  16.094 -0.2360  0.9292 -1.0635
19391TIP3    H279589   4.270   6.751  16.051  1.0459  1.8475  0.3025
19392TIP3   OH279590   1.618   2.345   0.303  0.4055 -0.1840  0.0215
19392TIP3    H179591   1.713   2.338   0.312  0.7327  2.9814  0.0908
19392TIP3    H279592   1.590   2.399   0.377 -0.8361  2.1561 -1.9825
19393TIP3   OH279593   4.571   5.724  12.049  1.2137 -0.2834  0.1503
19393TIP3    H179594   4.492   5.764  12.013  1.0161 -1.2925 -0.6025
19393TIP3    H279595   4.636   5.794  12.047  0.5326  0.3651  0.1273
19394TIP3   OH279596   3.499   0.864   1.895  0.0135 -0.4155 -0.5387
19394TIP3    H179597   3.509   0.926   1.822 -1.0398 -0.1453 -0.4635
19394TIP3    H279598   3.584   0.866   1.939  0.1626  0.6051 -0.8377
19395TIP3   OH279599   2.217   1.917   4.700  0.4181  0.1551 -0.2572
19395TIP3    H179600   2.239   1.991   4.756 -1.9116  0.4174  0.4335
19395TIP3    H279601   2.179   1.852   4.759 -1.1679  0.0298 -1.3369
19396TIP3   OH279602   1.221   6.207  16.803 -0.5095  0.3747  0.1600
19396TIP3    H179603   1.217   6.174  16.893 -0.9411  1.3345  0.5143
19396TIP3    H279604   1.312   6.196  16.777 -0.3086  0.3803  0.8364
19397TIP3   OH279605   2.712   2.415   5.301 -0.0069 -0.3057 -0.0175
19397TIP3    H179606   2.628   2.458   5.281  0.8472  1.4380 -0.0691
19397TIP3    H279607   2.778   2.483   5.284  1.3870 -1.4766  0.5122
19398TIP3   OH279608   1.517   0.942  11.744  0.5711  0.2634 -0.2911
19398TIP3    H179609   1.449   0.878  11.725  2.1014 -1.0461 -1.6296
19398TIP3    H279610   1.546   0.921  11.832 -0.5207  0.6461  0.1765
19399TIP3   OH279611   0.667   0.400  15.055  0.0280 -0.2902  0.0843
19399TIP3    H179612   0.752   0.446  15.050 -0.3135  0.2506 -1.0883
19399TIP3    H279613   0.687   0.317  15.098  1.4194 -0.7456 -1.3601
19400TIP3   OH279614   5.908   1.798  12.794 -0.5426  1.1585 -0.3274
19400TIP3    H179615   5.996   1.816  12.762 -0.4340  1.5081  0.1445
19400TIP3    H279616   5.871   1.736  12.732  0.7763 -0.6369  0.6096
19401TIP3   OH279617   4.218   1.879  13.082 -0.2794  0.3161 -0.1213
19401TIP3    H179618   4.281   1.949  13.098 -0.9940  1.2443 -1.2339
19401TIP3    H279619   4.272   1.805  13.054  0.3991  0.7592 -0.0194
19402TIP3   OH279620   1.042   3.762   3.774  0.6883 -0.3004 -0.0676
19402TIP3    H179621   1.015   3.750   3.865 -1.5408 -0.3899 -0.6895
19402TIP3    H279622   0.979   3.823   3.737  1.3973 -0.4589 -1.6379
19403TIP3   OH279623   0.332   1.286  12.020 -0.5132  0.2119  0.5341
19403TIP3    H179624   0.278   1.330  11.954 -0.2143 -0.5125 -0.2067
19403TIP3    H279625   0.344   1.197  11.987  0.4436  0.1110  1.0975
19404TIP3   OH279626   2.958   1.306  15.656 -0.8821 -0.5068  0.2166
19404TIP3    H179627   2.879   1.256  15.674 -1.5454  0.0426 -1.0842
19404TIP3    H279628   2.927   1.389  15.620  0.2570  0.1793  0.7473
19405TIP3   OH279629   2.524   3.243   2.741 -0.2585 -0.2884 -0.1962
19405TIP3    H179630   2.509   3.276   2.829 -0.0013  0.0138 -0.2660
19405TIP3    H279631   2.553   3.319   2.691 -0.9367 -0.3405 -0.6781
19406TIP3   OH279632   5.283   6.315  12.158 -0.1761 -0.1127 -0.3437
19406TIP3    H179633   5.201   6.267  12.145 -1.0546  0.7975  1.4508
19406TIP3    H279634   5.262   6.405  12.133 -0.4007  0.5539  1.9253
19407TIP3   OH279635   6.416   1.885  16.738  0.6056 -0.1694 -0.6764
19407TIP3    H179636   6.424   1.931  16.655  1.4031  1.9653  0.4876
19407TIP3    H279637   6.502   1.895  16.779  0.5822 -2.1499 -0.0310
19408TIP3   OH279638   0.013   6.792  16.354 -0.4205 -0.2776 -0.3288
19408TIP3    H179639   0.007   6.856  16.424  0.1712 -1.3438  0.7278
19408TIP3    H279640   0.050   6.841  16.280 -0.0653  0.6114  0.4269
19409TIP3   OH279641   5.601   0.559   3.335 -0.0494  0.1223 -0.1030
19409TIP3    H179642   5.568   0.470   3.322 -0.8099  0.4489 -0.4787
19409TIP3    H279643   5.696   0.550   3.327 -0.1725 -0.5006 -1.1350
19410TIP3   OH279644   4.336   3.518  16.775  0.2630  0.4155 -0.5213
19410TIP3    H179645   4.335   3.427  16.743 -0.9329 -0.0311  0.7086
19410TIP3    H279646   4.427   3.532  16.802  0.1847 -0.8927  0.5439
19411TIP3   OH279647   6.473   1.054  15.299  0.2297 -0.0339 -0.0243
19411TIP3    H179648   6.422   1.042  15.219  1.3317  1.6026 -1.0498
19411TIP3    H279649   6.408   1.075  15.367 -0.7257 -1.5355 -0.4394
19412TIP3   OH279650   6.150   2.084   1.261  0.0651 -0.3974  0.5801
19412TIP3    H179651   6.204   2.007   1.279  0.2362 -0.5449 -0.5209
19412TIP3    H279652   6.063   2.059   1.291  0.1970 -0.8917  0.5598
19413TIP3   OH279653   0.759   4.205  11.885  0.3158  0.3060  0.5704
19413TIP3    H179654   0.699   4.220  11.812  0.6727  1.0931  0.4229
19413TIP3    H279655   0.745   4.114  11.909  0.2253  0.0168 -0.5097
19414TIP3   OH279656   2.512   5.566  12.313 -0.2610 -0.0838 -0.0486
19414TIP3    H179657   2.562   5.558  12.394  0.8560 -0.0001 -0.6991
19414TIP3    H279658   2.545   5.646  12.273 -2.8454  1.4784  0.7397
19415TIP3   OH279659   5.011   6.356   4.510 -0.0496 -0.6781 -0.0734
19415TIP3    H179660   5.054   6.308   4.439  0.9413  0.1085 -0.0314
19415TIP3    H279661   5.012   6.447   4.481  1.0094 -0.2358  1.2255
19416TIP3   OH279662   6.583   1.117   5.110 -0.5787  0.2660  0.3679
19416TIP3    H179663   6.537   1.072   5.181 -1.6581  0.2422 -0.3258
19416TIP3    H279664   6.580   1.056   5.037 -0.2317  0.6432  0.0334
19417TIP3   OH279665   2.345   5.236  12.446 -0.2108 -0.1022 -0.2153
19417TIP3    H179666   2.277   5.240  12.379  1.0389 -0.5717 -1.5467
19417TIP3    H279667   2.381   5.148  12.439  0.1359 -0.0617  0.8927
19418TIP3   OH279668   1.353   2.883   3.243  0.6684 -0.0713  0.2184
19418TIP3    H179669   1.382   2.863   3.154 -0.5571  2.2992 -0.7996
19418TIP3    H279670   1.265   2.920   3.232 -0.0584 -0.8983  2.5580
19419TIP3   OH279671   2.336   2.754  16.859 -0.1836  0.0322  0.2059
19419TIP3    H179672   2.405   2.775  16.922 -0.0462  1.8664 -0.4842
19419TIP3    H279673   2.384   2.726  16.781 -0.3294 -1.4779  0.6426
19420TIP3   OH279674   0.679   5.990   4.344 -0.2552  0.2845  0.2838
19420TIP3    H179675   0.697   6.081   4.367 -1.1806  0.3927  0.6451
19420TIP3    H279676   0.754   5.941   4.376 -0.1233  0.8244  0.8080
19421TIP3   OH279677   5.063   4.066   5.372 -0.4777 -0.1980 -0.1616
19421TIP3    H179678   5.132   4.020   5.420 -0.5556 -0.0343  0.1097
19421TIP3    H279679   5.033   4.003   5.306  1.0073  0.2670 -1.3364
19422TIP3   OH279680   3.239   5.386   5.614 -0.1765  0.0342 -0.0199
19422TIP3    H179681   3.186   5.393   5.534 -1.0142 -0.3186  0.4958
19422TIP3    H279682   3.178   5.353   5.680  0.0339  2.0259  1.2392
19423TIP3   OH279683   1.392   1.920  16.321 -0.2317  0.0399 -0.0245
19423TIP3    H179684   1.335   1.953  16.251 -1.6270 -1.1973  0.4670
19423TIP3    H279685   1.445   1.852  16.279 -1.1157 -0.7491  0.0927
19424TIP3   OH279686   1.406   1.601   3.172 -1.0193 -0.4941 -0.5069
19424TIP3    H179687   1.477   1.623   3.232 -1.8565  2.9680 -0.6096
19424TIP3    H279688   1.350   1.541   3.221 -0.6568  0.7435  1.5061
19425TIP3   OH279689   5.320   0.434   4.583  0.1470 -0.1518 -0.0769
19425TIP3    H179690   5.334   0.421   4.677  1.1443  1.0962 -0.0218
19425TIP3    H279691   5.408   0.427   4.545 -0.4756 -2.8486 -1.2714
19426TIP3   OH279692   6.504   2.243  10.277 -0.2156 -0.3684 -0.1262
19426TIP3    H179693   6.452   2.322  10.277  0.9190  0.4049  0.0245
19426TIP3    H279694   6.440   2.171  10.274 -1.2584  0.5339  0.0905
19427TIP3   OH279695   1.063   6.008   2.168  0.0274 -0.1154  0.5609
19427TIP3    H179696   1.132   6.030   2.106 -0.0251 -0.2521  0.4520
19427TIP3    H279697   1.045   5.915   2.152  0.2786 -0.2511  1.0428
19428TIP3   OH279698   4.847   0.779  15.691  0.5370 -0.0117 -0.3762
19428TIP3    H179699   4.862   0.727  15.770  0.5874  1.2537  0.4785
19428TIP3    H279700   4.931   0.823  15.675  0.0490  1.0785 -0.0916
19429TIP3   OH279701   1.059   1.365   5.401  0.1972 -0.0344  0.4744
19429TIP3    H179702   0.988   1.334   5.457 -1.1625  1.7734 -0.1544
19429TIP3    H279703   1.080   1.290   5.345 -0.8587 -0.7502  0.9967
19430TIP3   OH279704   0.819   2.038   6.533 -0.1736  0.1887  0.0854
19430TIP3    H179705   0.767   2.098   6.479 -0.2896  0.5708  0.6133
19430TIP3    H279706   0.869   2.095   6.591  0.8122 -0.1716 -0.3693
19431TIP3   OH279707   3.897   3.301  11.052 -0.1593 -0.1907  0.2861
19431TIP3    H179708   3.914   3.337  10.965 -1.4281  1.7547  0.7676
19431TIP3    H279709   3.943   3.361  11.112 -1.7976  0.3463  1.0800
19432TIP3   OH279710   1.616   4.101  13.583 -0.1560  0.1538  0.2495
19432TIP3    H179711   1.680   4.095  13.512 -1.2983 -1.6478 -0.7168
19432TIP3    H279712   1.626   4.018  13.630 -1.3236  0.1052  0.4480
19433TIP3   OH279713   6.620   2.679   5.284 -0.5957  0.0287  1.1255
19433TIP3    H179714   6.649   2.587   5.289 -0.5745 -0.2378 -1.9542
19433TIP3    H279715   6.553   2.679   5.216 -1.5779  2.1179  2.0170
19434TIP3   OH279716   1.505   0.973   1.675 -0.1165 -0.5031  0.1679
19434TIP3    H179717   1.527   0.951   1.766  0.2213 -0.0422  0.2015
19434TIP3    H279718   1.465   1.060   1.680  0.0927 -0.3877 -0.1503
19435TIP3   OH279719   6.728   0.901   1.597  0.0524  0.4521 -0.5493
19435TIP3    H179720   6.636   0.919   1.616  0.4282  1.8439  0.0557
19435TIP3    H279721   6.777   0.951   1.663  1.2738  0.9744 -1.8022
19436TIP3   OH279722   3.361   1.317   5.347  0.3274  0.4367  0.3599
19436TIP3    H179723   3.389   1.316   5.439 -1.4855  2.2422  1.0125
19436TIP3    H279724   3.370   1.409   5.321 -1.6250  0.4386 -0.4470
19437TIP3   OH279725   4.640   5.879  17.025 -0.5107 -0.7518 -0.3112
19437TIP3    H179726   4.650   5.842  16.937  0.5442 -0.6716 -0.2433
19437TIP3    H279727   4.722   5.926  17.040 -1.5578  1.0985 -0.1275
19438TIP3   OH279728   2.826   0.842   6.518  0.0999 -0.4583  0.4949
19438TIP3    H179729   2.887   0.790   6.570  0.5027 -0.7875 -0.2882
19438TIP3    H279730   2.779   0.895   6.582 -0.0200 -1.4728  1.2645
19439TIP3   OH279731   6.053   3.322   2.114  0.4519  0.2706  0.4799
19439TIP3    H179732   6.032   3.314   2.207  2.5405  1.6482  1.1483
19439TIP3    H279733   6.026   3.411   2.091 -1.6612 -0.6211 -0.7542
19440TIP3   OH279734   3.266   0.447  13.886  0.2874 -0.0048 -0.1721
19440TIP3    H179735   3.324   0.524  13.894 -0.2462  0.4151 -0.3035
19440TIP3    H279736   3.282   0.414  13.798 -0.8900  1.1134 -0.8316
19441TIP3   OH279737   5.640   1.239   2.642  0.4154  0.3090  0.2174
19441TIP3    H179738   5.593   1.217   2.561  0.4071  1.6219 -0.1690
19441TIP3    H279739   5.716   1.182   2.642  1.5567  1.7077 -1.8411
19442TIP3   OH279740   2.063   1.607  16.046  0.2333  0.2174 -0.3752
19442TIP3    H179741   2.066   1.535  16.109 -1.1180  0.4750  0.0255
19442TIP3    H279742   2.099   1.682  16.093  0.1606  0.1739 -0.2493
19443TIP3   OH279743   5.981   0.639   6.140 -0.0243 -0.9019 -0.2016
19443TIP3    H179744   6.018   0.726   6.123  0.7973 -1.3724 -0.8957
19443TIP3    H279745   5.978   0.632   6.235 -0.8334  0.1843 -0.1245
19444TIP3   OH279746   1.975   5.306   0.911 -0.8728 -0.2274  0.0609
19444TIP3    H179747   1.895   5.292   0.962 -2.4087  1.9105 -1.5423
19444TIP3    H279748   1.943   5.341   0.827  1.6940 -0.7915 -1.2465
19445TIP3   OH279749   3.151   5.984   3.401 -0.3479 -0.2320 -0.2941
19445TIP3    H179750   3.175   6.073   3.373  1.1520 -0.5598 -0.1302
19445TIP3    H279751   3.154   5.988   3.496  0.6331 -0.6834 -0.2993
19446TIP3   OH279752   6.547   2.748  11.317  0.1140  0.4908  0.1690
19446TIP3    H179753   6.605   2.741  11.394 -0.4178 -1.7092  0.4296
19446TIP3    H279754   6.538   2.658  11.286 -0.7482  1.1870 -1.7102
19447TIP3   OH279755   1.117   2.233   1.088  0.1610  0.5120 -0.9737
19447TIP3    H179756   1.027   2.225   1.056 -0.5794  1.2254  0.8341
19447TIP3    H279757   1.163   2.160   1.047 -2.0517 -2.0280  0.7193
19448TIP3   OH279758   3.205   6.182  13.861 -0.3856  0.1801  0.4466
19448TIP3    H179759   3.134   6.141  13.812 -0.2516  0.9697 -0.4409
19448TIP3    H279760   3.175   6.272  13.877  0.5801  0.6673 -0.3497
19449TIP3   OH279761   6.405   3.645   5.758 -0.3623  0.3317 -0.4266
19449TIP3    H179762   6.347   3.714   5.789  0.4585  0.5102  0.7648
19449TIP3    H279763   6.482   3.651   5.814  0.4844 -0.4022 -1.4663
19450TIP3   OH279764   3.193   6.667   5.454 -0.1725 -0.1972  0.4600
19450TIP3    H179765   3.225   6.620   5.531 -1.3201  0.7147  1.5330
19450TIP3    H279766   3.195   6.759   5.479 -0.0542  0.1640 -0.8100
19451TIP3   OH279767   6.266   5.505   2.720 -0.4685  0.1818  0.1630
19451TIP3    H179768   6.265   5.421   2.675 -1.3760  0.3691 -0.1874
19451TIP3    H279769   6.338   5.498   2.782 -0.8379 -1.0212  0.4807
19452TIP3   OH279770   3.140   0.287   3.588  0.5611  0.4193 -0.1760
19452TIP3    H179771   3.183   0.366   3.620  2.6294 -0.8533  0.3711
19452TIP3    H279772   3.114   0.240   3.667 -1.3641  0.8763 -0.4985
19453TIP3   OH279773   0.227   0.564  15.011 -0.6045  0.6662 -0.5276
19453TIP3    H179774   0.210   0.511  14.933 -0.6898  0.0539 -0.1042
19453TIP3    H279775   0.198   0.508  15.084 -0.9569  1.4054 -0.0861
19454TIP3   OH279776   2.136   2.684  13.268 -0.3872 -0.4678 -0.0087
19454TIP3    H179777   2.159   2.770  13.305 -1.4093 -0.3979  0.4795
19454TIP3    H279778   2.192   2.622  13.315  1.2453  0.0181 -1.1980
19455TIP3   OH279779   5.817   0.028  16.928  0.1644  0.4118 -0.0940
19455TIP3    H179780   5.851  -0.060  16.912  0.1096  0.5335 -0.9388
19455TIP3    H279781   5.754   0.017  16.999 -0.5619 -0.4055 -0.8367
19456TIP3   OH279782   4.548   6.128  15.171  0.3965  0.4722  0.0970
19456TIP3    H179783   4.503   6.056  15.214 -1.8002  0.6869 -1.6913
19456TIP3    H279784   4.630   6.089  15.139 -0.0565 -0.8177  0.4628
19457TIP3   OH279785   2.849   4.708   5.006 -0.3003  0.0592  0.1236
19457TIP3    H179786   2.795   4.779   5.042  0.7599  0.3892  1.1428
19457TIP3    H279787   2.866   4.651   5.081 -3.1887 -2.7360 -1.1227
19458TIP3   OH279788   0.970   1.913  12.985 -0.0589  0.2954  0.2867
19458TIP3    H179789   1.057   1.873  12.976  0.3119  1.2044 -0.3207
19458TIP3    H279790   0.940   1.926  12.896 -0.8155  0.0263  0.4941
19459TIP3   OH279791   0.859   5.729  13.392 -0.3535  0.6604 -1.2904
19459TIP3    H179792   0.856   5.822  13.369 -1.4624  1.2202  0.9265
19459TIP3    H279793   0.768   5.704  13.407  0.0586 -0.3799 -0.3555
19460TIP3   OH279794   4.388   6.531  14.299  0.2386  0.2218  0.7351
19460TIP3    H179795   4.298   6.531  14.331  0.1497  0.5192  0.4951
19460TIP3    H279796   4.442   6.535  14.377  0.0147  1.9179  0.8257
19461TIP3   OH279797   4.987   1.982  15.218  0.4479  0.1651 -0.3289
19461TIP3    H179798   4.894   1.958  15.219  0.3388  0.5692  0.9122
19461TIP3    H279799   5.033   1.899  15.215  0.0461 -0.0607 -0.3693
19462TIP3   OH279800   5.605   3.882   0.155 -0.2739 -0.1472  0.3102
19462TIP3    H179801   5.654   3.948   0.206  0.6565  0.0520 -0.7846
19462TIP3    H279802   5.593   3.923   0.069  1.1016 -1.7022 -0.6900
19463TIP3   OH279803   6.599   5.307  13.151  0.4357 -0.2945  0.5030
19463TIP3    H179804   6.678   5.254  13.135  0.3784  0.4734 -3.4692
19463TIP3    H279805   6.616   5.389  13.105 -2.1113  0.4590  0.7695
19464TIP3   OH279806   0.399   0.577  11.893  0.3171  0.3857 -0.2819
19464TIP3    H179807   0.406   0.646  11.960 -2.0032 -1.3016  1.8683
19464TIP3    H279808   0.336   0.612  11.830 -1.2018  0.1111  1.0375
19465TIP3   OH279809   2.330   6.741   1.946  0.0724  0.5457 -0.0666
19465TIP3    H179810   2.344   6.650   1.919 -1.3500 -0.1836  1.4641
19465TIP3    H279811   2.412   6.766   1.989  1.6746  1.1192 -3.1842
19466TIP3   OH279812   0.227   0.382  13.502  1.2047  0.4640  0.0177
19466TIP3    H179813   0.222   0.336  13.586  0.6806  0.7568  0.1498
19466TIP3    H279814   0.218   0.475  13.525 -1.1005  0.4174 -0.5448
19467TIP3   OH279815   4.292   1.284  14.603 -0.1494  0.3204  0.0036
19467TIP3    H179816   4.246   1.346  14.659  1.0108  2.2935 -1.0854
19467TIP3    H279817   4.263   1.307  14.514  1.2204  0.1408 -0.5159
19468TIP3   OH279818   1.446   4.411  12.889 -0.1932  0.1685  0.4753
19468TIP3    H179819   1.381   4.479  12.870  0.3042 -0.5424 -5.8189
19468TIP3    H279820   1.529   4.458  12.896 -0.3639  0.4957  0.3273
19469TIP3   OH279821   4.749   5.652   6.249 -0.1079 -0.3183 -0.1252
19469TIP3    H179822   4.719   5.570   6.211  0.2867  0.7762 -3.0371
19469TIP3    H279823   4.798   5.626   6.327 -0.9687 -2.7177 -0.2990
19470TIP3   OH279824   2.045   2.266  11.317 -0.3073  0.2028 -0.0810
19470TIP3    H179825   2.088   2.202  11.260  3.4291  2.2966  0.0021
19470TIP3    H279826   2.082   2.249  11.403  0.4824  2.1243  0.0102
19471TIP3   OH279827   6.782   0.025  10.686  0.3306 -0.7748 -0.1502
19471TIP3    H179828   6.803  -0.065  10.713  0.1967 -1.2336 -1.4729
19471TIP3    H279829   6.858   0.077  10.713  1.3770 -1.6808 -1.2042
19472TIP3   OH279830   3.753   5.199   4.686 -0.1436  0.1835 -0.6414
19472TIP3    H179831   3.772   5.118   4.639 -0.4618  0.3579 -1.0829
19472TIP3    H279832   3.837   5.225   4.724  0.0418 -0.1462 -0.8183
19473TIP3   OH279833   2.331   6.583   5.810 -0.4803  0.0612 -0.6137
19473TIP3    H179834   2.371   6.590   5.723  1.0552 -1.4483 -0.0874
19473TIP3    H279835   2.355   6.495   5.840  2.3472  1.7558  2.8546
19474TIP3   OH279836   3.487   1.518   3.506 -0.5186 -0.6854  0.0069
19474TIP3    H179837   3.480   1.584   3.574 -0.8555 -1.8602  1.1385
19474TIP3    H279838   3.405   1.469   3.511  1.4501 -4.1554  2.3934
19475TIP3   OH279839   3.861   2.084   3.882  0.3422  0.4908  0.2185
19475TIP3    H179840   3.774   2.122   3.881 -0.4441 -1.1428 -1.9797
19475TIP3    H279841   3.871   2.048   3.971 -1.3502  0.4496  0.4178
19476TIP3   OH279842   0.252   3.676  10.370  0.3095  0.0783  0.8053
19476TIP3    H179843   0.200   3.753  10.394 -0.9750 -0.7679  0.8295
19476TIP3    H279844   0.187   3.612  10.339  1.1869 -1.4295  1.9121
19477TIP3   OH279845   3.285   3.021   1.811  0.6916 -0.0481 -0.0122
19477TIP3    H179846   3.280   3.088   1.880 -1.7734 -0.4597  0.2985
19477TIP3    H279847   3.283   3.071   1.730 -1.1650  0.3462  0.2170
19478TIP3   OH279848   6.468   6.224  16.615  0.0245  0.4681 -0.4986
19478TIP3    H179849   6.470   6.245  16.708 -1.0695  3.2137 -1.0058
19478TIP3    H279850   6.387   6.174  16.604  0.6991 -0.8161  0.1435
19479TIP3   OH279851   2.345   2.472   4.797 -0.0301 -0.2072 -0.3039
19479TIP3    H179852   2.250   2.484   4.796  0.2047  3.2478  1.8101
19479TIP3    H279853   2.378   2.538   4.736  1.0576 -0.9190 -0.5117
19480TIP3   OH279854   2.587   1.855   3.145 -0.1683 -0.1830  0.1818
19480TIP3    H179855   2.607   1.927   3.085  0.6687 -0.0555  0.6028
19480TIP3    H279856   2.645   1.869   3.220 -2.5033  0.7778  1.9425
19481TIP3   OH279857   2.442   5.388   2.762 -0.2439 -0.5796 -0.0850
19481TIP3    H179858   2.391   5.468   2.776  1.0453  0.2218  0.2169
19481TIP3    H279859   2.403   5.348   2.685 -1.0753  0.2099 -0.0939
19482TIP3   OH279860   1.832   5.493   3.475  0.3095 -0.3835  0.3924
19482TIP3    H179861   1.752   5.544   3.490  0.7344 -0.4056  3.2829
19482TIP3    H279862   1.891   5.554   3.430 -0.5094  0.4192  0.3673
19483TIP3   OH279863   4.182   6.745  16.599 -0.4290  0.0543 -0.1953
19483TIP3    H179864   4.153   6.833  16.576 -5.1366 -1.6730 -2.1013
19483TIP3    H279865   4.152   6.732  16.689 -1.3000 -0.1538 -0.5134
19484TIP3   OH279866   5.266   0.763   3.033 -0.7181 -0.0605  0.4336
19484TIP3    H179867   5.214   0.706   3.090 -0.1981  0.7890  1.8100
19484TIP3    H279868   5.351   0.719   3.027 -1.7103 -1.8647 -2.4641
19485TIP3   OH279869   2.303   6.179   3.538 -0.2175 -0.0826  0.2846
19485TIP3    H179870   2.325   6.262   3.581 -1.9303  0.1471  0.7744
19485TIP3    H279871   2.321   6.195   3.445 -1.4449  1.1911  0.2367
19486TIP3   OH279872   5.305   6.539  16.248  0.3967 -0.9340 -0.2791
19486TIP3    H179873   5.252   6.617  16.228 -0.5778 -1.6369 -0.5228
19486TIP3    H279874   5.272   6.509  16.332 -0.7249 -2.2816 -1.1587
19487TIP3   OH279875   5.881   1.636  14.975  0.1096 -0.3752  0.0303
19487TIP3    H179876   5.800   1.627  15.026  0.4735  0.3299  0.7542
19487TIP3    H279877   5.852   1.669  14.890 -0.5224 -1.6982 -0.3045
19488TIP3   OH279878   3.187   0.816   4.177  0.4976 -0.1186 -0.5112
19488TIP3    H179879   3.204   0.885   4.113 -0.2708  0.0137 -0.5745
19488TIP3    H279880   3.098   0.832   4.207  1.2023  0.4497  1.3715
19489TIP3   OH279881   6.356   6.578  15.837 -0.4133 -0.6793  0.6020
19489TIP3    H179882   6.384   6.669  15.835  1.4587 -1.2191 -0.6075
19489TIP3    H279883   6.429   6.531  15.876 -1.3956 -1.6672  1.3160
19490TIP3   OH279884   3.011   3.941  16.028  0.3943 -0.1157 -0.4655
19490TIP3    H179885   2.953   3.965  15.956  0.1146 -0.3425 -0.3182
19490TIP3    H279886   2.994   4.006  16.096 -0.4783 -0.8071 -0.0035
19491TIP3   OH279887   6.466   2.278  12.831  0.1850  0.1472 -0.0675
19491TIP3    H179888   6.470   2.190  12.869 -1.3410 -0.4113 -1.0724
19491TIP3    H279889   6.506   2.268  12.745  1.3443  0.8008  0.3872
19492TIP3   OH279890   1.357   2.856  12.534  0.0882  0.1673 -0.2720
19492TIP3    H179891   1.266   2.826  12.524  0.3797 -0.9622  0.3143
19492TIP3    H279892   1.409   2.776  12.531  0.9699  0.6912  0.5658
19493TIP3   OH279893   4.888   4.355   1.069 -0.4918 -0.0332 -0.1139
19493TIP3    H179894   4.925   4.297   1.001  0.6531  1.7003 -1.0435
19493TIP3    H279895   4.800   4.375   1.038 -0.6177 -0.6630 -0.1772
19494TIP3   OH279896   1.107   5.253  15.521  0.0028  0.1911  0.4617
19494TIP3    H179897   1.086   5.164  15.495 -0.2521 -0.2797  2.1142
19494TIP3    H279898   1.085   5.256  15.615 -0.1021  2.0123  0.4232
19495TIP3   OH279899   6.048   3.936   0.184 -0.0702 -0.4365  0.1625
19495TIP3    H179900   6.120   3.893   0.139 -1.1466 -0.3290 -1.7567
19495TIP3    H279901   6.089   4.006   0.235  1.1575 -0.2856 -1.0027
19496TIP3   OH279902   4.160   2.709  15.147  0.1410 -0.1451 -0.1421
19496TIP3    H179903   4.147   2.625  15.192  2.6029 -0.3376  0.3563
19496TIP3    H279904   4.204   2.686  15.065 -0.2393  0.5765 -0.5568
19497TIP3   OH279905   2.381   0.686  15.689 -0.0711 -0.3234 -0.2499
19497TIP3    H179906   2.376   0.596  15.657  1.8609 -0.8110  0.6322
19497TIP3    H279907   2.473   0.697  15.714 -0.4544  1.6131  0.4946
19498TIP3   OH279908   5.635   2.000  16.704 -0.0611  0.0798  0.5101
19498TIP3    H179909   5.577   1.971  16.633  0.4009  1.5994 -0.5532
19498TIP3    H279910   5.584   2.067  16.750  0.8701  1.5949 -0.5760
19499TIP3   OH279911   3.220   3.051  12.027  0.2473 -0.4014 -0.4742
19499TIP3    H179912   3.299   3.075  11.978  0.4520 -0.0306  0.0364
19499TIP3    H279913   3.252   3.000  12.102  0.0262 -0.0294 -0.1250
19500TIP3   OH279914   1.112   4.527   2.699 -0.0092  0.1282 -0.5897
19500TIP3    H179915   1.166   4.590   2.748 -0.8167  1.5127 -1.3964
19500TIP3    H279916   1.163   4.507   2.621 -0.1002  0.4519 -0.7361
19501TIP3   OH279917   3.023   5.771  13.067 -0.2619  0.5551 -0.1165
19501TIP3    H179918   3.076   5.850  13.058  1.3712 -0.6499 -2.0026
19501TIP3    H279919   3.057   5.712  12.999 -3.2007 -0.7822 -0.5688
19502TIP3   OH279920   6.524   1.304  16.095 -0.0014  0.2736 -0.1453
19502TIP3    H179921   6.515   1.304  16.000  0.2982  1.9800 -0.2011
19502TIP3    H279922   6.615   1.330  16.110 -0.6106  2.1107  0.6110
19503TIP3   OH279923   2.692   5.955   1.063 -0.2195  0.2497 -0.0741
19503TIP3    H179924   2.670   5.881   1.006 -0.2665 -0.5227  0.9091
19503TIP3    H279925   2.609   6.002   1.074  0.1569  1.4882 -2.0928
19504TIP3   OH279926   5.767   4.921  14.021 -0.3891  0.0446 -0.0083
19504TIP3    H179927   5.701   4.852  14.019  0.0412 -0.3715 -1.3446
19504TIP3    H279928   5.839   4.886  13.968  1.3208  0.0885  2.1651
19505TIP3   OH279929   4.764   3.948   4.637  0.2753 -0.1731  0.1052
19505TIP3    H179930   4.737   3.941   4.545 -1.1788 -1.9475  0.6136
19505TIP3    H279931   4.714   4.022   4.671  0.5463  0.2638 -0.4262
19506TIP3   OH279932   3.594   5.317  10.964  0.5651 -0.3489  0.0045
19506TIP3    H179933   3.507   5.332  10.928  0.3410 -0.9859  0.2656
19506TIP3    H279934   3.650   5.381  10.920 -0.0435  0.1022 -0.1185
19507TIP3   OH279935   4.669   3.396   5.379 -0.0684  0.1336  0.6897
19507TIP3    H179936   4.689   3.308   5.409  0.1800  0.2647  0.9216
19507TIP3    H279937   4.635   3.385   5.291 -0.4727 -0.2321  0.8918
19508TIP3   OH279938   1.239   2.069  13.260 -0.4359  0.3383 -0.0607
19508TIP3    H179939   1.177   2.077  13.333 -0.4380  1.5964 -0.1945
19508TIP3    H279940   1.203   2.124  13.191  0.1214 -0.0126 -0.6422
19509TIP3   OH279941   6.662   3.972  12.058 -0.3817  0.0166  0.3821
19509TIP3    H179942   6.620   3.985  11.973 -0.0075 -0.3920  0.1313
19509TIP3    H279943   6.679   3.878  12.062  1.2747  0.2576  0.0951
19510TIP3   OH279944   2.131   3.623   5.762 -0.3760  0.2985 -0.5906
19510TIP3    H179945   2.178   3.684   5.706 -1.0525  1.0326 -0.3736
19510TIP3    H279946   2.199   3.565   5.797  0.4429  1.6110  0.0733
19511TIP3   OH279947   1.396   3.859  14.060 -0.1488  0.4498  0.2967
19511TIP3    H179948   1.461   3.923  14.030  1.5234 -0.7565  1.1490
19511TIP3    H279949   1.394   3.792  13.992 -0.9210  0.7488  0.0179
19512TIP3   OH279950   2.190   3.814  12.184  0.0427 -0.1475  0.1138
19512TIP3    H179951   2.097   3.798  12.199 -0.3558  1.5792 -0.2889
19512TIP3    H279952   2.232   3.796  12.268 -0.2343 -3.4838 -0.3503
19513TIP3   OH279953   0.106   6.476   4.262  0.5607  0.3156 -0.2031
19513TIP3    H179954   0.082   6.567   4.244  0.2239  0.2075 -0.2971
19513TIP3    H279955   0.023   6.429   4.262  0.3805  0.4713  2.6771
19514TIP3   OH279956   4.812   1.484  13.140 -0.2536  0.2828 -0.3394
19514TIP3    H179957   4.733   1.432  13.126  1.1330 -2.8020  1.9742
19514TIP3    H279958   4.883   1.419  13.140  1.5277  1.8441  3.7805
19515TIP3   OH279959   3.384   1.041  16.240 -0.4166  0.1058  0.3387
19515TIP3    H179960   3.422   1.032  16.152 -0.0488 -0.8339  0.5828
19515TIP3    H279961   3.455   1.015  16.299 -0.5731  0.9895  0.9355
19516TIP3   OH279962   0.072   1.509   2.499 -0.1802 -0.4058  0.3634
19516TIP3    H179963   0.106   1.472   2.418 -0.2983  0.8796 -0.3090
19516TIP3    H279964   0.059   1.602   2.479 -1.3765 -0.3016  1.4797
19517TIP3   OH279965   5.488   5.514  17.035  0.6663  0.1801 -0.0594
19517TIP3    H179966   5.499   5.501  16.941 -1.6906 -0.5794 -0.2942
19517TIP3    H279967   5.524   5.434  17.074 -0.5841 -0.6533 -0.5345
19518TIP3   OH279968   3.851   5.478   1.240  0.1241  0.1165  0.4848
19518TIP3    H179969   3.881   5.427   1.315  1.6938  0.9147  0.4361
19518TIP3    H279970   3.832   5.565   1.276 -0.5887  0.0827  0.2119
19519TIP3   OH279971   4.652   0.898  12.865  0.3651 -0.1402  0.3943
19519TIP3    H179972   4.620   0.917  12.777  0.7970  1.1718  0.4997
19519TIP3    H279973   4.702   0.817  12.856  1.9162  0.9107 -0.9444
19520TIP3   OH279974   1.020   0.804  11.228  0.7906 -0.2089  0.0362
19520TIP3    H179975   1.080   0.741  11.267  2.5641  0.8663 -0.8214
19520TIP3    H279976   1.077   0.865  11.179 -0.9987  0.8428 -0.8552
19521TIP3   OH279977   1.293   1.845   5.346 -0.0013 -0.1177 -0.2753
19521TIP3    H179978   1.252   1.924   5.380  0.1920 -0.7407  1.5063
19521TIP3    H279979   1.231   1.775   5.366  1.5785 -0.9824  1.8995
19522TIP3   OH279980   0.002   3.734   1.229 -0.6280  0.1431  0.2335
19522TIP3    H179981   0.041   3.679   1.161  0.0233 -0.5343  1.1382
19522TIP3    H279982  -0.016   3.674   1.302 -0.9639  0.9241  0.8069
19523TIP3   OH279983   2.348   0.375  12.357  0.2405 -0.0914  0.6286
19523TIP3    H179984   2.403   0.441  12.313 -0.5453  0.7589  0.8985
19523TIP3    H279985   2.362   0.390  12.450  0.0689 -0.3266  0.6938
19524TIP3   OH279986   4.586   1.568  15.578 -0.5124 -0.1700  0.0109
19524TIP3    H179987   4.584   1.474  15.598 -0.6320 -0.0920  0.3793
19524TIP3    H279988   4.494   1.594  15.580 -0.6067 -0.3223 -1.4680
19525TIP3   OH279989   5.738   4.610  13.494  0.0684  0.6213  0.3606
19525TIP3    H179990   5.825   4.639  13.467  0.5899 -0.4068  0.8495
19525TIP3    H279991   5.678   4.670  13.451  0.8764 -0.3867 -2.3785
19526TIP3   OH279992   4.093   1.698   1.678  0.0150 -0.0681  0.1950
19526TIP3    H179993   4.097   1.776   1.732 -2.5387  1.7302 -1.8981
19526TIP3    H279994   4.000   1.674   1.677  0.2664 -1.2186 -1.7112
19527TIP3   OH279995   4.812   4.121  13.245 -0.5365  0.4780 -0.1158
19527TIP3    H179996   4.767   4.143  13.163 -1.0479  1.8220  0.4935
19527TIP3    H279997   4.872   4.050  13.221 -1.1605  0.3826 -1.5029
19528TIP3   OH279998   4.119   0.938   5.368 -0.1083  0.3851 -0.2886
19528TIP3    H179999   4.101   0.856   5.320 -3.0778  0.4973  0.4228
19528TIP3    H280000   4.119   1.005   5.300  0.7209 -0.0001 -0.6862
19529TIP3   OH280001   4.972   5.496  15.936  0.0908  0.7074  0.0747
19529TIP3    H180002   5.038   5.433  15.907  0.3788  0.5010  1.1327
19529TIP3    H280003   5.013   5.582  15.922 -0.0866  0.6427 -0.8546
19530TIP3   OH280004   5.019   4.081  16.498 -0.4694  0.3497 -0.3414
19530TIP3    H180005   4.925   4.089  16.481 -0.2409 -0.3646 -2.1860
19530TIP3    H280006   5.026   4.076  16.593 -2.4555 -1.3102 -0.2145
19531TIP3   OH280007   6.371   6.611   5.004 -0.9198 -0.0551 -0.6378
19531TIP3    H180008   6.420   6.538   5.042 -1.8102 -0.6350 -0.5714
19531TIP3    H280009   6.419   6.689   5.033 -0.6621 -0.5536  0.3392
19532TIP3   OH280010   6.223   2.447   3.924  0.6309 -0.2467  0.6508
19532TIP3    H180011   6.209   2.493   3.841  1.5201 -0.2042  0.5119
19532TIP3    H280012   6.151   2.384   3.929  1.5848 -1.6016 -1.1031
19533TIP3   OH280013   5.643   0.189   2.497 -0.4062  0.3445  0.2113
19533TIP3    H180014   5.554   0.219   2.477 -0.4728  0.1670  0.2447
19533TIP3    H280015   5.699   0.259   2.463 -0.3541 -1.1946 -3.2932
19534TIP3   OH280016   1.519   5.203  12.785 -0.5156  0.1341 -0.3259
19534TIP3    H180017   1.483   5.284  12.821 -1.9651 -0.7475  0.3066
19534TIP3    H280018   1.547   5.153  12.862 -0.0734 -0.1601 -0.6757
19535TIP3   OH280019   0.171   2.459  17.022 -0.2778  0.1945 -0.0795
19535TIP3    H180020   0.091   2.431  17.067 -0.1243  1.1975  0.8641
19535TIP3    H280021   0.235   2.391  17.043 -0.1881  0.6688  1.3287
19536TIP3   OH280022   2.125   0.287  14.465 -0.2125  0.0196 -0.5269
19536TIP3    H180023   2.150   0.284  14.373 -1.2952 -1.2865 -0.8174
19536TIP3    H280024   2.183   0.353  14.504 -0.2364  1.1370 -2.2780
19537TIP3   OH280025   4.969   5.072   0.983 -0.0952 -0.1225  0.4563
19537TIP3    H180026   5.024   5.027   0.919 -0.0104 -1.2924  1.3073
19537TIP3    H280027   4.890   5.018   0.990 -0.4060  0.3670  0.8189
19538TIP3   OH280028   1.655   3.966   4.167 -0.4027 -0.2752  0.0061
19538TIP3    H180029   1.691   4.009   4.245  0.3174 -2.8284  1.2171
19538TIP3    H280030   1.719   3.984   4.098 -0.6133  1.3156  0.1975
19539TIP3   OH280031   3.989   4.534   4.711  0.3624  0.2922 -0.1929
19539TIP3    H180032   3.912   4.588   4.691 -1.0122 -1.7233 -0.6959
19539TIP3    H280033   3.967   4.492   4.794  1.8198  1.2039  0.6758
19540TIP3   OH280034   2.583   0.118  15.537 -0.4101 -0.0230 -0.0947
19540TIP3    H180035   2.601   0.174  15.613  1.3912 -0.9755  0.2309
19540TIP3    H280036   2.548   0.178  15.472  1.8183  1.6464  0.0958
19541TIP3   OH280037   5.281   5.222  11.307  0.4913 -0.2569  0.2323
19541TIP3    H180038   5.279   5.131  11.338  1.6857  0.1116  1.4397
19541TIP3    H280039   5.371   5.236  11.280  0.2775  0.5477 -0.0746
19542TIP3   OH280040   6.622   5.877   3.022  0.0178 -0.0257 -0.1523
19542TIP3    H180041   6.562   5.827   3.077  2.0238  1.2549  3.5879
19542TIP3    H280042   6.565   5.929   2.966 -2.4128  0.4645  2.5344
19543TIP3   OH280043   0.109   1.050  16.602  0.0823  0.7693 -0.5691
19543TIP3    H180044   0.032   1.030  16.656  0.7558  1.3418  0.6430
19543TIP3    H280045   0.089   1.135  16.562  0.2085  1.0640 -0.0115
19544TIP3   OH280046   4.653   0.827   0.332 -0.1813  0.4638 -0.9335
19544TIP3    H180047   4.687   0.823   0.242  1.9876 -0.6715 -0.1159
19544TIP3    H280048   4.726   0.800   0.387 -1.8640 -0.1808  1.1052
19545TIP3   OH280049   4.988   6.496   2.557  0.5063  0.8830 -0.3595
19545TIP3    H180050   5.082   6.510   2.557  0.7019 -0.2357  1.3817
19545TIP3    H280051   4.951   6.582   2.535  1.8953  1.5883 -0.0343
19546TIP3   OH280052   2.717   5.411   2.317  0.0778 -0.5439  0.1390
19546TIP3    H180053   2.685   5.475   2.254  1.3362 -0.9472 -0.9416
19546TIP3    H280054   2.640   5.389   2.370 -0.7936  0.4569 -0.6800
19547TIP3   OH280055   3.680   2.522  11.032 -0.4897 -0.0397 -0.4059
19547TIP3    H180056   3.621   2.462  10.986 -1.8115  0.4291  0.6482
19547TIP3    H280057   3.765   2.508  10.989 -1.3161 -0.8014 -1.8818
19548TIP3   OH280058   1.024   3.475   1.205 -0.2636  0.3911 -0.2247
19548TIP3    H180059   1.037   3.424   1.285 -0.7924 -0.1644 -0.4827
19548TIP3    H280060   0.947   3.435   1.164  1.5270 -1.0937 -2.3794
19549TIP3   OH280061   4.031   2.764  15.679  1.1609  0.6659  0.0926
19549TIP3    H180062   3.969   2.737  15.747  0.1168  1.2462 -0.6023
19549TIP3    H280063   3.989   2.839  15.636  2.6689  1.5204  0.0502
19550TIP3   OH280064   0.785   2.131   5.107 -1.0490 -0.7363  0.1601
19550TIP3    H180065   0.848   2.067   5.139 -0.6163 -0.0063  0.8050
19550TIP3    H280066   0.743   2.165   5.186  0.4801  1.5450  0.0919
19551TIP3   OH280067   1.844   4.159  14.312 -0.0384 -0.0161  0.0747
19551TIP3    H180068   1.825   4.229  14.250  0.1708 -0.1376 -0.1297
19551TIP3    H280069   1.917   4.192  14.364 -0.2816  0.1283  0.3287
19552TIP3   OH280070   3.044   4.765  12.025 -0.0123  0.4500  0.5542
19552TIP3    H180071   3.126   4.765  12.074  0.8788  0.6243 -0.8918
19552TIP3    H280072   3.035   4.674  11.996  0.3810  0.7153 -0.4213
19553TIP3   OH280073   1.509   1.726  14.032  0.0428  0.0133 -0.1538
19553TIP3    H180074   1.421   1.699  14.058  1.0137 -0.5863  3.0175
19553TIP3    H280075   1.495   1.797  13.970 -2.6853 -0.0123  0.2944
19554TIP3   OH280076   2.949   3.271  11.788 -0.2038 -0.1630  0.2280
19554TIP3    H180077   2.884   3.341  11.782  0.0737  0.1541  0.7908
19554TIP3    H280078   2.989   3.283  11.875  0.0490 -0.8394  0.2115
19555TIP3   OH280079   3.057   2.938   1.647  0.4246 -0.1034  0.0729
19555TIP3    H180080   3.141   2.972   1.679  1.9388  0.1130 -3.6485
19555TIP3    H280081   2.993   3.005   1.673  2.0247  1.5501 -0.0458
19556TIP3   OH280082   2.210   6.506  16.942  0.2566  0.5649 -0.0194
19556TIP3    H180083   2.243   6.595  16.956 -0.2213  0.7199  0.1609
19556TIP3    H280084   2.286   6.450  16.955  0.3674  0.8823  0.7915
19557TIP3   OH280085   4.261   2.483   3.704 -0.4077  0.6712 -0.7577
19557TIP3    H180086   4.339   2.430   3.689 -0.7682  0.3103 -1.3704
19557TIP3    H280087   4.198   2.453   3.640 -0.7754  1.5421 -0.8251
19558TIP3   OH280088   0.196   2.068   5.067 -0.4090 -0.3414 -0.5021
19558TIP3    H180089   0.178   2.089   4.975 -1.3184  1.2448 -0.0031
19558TIP3    H280090   0.109   2.056   5.105 -0.1133  0.5054  0.4627
19559TIP3   OH280091   1.559   6.231  13.179  0.5495  0.0699  0.1038
19559TIP3    H180092   1.627   6.298  13.172  2.3562 -1.4212  2.1083
19559TIP3    H280093   1.567   6.198  13.268 -2.8363 -0.2355  0.4343
19560TIP3   OH280094   3.912   6.540   4.747 -0.0633  0.1606 -0.1058
19560TIP3    H180095   3.891   6.467   4.688  1.8172  0.7690 -1.6195
19560TIP3    H280096   3.930   6.498   4.831 -0.0473 -1.0224 -0.6788
19561TIP3   OH280097   2.918   6.594   5.926 -0.5206 -0.7876 -0.2079
19561TIP3    H180098   2.914   6.522   5.989  0.6342 -2.0482 -1.5002
19561TIP3    H280099   2.832   6.636   5.932 -0.6711 -1.2665  1.6934
19562TIP3   OH280100   6.031   0.422  16.534  0.0774 -0.0727 -0.5626
19562TIP3    H180101   5.979   0.342  16.527  0.7729 -0.5029 -1.0695
19562TIP3    H280102   6.043   0.450  16.443 -0.3372  0.7294 -0.3757
19563TIP3   OH280103   4.830   1.051   0.672  0.6823 -0.0800 -0.3361
19563TIP3    H180104   4.888   1.113   0.717  1.5539 -0.6775 -0.6139
19563TIP3    H280105   4.862   1.050   0.581 -0.2715  0.1776 -0.6914
19564TIP3   OH280106   5.598   3.558   0.768  0.3848 -0.4884 -0.1351
19564TIP3    H180107   5.641   3.581   0.686  0.2359 -0.8015 -0.3024
19564TIP3    H280108   5.665   3.571   0.835 -0.0417  1.6555 -0.0533
19565TIP3   OH280109   1.276   0.154  14.990 -0.1255  0.3126  0.1949
19565TIP3    H180110   1.249   0.240  15.021 -1.2629  0.1083 -0.1516
19565TIP3    H280111   1.346   0.127  15.049  0.0109  1.3351  0.5078
19566TIP3   OH280112   2.573   6.402   5.382  0.2668  0.1927  0.2796
19566TIP3    H180113   2.569   6.411   5.287 -0.9097 -0.6410  0.2305
19566TIP3    H280114   2.658   6.359   5.397 -0.1001 -0.8658 -0.5150
19567TIP3   OH280115   6.592   6.763  16.491  0.2606 -0.3932  0.3189
19567TIP3    H180116   6.659   6.773  16.424  0.4076 -2.3009  0.1289
19567TIP3    H280117   6.622   6.690  16.545 -0.9666 -0.3643  1.0996
19568TIP3   OH280118   5.934   2.495   1.945  0.6985  0.1634 -0.1536
19568TIP3    H180119   5.919   2.483   1.852 -0.5671  0.1403  0.0325
19568TIP3    H280120   5.891   2.420   1.986 -0.4585  1.1904  0.5606
19569TIP3   OH280121   5.275   3.594   5.880 -0.8261  0.4760  0.5925
19569TIP3    H180122   5.266   3.597   5.975  0.9721 -1.7446  0.9032
19569TIP3    H280123   5.311   3.679   5.856 -0.2485  0.6560  2.0402
19570TIP3   OH280124   5.471   0.375  16.365 -0.0400  0.3167 -0.4546
19570TIP3    H180125   5.475   0.296  16.310  0.2733  0.8778 -1.2724
19570TIP3    H280126   5.398   0.360  16.424 -0.9171  0.0119 -1.5675
19571TIP3   OH280127   5.722   0.964   3.905 -0.3653  0.0216  0.2312
19571TIP3    H180128   5.793   1.024   3.923 -0.7668  0.5596  0.0459
19571TIP3    H280129   5.643   1.018   3.909 -0.7404 -0.5112  0.1687
19572TIP3   OH280130   5.844   5.643  12.277 -0.2518  0.3209  0.0402
19572TIP3    H180131   5.784   5.608  12.211 -0.3037  1.3891 -0.5000
19572TIP3    H280132   5.899   5.705  12.230 -1.2560  2.2145  1.2272
19573TIP3   OH280133   1.928   5.829  15.833  0.2737  0.2460  0.4418
19573TIP3    H180134   1.846   5.780  15.829  2.1428 -3.1068 -0.7687
19573TIP3    H280135   1.978   5.788  15.904  1.1838  1.7635  0.7249
19574TIP3   OH280136   0.250   4.477   2.599 -0.6600 -0.5410 -0.6964
19574TIP3    H180137   0.174   4.532   2.619  0.1150  0.5052 -0.5570
19574TIP3    H280138   0.325   4.537   2.604  0.5695 -2.1137  2.1796
19575TIP3   OH280139   1.795   1.746  15.303  0.1944  0.8273  0.1460
19575TIP3    H180140   1.716   1.772  15.349 -0.2406 -1.5241  0.8448
19575TIP3    H280141   1.854   1.714  15.371  1.4877  1.7830 -0.4540
19576TIP3   OH280142   3.828   6.618   1.790  0.1787 -0.1446  0.3239
19576TIP3    H180143   3.895   6.660   1.844  0.0031 -0.3042  0.6667
19576TIP3    H280144   3.874   6.589   1.712  0.4446  0.0406  0.4131
19577TIP3   OH280145   2.853   6.380  16.029  0.5228 -0.0634 -0.5510
19577TIP3    H180146   2.910   6.398  16.104 -0.5130 -1.0909  0.5253
19577TIP3    H280147   2.897   6.421  15.955  2.1875 -0.0451  0.4040
19578TIP3   OH280148   2.045   3.650   5.481  0.0234  0.1706 -0.1487
19578TIP3    H180149   2.064   3.737   5.449 -0.0577 -0.1255 -1.0279
19578TIP3    H280150   2.100   3.640   5.559  0.1692  0.9299 -0.1497
19579TIP3   OH280151   3.757   5.069  12.090  0.7451 -0.2594  0.1171
19579TIP3    H180152   3.737   4.975  12.097  1.8968 -0.6164 -0.9288
19579TIP3    H280153   3.673   5.109  12.068  0.4057 -1.1799 -0.3529
19580TIP3   OH280154   1.829   4.410   2.409  0.4838 -0.5868  0.1037
19580TIP3    H180155   1.758   4.395   2.472  1.7637 -1.4354  1.3909
19580TIP3    H280156   1.856   4.322   2.381  0.2109 -0.2377 -1.3578
19581TIP3   OH280157   2.401   1.018   2.118  0.1304  0.2712 -0.2346
19581TIP3    H180158   2.317   0.985   2.087  0.4630 -0.5939 -0.2393
19581TIP3    H280159   2.381   1.103   2.155 -0.7869 -0.0212 -0.0393
19582TIP3   OH280160   3.423   0.225   5.993  0.2173  1.1449 -0.3537
19582TIP3    H180161   3.494   0.171   5.960  0.9895  1.9342 -0.0198
19582TIP3    H280162   3.459   0.269   6.070 -0.8787  0.9756  0.2805
19583TIP3   OH280163   3.415   4.182  11.996 -0.6791 -0.0862  0.0781
19583TIP3    H180164   3.403   4.277  11.989  0.2336  0.0852  0.5523
19583TIP3    H280165   3.501   4.173  12.038 -0.4049 -1.1323 -0.6935
19584TIP3   OH280166   3.945   4.014  11.122  0.3602 -0.5632  0.2111
19584TIP3    H180167   3.945   3.923  11.151 -0.3814 -0.3563  0.9118
19584TIP3    H280168   4.002   4.015  11.046  3.0279 -1.0263  2.0526
19585TIP3   OH280169   1.458   0.652  11.373 -0.6348 -0.4653  0.2849
19585TIP3    H180170   1.481   0.708  11.298  0.6451 -0.3651  0.7194
19585TIP3    H280171   1.539   0.647  11.423 -0.9603 -2.0675  0.6821
19586TIP3   OH280172   3.296   3.974  16.024  0.0984  0.0532  0.3303
19586TIP3    H180173   3.334   3.899  15.978 -0.8418 -0.3899  0.2584
19586TIP3    H280174   3.203   3.954  16.031  0.0722  0.4892  1.6949
19587TIP3   OH280175   3.751   3.912  12.670  0.3301  0.3893  0.8249
19587TIP3    H180176   3.686   3.857  12.626  0.7643  0.2696  0.3304
19587TIP3    H280177   3.719   4.001  12.656  0.3175  0.3366  0.4951
19588TIP3   OH280178   5.685   3.755  13.854  0.4143  0.6279 -0.1704
19588TIP3    H180179   5.780   3.756  13.864  0.3566 -0.4446  0.5383
19588TIP3    H280180   5.663   3.664  13.836 -0.4782  0.8842 -0.4521
19589TIP3   OH280181   3.589   3.408   4.314  0.1346 -0.1743 -0.2204
19589TIP3    H180182   3.537   3.379   4.239 -0.0520 -0.7962  0.1417
19589TIP3    H280183   3.547   3.367   4.389 -1.7599  3.0062  0.6790
19590TIP3   OH280184   3.221   5.141   4.446  0.5349 -0.5451 -0.2333
19590TIP3    H180185   3.307   5.147   4.404  1.0014  1.1974  0.8884
19590TIP3    H280186   3.238   5.156   4.539 -1.1217  1.3793 -0.1729
19591TIP3   OH280187   3.956   1.756   4.610 -0.0378  0.1025  0.3728
19591TIP3    H180188   3.867   1.776   4.579  0.1108  1.9859  1.0321
19591TIP3    H280189   4.009   1.750   4.530 -0.7572 -1.2951 -0.0459
19592TIP3   OH280190   0.129   0.770  12.396  0.8113  0.0589  0.5541
19592TIP3    H180191   0.039   0.776  12.427  0.6027 -2.4548  0.5738
19592TIP3    H280192   0.120   0.767  12.300  1.1807  3.2836  0.2971
19593TIP3   OH280193   4.863   5.752  14.281 -0.1455  0.2980  0.2466
19593TIP3    H180194   4.828   5.841  14.289 -2.4870 -0.5648  0.4245
19593TIP3    H280195   4.787   5.695  14.293  1.5489 -1.8190  1.9463
19594TIP3   OH280196   2.520   5.271  13.095 -0.1642  0.2818  0.4987
19594TIP3    H180197   2.458   5.338  13.064 -0.2886 -0.2228 -0.3653
19594TIP3    H280198   2.472   5.224  13.164 -0.2282  0.8014  0.8142
19595TIP3   OH280199   2.333   2.743  10.557  0.3324 -0.4200  0.2436
19595TIP3    H180200   2.280   2.663  10.560  0.6813 -0.8878 -2.6262
19595TIP3    H280201   2.366   2.746  10.467 -0.2708  3.3654  0.0059
19596TIP3   OH280202   2.798   3.070  11.281  0.2394  0.2292 -0.1567
19596TIP3    H180203   2.831   3.023  11.357  0.1996 -0.5278 -0.5977
19596TIP3    H280204   2.703   3.060  11.287  0.2360  0.1753 -0.3016
19597TIP3   OH280205   3.383   1.316  15.141 -0.0075 -0.3009 -0.7299
19597TIP3    H180206   3.409   1.265  15.219  0.2662 -1.1843 -1.3816
19597TIP3    H280207   3.367   1.404  15.175  0.8428 -0.4847  0.2103
19598TIP3   OH280208   1.254   6.047   5.296  0.2468 -0.3616  0.6496
19598TIP3    H180209   1.240   6.084   5.383  0.8811 -0.1879  0.6818
19598TIP3    H280210   1.338   6.002   5.303  1.1840  1.1620 -0.3712
19599TIP3   OH280211   1.712   3.560   5.980 -0.0335  0.1023 -0.0359
19599TIP3    H180212   1.713   3.599   6.067  0.6991 -0.6372  0.3025
19599TIP3    H280213   1.800   3.524   5.968 -1.2578 -3.5659  0.6934
19600TIP3   OH280214   6.769   6.429   3.249  0.2444  0.0350 -0.1741
19600TIP3    H180215   6.863   6.421   3.236  0.3093  0.1717  0.1853
19600TIP3    H280216   6.730   6.380   3.177  0.5682  1.2867 -1.2223
19601TIP3   OH280217   5.892   0.648   5.874 -0.1937 -0.4815 -0.0144
19601TIP3    H180218   5.886   0.744   5.873  0.1385 -0.4619 -0.3567
19601TIP3    H280219   5.920   0.627   5.963  2.0344 -0.1118 -0.5840
19602TIP3   OH280220   6.820   5.802  16.220 -0.1600  0.5235  0.1181
19602TIP3    H180221   6.767   5.830  16.294 -0.0545 -0.9425  0.7852
19602TIP3    H280222   6.872   5.729  16.255  1.5311  1.2274 -0.7903
19603TIP3   OH280223   5.964   1.288   3.319  0.2287  0.7569  0.1792
19603TIP3    H180224   5.907   1.226   3.274 -2.0847  2.1973  0.9369
19603TIP3    H280225   5.972   1.362   3.258  1.0361  0.7120  0.2180
19604TIP3   OH280226   6.154   6.769   5.049  0.0152  0.1278  0.0990
19604TIP3    H180227   6.184   6.827   4.980 -1.3921  1.8101  0.8378
19604TIP3    H280228   6.220   6.699   5.051  1.6143  1.5085 -1.0254
19605TIP3   OH280229   4.648   2.660   3.460 -0.6460 -0.0575  0.1303
19605TIP3    H180230   4.687   2.628   3.379  1.6263  0.6543  0.8843
19605TIP3    H280231   4.665   2.591   3.524  0.3856  0.7066  0.7159
19606TIP3   OH280232   3.600   2.027  16.820  0.2446  0.1945  0.3781
19606TIP3    H180233   3.602   2.055  16.729 -2.3366  0.5193  0.3517
19606TIP3    H280234   3.677   1.970  16.829  0.2475 -0.3203 -2.1459
19607TIP3   OH280235   4.406   1.886  10.916 -0.0370  0.2690 -0.2942
19607TIP3    H180236   4.319   1.847  10.919 -0.4959  1.2920  0.4172
19607TIP3    H280237   4.443   1.857  10.832 -1.8762  1.5101 -1.6100
19608TIP3   OH280238   6.716   6.244   1.266  0.1230 -0.1794  0.1538
19608TIP3    H180239   6.809   6.264   1.268 -0.0107  0.4282  1.0539
19608TIP3    H280240   6.709   6.164   1.214  1.2182 -0.6442  0.7062
19609TIP3   OH280241   6.369   4.299  15.900  0.0120 -0.0878  0.2408
19609TIP3    H180242   6.290   4.256  15.867 -0.0143  0.7987 -0.9273
19609TIP3    H280243   6.441   4.245  15.868 -0.0292  0.5882 -1.0950
19610TIP3   OH280244   0.913   0.977   0.818  0.2028  0.5368  0.2808
19610TIP3    H180245   0.887   1.060   0.859  0.3848  1.2858 -1.0640
19610TIP3    H280246   1.006   0.990   0.797  0.5175 -0.4219  0.9875
19611TIP3   OH280247   4.009   3.910   3.222 -0.2736  0.1451  0.0274
19611TIP3    H180248   4.010   3.945   3.311  0.2233 -0.5849  0.3175
19611TIP3    H280249   4.100   3.890   3.203 -0.4017  0.1178 -0.5755
19612TIP3   OH280250   5.807   4.679  12.747 -0.1143 -0.2411  0.2490
19612TIP3    H180251   5.853   4.692  12.664 -1.7508  0.2137 -0.6320
19612TIP3    H280252   5.859   4.727  12.811  0.1789  0.9798 -0.8718
19613TIP3   OH280253   2.261   5.383  16.279 -0.0482  0.1805  0.2185
19613TIP3    H180254   2.299   5.460  16.237 -1.3747  0.6896 -0.1014
19613TIP3    H280255   2.169   5.383  16.251 -0.4741 -0.6028  1.5149
19614TIP3   OH280256   3.706   2.759  16.445 -0.1124  0.2662  0.8696
19614TIP3    H180257   3.630   2.818  16.449 -1.3874 -1.2562  0.4032
19614TIP3    H280258   3.759   2.793  16.373 -2.6892 -1.1500 -1.9154
19615TIP3   OH280259   6.521   5.630  13.888 -0.1577  0.4343  0.5769
19615TIP3    H180260   6.542   5.629  13.982 -2.6207  2.0963  1.2633
19615TIP3    H280261   6.429   5.657  13.885  0.0099  0.9948 -2.3744
19616TIP3   OH280262   3.720   0.466   3.608  0.6732  0.2372  0.4817
19616TIP3    H180263   3.650   0.436   3.665  0.7779  1.7874  1.4828
19616TIP3    H280264   3.677   0.521   3.543  0.6783 -0.7329 -0.3551
19617TIP3   OH280265   5.939   0.099   6.096  0.2376  0.4090 -0.1203
19617TIP3    H180266   6.003   0.087   6.166  0.1897  1.4344  0.1144
19617TIP3    H280267   5.856   0.072   6.134  0.5267 -1.0059 -0.4514
19618TIP3   OH280268   2.172   2.033  12.138  0.2498  0.0687 -0.1076
19618TIP3    H180269   2.238   2.028  12.069 -1.0466 -0.8039 -1.3446
19618TIP3    H280270   2.116   2.107  12.112 -1.2403 -1.3082 -0.9655
19619TIP3   OH280271   2.303   0.875  15.393  0.0531 -0.2084 -0.1930
19619TIP3    H180272   2.366   0.806  15.371  0.1580  0.2803 -1.5192
19619TIP3    H280273   2.348   0.927  15.460  0.8857 -0.1239 -0.8015
19620TIP3   OH280274   0.553   2.967   2.707 -0.5930 -0.0689 -0.3928
19620TIP3    H180275   0.497   3.012   2.643 -1.8947  0.4276  1.0093
19620TIP3    H280276   0.494   2.948   2.780  0.7366 -1.0145  0.4765
19621TIP3   OH280277   2.061   2.295   0.549 -0.1549 -0.1947  0.1596
19621TIP3    H180278   2.025   2.293   0.460 -0.1857 -0.2915  0.1737
19621TIP3    H280279   2.138   2.239   0.545  1.8165  2.3798 -0.6374
19622TIP3   OH280280   2.141   2.781   5.195 -0.7545  0.0805  0.3983
19622TIP3    H180281   2.137   2.695   5.238 -1.1509 -0.4439 -0.6551
19622TIP3    H280282   2.188   2.837   5.258  0.3173 -1.1337  0.7184
19623TIP3   OH280283   1.514   0.451   5.343  0.1395  0.1023  0.2158
19623TIP3    H180284   1.503   0.509   5.419 -0.1683 -0.8119  0.8900
19623TIP3    H280285   1.575   0.497   5.286 -1.2349  1.7817  0.0241
19624TIP3   OH280286   6.094   5.446   3.471 -0.5023  0.1409 -0.1339
19624TIP3    H180287   6.160   5.382   3.445 -1.1278  0.3249 -2.4307
19624TIP3    H280288   6.100   5.515   3.405 -1.3238  1.3892  1.0362
19625TIP3   OH280289   4.566   2.918  15.858 -0.4830  0.0354  0.6295
19625TIP3    H180290   4.612   2.990  15.903  0.5673 -0.2007 -0.0179
19625TIP3    H280291   4.595   2.925  15.767 -1.9746  0.0271  0.1250
19626TIP3   OH280292   5.858   3.423  10.751 -0.3675  0.0181 -0.0626
19626TIP3    H180293   5.845   3.473  10.671  1.1200 -2.3322 -1.9243
19626TIP3    H280294   5.776   3.432  10.799 -1.0460  2.0744 -1.5001
19627TIP3   OH280295   5.779   3.613  11.213 -0.4910  0.2298 -0.0681
19627TIP3    H180296   5.693   3.602  11.255  0.9210 -0.2640  2.9957
19627TIP3    H280297   5.781   3.704  11.185 -2.4344 -0.0634 -1.3171
19628TIP3   OH280298   4.993   3.471  16.534  0.0060 -0.2005 -0.9016
19628TIP3    H180299   5.054   3.523  16.587 -1.5826  0.2415  0.5735
19628TIP3    H280300   5.035   3.386  16.526  1.0008  0.2074 -0.2538
19629TIP3   OH280301   5.203   2.727  16.492 -0.2876  0.2710 -0.2673
19629TIP3    H180302   5.114   2.733  16.528 -0.7251 -0.8360 -1.0985
19629TIP3    H280303   5.209   2.637  16.460  0.2922  1.0208 -2.3822
19630TIP3   OH280304   1.116   5.225  16.899  0.0970  0.0249  0.8230
19630TIP3    H180305   1.197   5.174  16.892  0.4841  0.8637 -1.1354
19630TIP3    H280306   1.047   5.159  16.900  0.7517 -0.6826  2.1486
19631TIP3   OH280307   5.404   1.725  12.171 -0.5932 -0.2646  0.3239
19631TIP3    H180308   5.349   1.693  12.100 -1.4606 -0.3413  1.0109
19631TIP3    H280309   5.347   1.784  12.220  0.1803  0.2610  0.6071
19632TIP3   OH280310   5.286   5.082  15.246 -0.5984 -0.4643  0.3009
19632TIP3    H180311   5.351   5.025  15.287  0.9566 -0.3191 -1.8030
19632TIP3    H280312   5.337   5.143  15.193 -2.4312 -0.4020 -1.5229
19633TIP3   OH280313   4.323   0.554  13.935  0.0465 -0.4818  0.4428
19633TIP3    H180314   4.400   0.589  13.891 -1.6743  3.1313 -0.0354
19633TIP3    H280315   4.262   0.533  13.863  0.0764 -2.1503  0.8602
19634TIP3   OH280316   5.210   2.971   0.169 -0.8722 -0.4678 -0.0773
19634TIP3    H180317   5.224   2.988   0.076  2.0278  0.5701  0.4499
19634TIP3    H280318   5.133   3.023   0.192 -2.4499 -1.7544 -2.0985
19635TIP3   OH280319   3.785   2.202   1.146 -0.0266 -0.4501 -0.1519
19635TIP3    H180320   3.829   2.224   1.228  0.0530 -0.5976 -0.1543
19635TIP3    H280321   3.856   2.200   1.081 -0.2375  0.7862 -0.4470
19636TIP3   OH280322   1.354   6.287  15.706  0.1946 -0.4087 -0.0403
19636TIP3    H180323   1.366   6.345  15.630  0.5547 -1.8081 -1.0885
19636TIP3    H280324   1.438   6.288  15.751  0.5849 -1.0423 -0.7398
19637TIP3   OH280325   1.590   1.642  13.440 -0.3357 -0.5242  0.0573
19637TIP3    H180326   1.553   1.691  13.513 -0.6904 -0.0995 -0.4037
19637TIP3    H280327   1.627   1.709  13.382 -1.1061 -0.7726 -0.7341
19638TIP3   OH280328   0.360   6.590   1.025 -0.6779 -0.5140 -0.3640
19638TIP3    H180329   0.432   6.643   0.991 -1.3893 -0.2711 -1.5468
19638TIP3    H280330   0.287   6.651   1.032 -0.7937 -0.7569  0.8392
19639TIP3   OH280331   2.991   3.656   1.555 -0.2283 -0.5445 -0.3296
19639TIP3    H180332   3.039   3.584   1.598  0.7783  1.3217  1.8762
19639TIP3    H280333   2.901   3.624   1.549  0.3915 -2.4147 -0.4837
19640TIP3   OH280334   6.284   0.969  13.708 -0.4202  0.4341  0.7496
19640TIP3    H180335   6.371   0.981  13.746  0.0945 -0.4932 -0.0927
19640TIP3    H280336   6.224   0.996  13.777  0.5329  1.6530  1.1465
19641TIP3   OH280337   4.803   5.809   3.599  0.7840 -0.4419 -0.3962
19641TIP3    H180338   4.734   5.827   3.663 -1.0864  0.5711 -2.5989
19641TIP3    H280339   4.845   5.894   3.584  0.7713 -0.5388 -1.0045
19642TIP3   OH280340   6.464   2.508  11.190 -0.6192  0.4433  0.0926
19642TIP3    H180341   6.508   2.464  11.117  0.5611 -1.5374  1.8669
19642TIP3    H280342   6.406   2.441  11.226 -0.0912  0.8735  1.8312
19643TIP3   OH280343   3.172   4.385   0.215  0.1792  0.1094 -0.7183
19643TIP3    H180344   3.187   4.292   0.231  0.8623  0.4395  0.7560
19643TIP3    H280345   3.212   4.401   0.129  1.5505 -0.6234 -0.2437
19644TIP3   OH280346   0.891   0.747  14.094  0.0435 -0.2826  0.3231
19644TIP3    H180347   0.985   0.742  14.107  0.1742 -0.3596 -0.6387
19644TIP3    H280348   0.865   0.659  14.068 -0.4106 -0.4439  1.2757
19645TIP3   OH280349   4.562   6.541  13.159 -0.0512 -0.1431  0.0817
19645TIP3    H180350   4.610   6.484  13.220  0.0202  0.1358  0.2903
19645TIP3    H280351   4.630   6.577  13.102  0.3299  1.9494  1.7294
19646TIP3   OH280352   6.561   5.064  12.865  0.1331 -0.1230  0.0024
19646TIP3    H180353   6.546   5.061  12.960 -0.1674  1.1226  0.0118
19646TIP3    H280354   6.542   5.155  12.841  1.9818  0.0579 -0.9486
19647TIP3   OH280355   1.137   0.806   1.036 -0.1135  0.1283 -0.2692
19647TIP3    H180356   1.101   0.798   1.124 -0.0698 -0.3040 -0.2881
19647TIP3    H280357   1.061   0.815   0.979 -0.2239 -0.9623 -0.3293
19648TIP3   OH280358   0.419   0.298  14.993 -0.3233 -0.0114 -0.3132
19648TIP3    H180359   0.352   0.329  15.054 -0.1459 -0.1833 -0.0325
19648TIP3    H280360   0.500   0.337  15.024 -0.2817  0.1575 -0.6274
19649TIP3   OH280361   2.344   1.995   6.320  0.1847 -0.0645  0.2329
19649TIP3    H180362   2.297   1.914   6.339  1.2024 -0.1548  2.9127
19649TIP3    H280363   2.278   2.064   6.332 -0.4332 -0.4152 -1.0290
19650TIP3   OH280364   2.548   5.955   1.446 -0.4245 -0.2925 -0.2163
19650TIP3    H180365   2.587   5.907   1.519 -0.3124 -0.3331 -0.3011
19650TIP3    H280366   2.486   5.894   1.408 -0.5284 -0.2484 -0.1161
19651TIP3   OH280367   0.063   6.267   5.440 -0.0228 -0.1608 -0.0464
19651TIP3    H180368   0.066   6.362   5.456  0.1893 -0.1767  0.0100
19651TIP3    H280369   0.153   6.238   5.451 -0.3967 -0.6949  1.9784
19652TIP3   OH280370   3.614   1.729  11.329 -0.0008  0.8029 -0.8839
19652TIP3    H180371   3.574   1.785  11.395  0.8802  1.4522 -0.8819
19652TIP3    H280372   3.543   1.671  11.300 -0.4401  0.6149  0.4970
19653TIP3   OH280373   4.695   6.317  11.590  0.2056  0.2426  0.2190
19653TIP3    H180374   4.662   6.405  11.609 -1.4210 -0.0351 -1.0513
19653TIP3    H280375   4.620   6.271  11.554  1.1426 -1.5624  0.4750
19654TIP3   OH280376   0.705   1.637  11.261 -0.1841 -0.0129  0.2507
19654TIP3    H180377   0.742   1.644  11.173 -3.0415  0.1256 -1.0637
19654TIP3    H280378   0.742   1.557  11.297 -0.0489 -0.8726 -1.6782
19655TIP3   OH280379   0.166   2.771   0.810  0.3423  0.0087  0.2623
19655TIP3    H180380   0.087   2.811   0.848  0.2845  0.9474 -0.7806
19655TIP3    H280381   0.159   2.791   0.717  3.0933  2.4430  0.4388
19656TIP3   OH280382   3.467   1.584  16.249 -0.2932 -0.0525 -0.0697
19656TIP3    H180383   3.560   1.603  16.256  0.2894 -2.7827  0.4476
19656TIP3    H280384   3.460   1.525  16.174 -1.4643 -0.6844  0.5102
19657TIP3   OH280385   3.554   3.680   2.706 -0.6773  0.8171  0.7171
19657TIP3    H180386   3.535   3.769   2.737 -0.1678  1.5554 -1.0149
19657TIP3    H280387   3.647   3.667   2.728 -1.0153  0.2839  1.9140
19658TIP3   OH280388   5.640   6.382  14.518 -0.0354  0.5879  0.1750
19658TIP3    H180389   5.683   6.412  14.438  1.3730 -2.0217 -0.1638
19658TIP3    H280390   5.596   6.301  14.493 -2.0842  1.2561  1.4153
19659TIP3   OH280391   0.819   5.170   0.367 -0.0639  0.0506 -0.2805
19659TIP3    H180392   0.905   5.133   0.350  0.0073 -0.3604  0.8760
19659TIP3    H280393   0.776   5.172   0.282  0.1889 -2.0396 -0.5080
19660TIP3   OH280394   0.779   2.627   0.003 -0.4483 -0.6469  0.1127
19660TIP3    H180395   0.760   2.668   0.087 -1.1683 -0.7369  0.0036
19660TIP3    H280396   0.852   2.677  -0.033 -1.3401  0.5804 -0.0369
19661TIP3   OH280397   5.414   1.008  15.073 -0.4701 -0.3795 -0.0341
19661TIP3    H180398   5.363   0.945  15.123  0.8912 -2.1460 -0.7574
19661TIP3    H280399   5.390   0.992  14.982 -1.5364  1.5283 -0.1447
19662TIP3   OH280400   3.643   6.234   1.556 -0.7292  0.3765  0.0792
19662TIP3    H180401   3.719   6.289   1.575 -0.1685 -0.1171 -0.7128
19662TIP3    H280402   3.615   6.261   1.469 -1.0985  0.1423  0.1242
19663TIP3   OH280403   4.597   6.786   2.610 -0.1985  0.0637 -0.5940
19663TIP3    H180404   4.525   6.783   2.547  0.4984  0.6887 -1.4393
19663TIP3    H280405   4.579   6.863   2.664 -1.0533 -0.7450  0.3113
19664TIP3   OH280406   4.800   2.107  15.908 -0.1221 -0.3011 -0.0730
19664TIP3    H180407   4.843   2.191  15.892  2.0787 -1.4337 -0.4263
19664TIP3    H280408   4.721   2.110  15.855  1.0557  0.6829 -1.8615
19665TIP3   OH280409   1.180   2.967  13.918 -0.1613 -0.7901 -0.4833
19665TIP3    H180410   1.085   2.967  13.933  0.0209  0.5521  0.9417
19665TIP3    H280411   1.198   3.055  13.885  0.6893 -0.7462  0.0711
19666TIP3   OH280412   5.115   5.464  11.251 -1.0105 -0.1613  0.0394
19666TIP3    H180413   5.171   5.395  11.285  0.8914  1.0736 -0.4420
19666TIP3    H280414   5.148   5.544  11.292 -3.1785  0.5055  0.6278
19667TIP3   OH280415   0.885   3.022   3.299  0.4389  0.2948 -0.3383
19667TIP3    H180416   0.980   3.015   3.292  0.4731  0.8338 -0.4805
19667TIP3    H280417   0.851   2.957   3.238  0.7209  0.1675 -0.3592
19668TIP3   OH280418   1.095   3.833  16.104  0.1149  0.8283  0.6054
19668TIP3    H180419   1.136   3.848  16.019  1.8527  2.3364  1.6270
19668TIP3    H280420   1.004   3.811  16.084  0.9925 -1.1919 -1.7229
19669TIP3   OH280421   2.802   1.280   1.669 -0.5854  0.2719 -0.0210
19669TIP3    H180422   2.724   1.334   1.671 -1.9341 -1.4553 -1.7921
19669TIP3    H280423   2.815   1.254   1.761 -0.4326  2.7347  0.7147
19670TIP3   OH280424   4.403   5.255   0.699  0.5581  0.2525 -0.4803
19670TIP3    H180425   4.408   5.161   0.714 -0.0709  0.1619 -0.8213
19670TIP3    H280426   4.321   5.282   0.742  0.6474  0.6145 -0.5357
19671TIP3   OH280427   6.577   4.920  11.811 -0.0626  0.5025 -0.2070
19671TIP3    H180428   6.531   4.909  11.728 -1.0001  1.6192  0.1315
19671TIP3    H280429   6.662   4.958  11.787  0.8816 -1.8685 -0.8652
19672TIP3   OH280430   5.718   5.019  11.884  0.0179  0.5500  0.2007
19672TIP3    H180431   5.749   5.109  11.888 -0.2802  0.9719 -3.4389
19672TIP3    H280432   5.777   4.976  11.823 -2.2161 -0.5497 -1.3276
19673TIP3   OH280433   6.338   3.367   4.612  0.7315  0.3560 -0.2878
19673TIP3    H180434   6.354   3.331   4.699  2.9195 -2.0806 -1.5514
19673TIP3    H280435   6.281   3.303   4.570  3.3061 -0.9328 -2.0286
19674TIP3   OH280436   3.752   3.409   4.994 -0.0325 -0.8713 -0.9338
19674TIP3    H180437   3.785   3.361   4.918  1.6200 -1.6186  0.2078
19674TIP3    H280438   3.777   3.355   5.069  0.7660  1.1461  0.3205
19675TIP3   OH280439   4.362   1.826   4.523  0.3592  0.1102 -0.4775
19675TIP3    H180440   4.281   1.800   4.480  0.7892 -0.6518 -0.8664
19675TIP3    H280441   4.385   1.910   4.482 -1.7711  1.9167  1.7729
19676TIP3   OH280442   1.114   5.671  15.656  0.4352 -0.2509  0.2856
19676TIP3    H180443   1.070   5.630  15.583 -0.1243 -3.3348  2.1785
19676TIP3    H280444   1.207   5.648  15.645  0.4995  0.1014  0.0708
19677TIP3   OH280445   3.587   3.920  13.297  0.1647  0.6392 -0.3041
19677TIP3    H180446   3.620   3.990  13.355 -1.5019  0.8784  0.4192
19677TIP3    H280447   3.521   3.964  13.243 -0.9518 -0.3654  0.2062
19678TIP3   OH280448   2.246   4.833  14.775 -0.4049 -0.1185 -0.3483
19678TIP3    H180449   2.175   4.803  14.831  2.0144 -4.3156  0.8946
19678TIP3    H280450   2.232   4.790  14.691 -0.1044  0.2479 -0.5963
19679TIP3   OH280451   4.390   3.912  16.695 -0.4418  0.3305 -0.4568
19679TIP3    H180452   4.397   4.001  16.660  0.6630  0.5936  0.3711
19679TIP3    H280453   4.480   3.886  16.713 -0.8045 -0.7103 -0.0800
19680TIP3   OH280454   4.789   5.329  16.937 -0.2133 -0.0868  0.0561
19680TIP3    H180455   4.850   5.382  16.988 -0.4608 -0.6091  0.9050
19680TIP3    H280456   4.771   5.252  16.991 -0.7133 -0.5119 -0.6860
19681TIP3   OH280457   0.314   3.459   6.105  0.0970 -0.3353 -0.1079
19681TIP3    H180458   0.305   3.490   6.196  1.8837  0.5945 -0.1915
19681TIP3    H280459   0.322   3.540   6.054  1.0132 -0.8738 -0.8412
19682TIP3   OH280460   2.986   0.458   2.065  0.0167  0.2239 -0.6263
19682TIP3    H180461   2.972   0.502   2.149 -1.7477  0.3504 -0.9621
19682TIP3    H280462   3.075   0.484   2.039  0.6705  0.0277  1.2652
19683TIP3   OH280463   2.730   0.271  16.611 -0.0593 -0.6055 -0.1481
19683TIP3    H180464   2.677   0.192  16.601  0.0752 -0.5655 -1.2853
19683TIP3    H280465   2.799   0.246  16.672 -0.8220 -0.9443  0.5900
19684TIP3   OH280466   5.734   0.721  14.029 -0.1580 -0.2242  0.1473
19684TIP3    H180467   5.667   0.719  13.961  1.2166 -0.3921 -1.2454
19684TIP3    H280468   5.778   0.636  14.022  2.0352  0.9005 -0.9223
19685TIP3   OH280469   3.976   4.926   6.238  0.3052  0.1290  0.4955
19685TIP3    H180470   3.965   5.008   6.286 -0.0304 -0.3351  1.2326
19685TIP3    H280471   3.967   4.858   6.304 -1.1447 -0.5690 -0.3698
19686TIP3   OH280472   2.805   3.969   5.231  0.3136 -0.2459  0.2849
19686TIP3    H180473   2.720   3.999   5.262 -1.0470 -1.8818 -1.5487
19686TIP3    H280474   2.838   4.040   5.176 -2.2231 -1.2450 -2.9070
19687TIP3   OH280475   3.963   1.759  11.624  0.0542  0.0828  0.0009
19687TIP3    H180476   4.021   1.731  11.553 -0.7686 -0.9263 -0.3085
19687TIP3    H280477   3.889   1.800  11.579 -0.9259 -1.4102  0.1852
19688TIP3   OH280478   4.737   6.337  13.848 -0.5842 -0.1053  0.3337
19688TIP3    H180479   4.809   6.395  13.872  2.2490 -2.0406 -2.6657
19688TIP3    H280480   4.676   6.393  13.801  0.6373  0.9848 -0.0082
19689TIP3   OH280481   5.250   3.859  16.393 -0.6809  0.2825 -0.4932
19689TIP3    H180482   5.320   3.917  16.363 -1.5253  2.3449  1.2347
19689TIP3    H280483   5.169   3.902  16.367 -1.3790 -1.4761 -1.4262
19690TIP3   OH280484   6.074   3.176   0.544  0.4205 -0.0121 -0.5657
19690TIP3    H180485   6.039   3.177   0.455  2.9765 -2.4803 -1.7564
19690TIP3    H280486   6.003   3.140   0.597 -1.2631  1.7718 -1.4815
19691TIP3   OH280487   2.801   1.200   1.948  0.2862 -0.0171  0.1708
19691TIP3    H180488   2.726   1.143   1.932  0.0350  0.1490  0.7341
19691TIP3    H280489   2.808   1.204   2.043  0.5239  0.6146  0.1309
19692TIP3   OH280490   0.909   0.986  14.528 -0.0215 -0.3287  0.2471
19692TIP3    H180491   0.929   0.908  14.580  0.2078  0.4885  1.4304
19692TIP3    H280492   0.890   1.053  14.593 -2.1850  0.1101 -0.7639
19693TIP3   OH280493   2.198   4.284   4.963  0.1252 -0.1535 -0.5052
19693TIP3    H180494   2.224   4.199   4.997  2.0216  0.0915 -1.1924
19693TIP3    H280495   2.129   4.266   4.900  0.4532 -1.1766 -0.5764
19694TIP3   OH280496   3.769   4.212   1.772 -0.0809  0.2518 -0.4527
19694TIP3    H180497   3.797   4.121   1.785  0.8306  0.6638  0.6258
19694TIP3    H280498   3.676   4.212   1.797 -0.1541 -0.4187 -0.6977
19695TIP3   OH280499   3.601   0.804  16.865  0.4557 -0.1832  0.1487
19695TIP3    H180500   3.525   0.751  16.891  0.4895 -0.4589 -0.2980
19695TIP3    H280501   3.566   0.892  16.854  0.5530  0.0893  1.6955
19696TIP3   OH280502   0.817   3.687  12.705 -0.4026  0.0826  0.0294
19696TIP3    H180503   0.829   3.663  12.613 -0.7490  2.0362 -0.5613
19696TIP3    H280504   0.841   3.608  12.753 -0.1353 -0.9598 -1.7255
19697TIP3   OH280505   4.366   4.314   3.893  0.7632  0.2654 -0.0266
19697TIP3    H180506   4.410   4.232   3.916  0.6164 -0.2126 -1.3609
19697TIP3    H280507   4.428   4.360   3.838  0.7798  0.9902  0.5871
19698TIP3   OH280508   3.908   2.395  13.205  0.1576  0.0619  0.5210
19698TIP3    H180509   3.988   2.446  13.208  0.6897 -0.6272 -0.8132
19698TIP3    H280510   3.893   2.367  13.295  0.0924  2.1388  1.2071
19699TIP3   OH280511   2.695   4.564   2.538  0.5798  0.3944  0.2733
19699TIP3    H180512   2.678   4.570   2.444 -0.9004  0.8917  0.5449
19699TIP3    H280513   2.775   4.614   2.552  1.2481 -0.3449 -0.8218
19700TIP3   OH280514   6.686   3.629  14.592  0.2098  0.3478  0.7129
19700TIP3    H180515   6.690   3.711  14.642  0.9167 -0.7277  2.5326
19700TIP3    H280516   6.770   3.626  14.545 -0.7931  1.7572 -1.2834
19701TIP3   OH280517   3.192   4.384   3.882  0.5491  0.2497 -0.7502
19701TIP3    H180518   3.141   4.403   3.803  0.0121 -2.1186 -1.0310
19701TIP3    H280519   3.137   4.325   3.933  1.9326 -0.2992  0.1820
19702TIP3   OH280520   4.702   5.012  16.863  0.3929 -0.2772 -0.2376
19702TIP3    H180521   4.647   4.940  16.830 -0.6752 -0.0372  0.9502
19702TIP3    H280522   4.646   5.089  16.857  0.4519 -0.0827  1.3159
19703TIP3   OH280523   6.805   1.381  10.722  0.5502 -0.2310 -0.3004
19703TIP3    H180524   6.842   1.462  10.687 -1.1093  0.3843 -0.7123
19703TIP3    H280525   6.881   1.329  10.748  1.7094  0.6982 -1.7019
19704TIP3   OH280526   5.156   3.739  14.550  0.0205  0.2951  0.5182
19704TIP3    H180527   5.149   3.721  14.644  0.4280 -0.3272  0.4408
19704TIP3    H280528   5.111   3.823  14.538 -0.7066  0.0054  1.1383
19705TIP3   OH280529   6.518   2.724  14.140  0.1072  0.0859  0.4915
19705TIP3    H180530   6.539   2.651  14.198  1.3998  0.4444  0.5107
19705TIP3    H280531   6.517   2.800  14.198  0.5135  0.3182  0.2007
19706TIP3   OH280532   0.837   5.829  16.903 -0.1911  0.1942  0.0548
19706TIP3    H180533   0.797   5.904  16.946 -0.4339  0.8877 -1.3500
19706TIP3    H280534   0.925   5.858  16.879  0.2209 -0.4432  0.7171
19707TIP3   OH280535   2.262   1.643   1.703  0.8130 -0.0006 -0.2189
19707TIP3    H180536   2.242   1.571   1.643  1.2808  0.9755 -1.6055
19707TIP3    H280537   2.178   1.665   1.743 -0.0009  0.8317 -2.2730
19708TIP3   OH280538   4.119   3.872   6.685 -0.0533 -0.4317 -0.0041
19708TIP3    H180539   4.121   3.782   6.651 -0.1600 -0.5092  0.1922
19708TIP3    H280540   4.061   3.919   6.625 -0.2787 -0.5793  0.0956
19709TIP3   OH280541   0.785   2.855   3.640  0.4265  0.0532  0.3444
19709TIP3    H180542   0.719   2.857   3.571 -0.2427  0.1805  0.9753
19709TIP3    H280543   0.824   2.768   3.635 -0.3320 -0.2982  0.4575
19710TIP3   OH280544   3.758   6.699   5.831  0.5544  0.0766 -0.0709
19710TIP3    H180545   3.738   6.681   5.923 -0.7466 -3.8640 -0.9238
19710TIP3    H280546   3.700   6.772   5.808 -1.4866 -0.9338  1.5077
19711TIP3   OH280547   4.356   4.346  13.779 -0.1561  0.2180  0.3814
19711TIP3    H180548   4.344   4.256  13.809 -2.8919  0.9154  1.7280
19711TIP3    H280549   4.365   4.397  13.860  1.0713  1.2198 -0.3512
19712TIP3   OH280550   5.362   4.551   0.280  0.2860  0.4401  0.0013
19712TIP3    H180551   5.389   4.488   0.348  2.1271 -1.2819 -2.1820
19712TIP3    H280552   5.433   4.614   0.277 -0.6467  1.5791  0.8339
19713TIP3   OH280553   5.589   5.195  14.405  0.2021 -0.0998  0.2222
19713TIP3    H180554   5.541   5.214  14.325 -1.1552  0.3642  1.1062
19713TIP3    H280555   5.526   5.214  14.475  1.4256 -0.2707  1.3974
19714TIP3   OH280556   5.098   6.772  16.057 -0.2164  0.5178  0.1262
19714TIP3    H180557   5.184   6.810  16.038  0.7405 -0.4764  2.1790
19714TIP3    H280558   5.053   6.772  15.972  1.8858  0.8441 -1.0714
19715TIP3   OH280559   5.003   5.173   2.904  0.1654 -0.0924  0.4027
19715TIP3    H180560   5.054   5.182   2.824 -0.7042  0.6105 -0.0930
19715TIP3    H280561   4.962   5.259   2.916 -0.3449 -0.4325  1.1591
19716TIP3   OH280562   4.620   2.362   1.831  0.1223 -0.0234  0.1108
19716TIP3    H180563   4.536   2.323   1.807 -0.1465  0.5108  0.1713
19716TIP3    H280564   4.677   2.344   1.756  0.1236 -0.8815  0.3053
19717TIP3   OH280565   1.029   2.398   3.499 -0.4369 -0.0454  0.0016
19717TIP3    H180566   1.034   2.365   3.589 -0.6156  1.0050  0.4172
19717TIP3    H280567   0.991   2.326   3.449 -1.3008 -0.2950  0.9639
19718TIP3   OH280568   5.870   2.035   1.324 -0.4062 -0.3770  0.0820
19718TIP3    H180569   5.791   2.006   1.371 -0.7868 -1.9869 -1.4568
19718TIP3    H280570   5.867   1.988   1.241  2.1658 -0.4473 -0.0498
19719TIP3   OH280571   1.561   1.739   1.792  0.0051  0.0453 -0.3402
19719TIP3    H180572   1.609   1.664   1.757  0.1527  0.0515 -0.1530
19719TIP3    H280573   1.483   1.700   1.832  0.4882 -0.0963  0.4880
19720TIP3   OH280574   4.405   4.757  12.629 -0.0798  0.1065 -0.1728
19720TIP3    H180575   4.361   4.714  12.556 -2.6775  1.3264  0.5425
19720TIP3    H280576   4.447   4.834  12.591  0.0684 -0.1925 -0.6231
19721TIP3   OH280577   2.220   5.133   4.156 -0.1479  0.0342  0.3772
19721TIP3    H180578   2.277   5.197   4.197 -0.4710 -0.2749  1.3338
19721TIP3    H280579   2.219   5.059   4.217 -1.3994 -0.0516  0.2776
19722TIP3   OH280580   4.318   6.607  10.901  0.1388 -0.5578 -0.1692
19722TIP3    H180581   4.404   6.640  10.876 -0.3388  2.0807  1.2916
19722TIP3    H280582   4.301   6.535  10.840  2.4935  0.1602 -1.8092
19723TIP3   OH280583   5.299   2.631   0.018  0.3313 -0.1139 -0.1745
19723TIP3    H180584   5.324   2.548   0.058 -1.1025  0.1955  1.5067
19723TIP3    H280585   5.321   2.697   0.084 -0.0322  0.6597 -0.8085
19724TIP3   OH280586   4.969   6.748   2.251 -0.2222 -0.1556 -0.6361
19724TIP3    H180587   5.058   6.736   2.285 -0.3616  0.1259 -0.1585
19724TIP3    H280588   4.977   6.734   2.157  0.8919  2.7284 -1.0501
19725TIP3   OH280589   2.943   0.928   0.446 -0.1711 -0.4389  0.1046
19725TIP3    H180590   2.932   0.926   0.541 -0.2654 -0.3794  0.0958
19725TIP3    H280591   2.871   0.874   0.413 -0.6625  0.2418  0.0282
19726TIP3   OH280592   2.424   2.390   3.880 -0.3874  0.2286 -0.3456
19726TIP3    H180593   2.449   2.323   3.816  1.3793  0.5611 -0.0504
19726TIP3    H280594   2.467   2.470   3.849 -0.2787  0.6076  0.7435
19727TIP3   OH280595   4.673   2.158  10.683  0.4305  0.0660  0.3844
19727TIP3    H180596   4.609   2.217  10.725 -1.4864 -0.7002 -1.3031
19727TIP3    H280597   4.746   2.215  10.660 -1.2395  1.8159 -0.9244
19728TIP3   OH280598   4.309   6.241  16.462 -0.7049  0.4704 -0.3573
19728TIP3    H180599   4.239   6.229  16.526 -1.4324 -1.1382 -1.3866
19728TIP3    H280600   4.286   6.321  16.416  0.8432  2.7939  2.5431
19729TIP3   OH280601   1.650   3.542   4.687  0.3482  0.0094 -0.4275
19729TIP3    H180602   1.708   3.616   4.673 -1.9299  2.1964  0.8736
19729TIP3    H280603   1.657   3.523   4.781  0.6561 -1.2509 -0.6836
19730TIP3   OH280604   2.785   1.841   3.850  0.8557 -0.6715 -0.1376
19730TIP3    H180605   2.837   1.761   3.838  0.0042 -1.1866 -0.5371
19730TIP3    H280606   2.713   1.832   3.788  0.8328  0.4971 -0.3010
19731TIP3   OH280607   0.962   3.082   0.789 -0.6140  0.3226 -0.0896
19731TIP3    H180608   0.910   3.016   0.742  0.7596 -0.5476 -0.4335
19731TIP3    H280609   1.042   3.090   0.739  0.0816  0.7967  1.0518
19732TIP3   OH280610   0.419   5.360  15.207 -0.0358  0.9183 -0.4041
19732TIP3    H180611   0.504   5.390  15.173 -0.3098  0.4833 -1.5025
19732TIP3    H280612   0.387   5.434  15.258  0.2878  1.6848 -1.2918
19733TIP3   OH280613   4.520   3.782  13.275 -0.1364 -0.1859  0.5341
19733TIP3    H180614   4.437   3.742  13.248  1.1127 -1.5423 -1.5719
19733TIP3    H280615   4.500   3.875  13.283 -1.4615 -0.1827 -1.9010
19734TIP3   OH280616   4.974   2.786   5.276 -0.2301 -0.1484 -0.3104
19734TIP3    H180617   5.042   2.734   5.318  0.2103  0.0589 -0.7501
19734TIP3    H280618   4.969   2.866   5.328  1.0700  0.5799 -1.2409
19735TIP3   OH280619   5.048   0.610  15.008  0.0203  0.3413 -0.0236
19735TIP3    H180620   4.992   0.618  14.930 -0.0607 -1.5704 -0.1960
19735TIP3    H280621   5.100   0.690  15.008 -2.7470  2.3108  0.2067
19736TIP3   OH280622   1.725   6.693   2.239 -0.7813 -0.4288 -0.2841
19736TIP3    H180623   1.680   6.773   2.267  0.1840 -0.0486  0.2278
19736TIP3    H280624   1.796   6.724   2.182  0.9642 -0.7121  1.6437
19737TIP3   OH280625   1.239   4.938  12.602 -0.1617  0.3160  0.0541
19737TIP3    H180626   1.257   4.949  12.695  0.2201  0.3519 -0.0251
19737TIP3    H280627   1.248   5.026  12.565 -1.7670  0.5825  0.2260
19738TIP3   OH280628   5.270   0.719   4.664 -0.2204 -0.2585 -0.3936
19738TIP3    H180629   5.249   0.628   4.683 -2.6914  0.2919 -0.1191
19738TIP3    H280630   5.280   0.723   4.569  1.3176 -1.0377 -0.2885
19739TIP3   OH280631   5.230   6.624   1.064  0.1895  0.1630 -0.1805
19739TIP3    H180632   5.211   6.576   0.984  0.9174  0.1940 -0.3858
19739TIP3    H280633   5.167   6.695   1.066 -0.1238 -0.1051 -0.4923
19740TIP3   OH280634   3.920   3.719   1.594  0.1990  0.5557  0.5519
19740TIP3    H180635   3.853   3.755   1.536 -0.6325 -0.7879  0.6486
19740TIP3    H280636   4.001   3.722   1.542 -0.6405 -1.2251 -0.9460
19741TIP3   OH280637   3.784   3.721  10.908  0.5125 -0.5727  0.2596
19741TIP3    H180638   3.878   3.735  10.893  0.2666  0.2220 -0.6754
19741TIP3    H280639   3.752   3.684  10.825 -0.1908  0.2075  0.1637
19742TIP3   OH280640   6.549   3.516   3.414  0.4930 -0.2590 -0.4087
19742TIP3    H180641   6.629   3.567   3.399  0.6650 -1.0512 -2.4184
19742TIP3    H280642   6.566   3.431   3.373 -0.9240 -0.8934  0.2417
19743TIP3   OH280643   6.206   6.212  15.369 -0.3998  0.6729 -0.0449
19743TIP3    H180644   6.144   6.281  15.390  0.8309  1.3374  1.6296
19743TIP3    H280645   6.286   6.258  15.345 -0.0781 -0.1653 -0.6351
19744TIP3   OH280646   5.686   3.051  12.041  0.4089 -0.2413  0.7324
19744TIP3    H180647   5.781   3.054  12.030  0.3434  0.6135  0.2555
19744TIP3    H280648   5.660   3.143  12.045 -0.4408 -0.4594  0.4790
19745TIP3   OH280649   0.810   0.402   2.745 -0.1358  0.1712 -0.1361
19745TIP3    H180650   0.773   0.321   2.711  4.0164 -2.0114 -0.1030
19745TIP3    H280651   0.831   0.383   2.836 -0.1547  1.7551  0.2318
19746TIP3   OH280652   6.728   1.201  16.368 -0.4627 -0.1505  0.1971
19746TIP3    H180653   6.635   1.222  16.365 -0.4048  0.1331  0.4056
19746TIP3    H280654   6.731   1.105  16.371 -0.7183 -0.2124 -1.0212
19747TIP3   OH280655   6.134   2.091  15.649  0.0082  0.2615  0.2944
19747TIP3    H180656   6.087   2.134  15.721 -2.8107 -1.2394 -0.4903
19747TIP3    H280657   6.157   2.005  15.685  0.7749  0.4050  0.1557
19748TIP3   OH280658   4.126   5.756  13.069 -0.0934 -0.0561  0.0147
19748TIP3    H180659   4.081   5.702  13.134  1.4124 -0.6670  0.6048
19748TIP3    H280660   4.168   5.693  13.010 -0.8493  0.4989 -1.1379
19749TIP3   OH280661   4.333   4.804  13.851  0.0481 -0.0547  0.0782
19749TIP3    H180662   4.290   4.735  13.800 -0.5337  0.5094 -0.2115
19749TIP3    H280663   4.397   4.842  13.790 -1.1160  1.0720 -0.4925
19750TIP3   OH280664   5.658   3.638  12.217 -0.5892 -0.0841  0.6194
19750TIP3    H180665   5.579   3.681  12.250 -1.7781 -1.7444  0.0795
19750TIP3    H280666   5.730   3.683  12.261 -1.8519  1.1574  1.5036
19751TIP3   OH280667   3.264   4.622  14.403  0.1835  0.7422  0.6173
19751TIP3    H180668   3.245   4.637  14.310 -1.8048 -0.0336  0.8530
19751TIP3    H280669   3.314   4.540  14.405 -2.5051 -1.0350  0.3626
19752TIP3   OH280670   0.092   5.129  16.582  0.5019 -0.0115 -0.3487
19752TIP3    H180671   0.187   5.131  16.571  0.6168  0.3453  0.5656
19752TIP3    H280672   0.066   5.042  16.551  1.1565 -0.1906 -0.4118
19753TIP3   OH280673   5.588   5.924   3.444  0.0249  0.5392  0.4245
19753TIP3    H180674   5.580   5.839   3.400  0.1923  1.6242 -1.8648
19753TIP3    H280675   5.507   5.932   3.495 -0.0548 -0.9267  0.5691
19754TIP3   OH280676   4.655   5.070  13.547 -0.3031  0.3905 -0.0938
19754TIP3    H180677   4.663   5.147  13.491  0.3263  0.4783  0.1065
19754TIP3    H280678   4.725   5.080  13.611 -0.2197 -0.3425 -0.0636
19755TIP3   OH280679   6.095   5.416   5.357  0.2952  0.0364  0.2366
19755TIP3    H180680   6.105   5.436   5.450  0.7454 -0.3123  0.2636
19755TIP3    H280681   6.163   5.352   5.338  2.3079  2.3661 -1.0599
19756TIP3   OH280682   0.894   5.071  16.860  0.1286 -0.2899  0.6054
19756TIP3    H180683   0.815   5.125  16.853 -0.0092 -0.6353 -0.9448
19756TIP3    H280684   0.878   4.998  16.801  0.5639 -1.7488  2.2157
19757TIP3   OH280685   5.194   4.256  14.379  0.6227  0.0195  0.4059
19757TIP3    H180686   5.115   4.213  14.347  0.9432 -0.8300  0.7226
19757TIP3    H280687   5.251   4.184  14.406  2.3868  0.4653 -1.7914
19758TIP3   OH280688   0.510   5.253   5.619  0.2727  0.0803  0.6844
19758TIP3    H180689   0.490   5.301   5.539  4.8473 -2.0093 -2.1368
19758TIP3    H280690   0.515   5.320   5.687  0.5032  2.6928 -1.7318
19759TIP3   OH280691   3.510   1.905   5.643  0.3884 -0.0348  0.0973
19759TIP3    H180692   3.572   1.909   5.569  0.4235 -0.9359  0.0660
19759TIP3    H280693   3.537   1.976   5.700  0.2296  0.8242 -0.8555
19760TIP3   OH280694   3.569   0.665   4.161 -0.1837 -0.3773 -0.0421
19760TIP3    H180695   3.569   0.648   4.067 -2.4402 -0.5528 -0.0824
19760TIP3    H280696   3.632   0.603   4.198 -0.1465 -1.1292 -1.3199
19761TIP3   OH280697   4.559   6.329   5.235  0.0939  0.3037  0.2648
19761TIP3    H180698   4.633   6.375   5.274 -0.0535  0.3403  0.5065
19761TIP3    H280699   4.555   6.359   5.145 -1.1782  2.2460  0.9057
19762TIP3   OH280700   6.198   5.232   1.865  0.1256  0.1015  0.4526
19762TIP3    H180701   6.214   5.138   1.872 -0.5724 -0.0241  0.4330
19762TIP3    H280702   6.105   5.240   1.846 -0.1919  0.8350  2.0471
19763TIP3   OH280703   5.310   4.010  14.445  0.0284 -0.3101  0.3604
19763TIP3    H180704   5.222   3.985  14.475  0.3230 -0.9946  0.6927
19763TIP3    H280705   5.363   3.932  14.463  1.2296  0.9061  2.4363
19764TIP3   OH280706   1.230   4.357  13.490  0.7816  0.0268  0.2911
19764TIP3    H180707   1.282   4.279  13.473  0.9008 -0.1825  1.5671
19764TIP3    H280708   1.206   4.351  13.582  1.7258  2.0467  0.7141
19765TIP3   OH280709   5.343   6.125  14.073  0.5615 -0.1824  0.2825
19765TIP3    H180710   5.254   6.109  14.106  1.5624 -4.1496  1.6084
19765TIP3    H280711   5.385   6.039  14.074  4.4431  1.4863 -0.4020
19766TIP3   OH280712   5.447   4.035  16.332  0.6825  0.0279 -0.3369
19766TIP3    H180713   5.441   4.130  16.339  2.6871  0.1442  0.4795
19766TIP3    H280714   5.509   4.020  16.261  1.5389 -0.6226  0.5231
19767TIP3   OH280715   3.859   3.451   3.577  0.0743 -0.0316 -0.4363
19767TIP3    H180716   3.773   3.490   3.590 -0.9834 -1.4342 -2.5311
19767TIP3    H280717   3.842   3.356   3.572  1.9282 -0.4530  0.3391
19768TIP3   OH280718   5.412   5.629  13.107  0.2710 -0.2844  0.2402
19768TIP3    H180719   5.502   5.651  13.083  0.3481  0.3548  1.0687
19768TIP3    H280720   5.375   5.590  13.028  0.5410  1.6345 -0.9106
19769TIP3   OH280721   0.883   5.305  11.521 -0.2283 -0.6330  0.2363
19769TIP3    H180722   0.867   5.212  11.537  0.0166 -0.5329  1.1247
19769TIP3    H280723   0.841   5.350  11.594  0.3928 -0.1043  0.2846
19770TIP3   OH280724   6.260   1.370  12.041 -0.5219 -0.4029 -0.0445
19770TIP3    H180725   6.331   1.383  11.978  0.8966  0.6338  1.6740
19770TIP3    H280726   6.298   1.315  12.110 -0.8583  1.3069  1.6047
19771TIP3   OH280727   6.236   5.992   5.198 -0.3669 -0.1428  0.4981
19771TIP3    H180728   6.287   5.950   5.129 -0.1367 -0.5151  0.8946
19771TIP3    H280729   6.164   5.931   5.216 -0.1593 -0.2667  0.9159
19772TIP3   OH280730   3.678   5.037   2.011  0.2433  0.3369  0.0456
19772TIP3    H180731   3.737   5.085   1.953  0.6927 -0.0941  0.1417
19772TIP3    H280732   3.736   4.981   2.063 -0.2028  0.3262  0.5343
19773TIP3   OH280733   6.368   6.176   5.554  0.5835 -0.3027  0.0972
19773TIP3    H180734   6.278   6.161   5.524  0.6819  0.3421 -0.5652
19773TIP3    H280735   6.367   6.151   5.646  0.1274 -1.8378 -0.2920
19774TIP3   OH280736   2.951   1.669  14.324  0.1548  0.0166  0.1301
19774TIP3    H180737   2.893   1.740  14.297  0.4689  0.8153  1.4653
19774TIP3    H280738   2.983   1.632  14.242 -1.6801  0.0085 -0.6284
19775TIP3   OH280739   2.177   0.111   0.645 -0.0256 -0.5964 -0.1378
19775TIP3    H180740   2.247   0.063   0.690  0.8478  2.3984  2.0190
19775TIP3    H280741   2.100   0.055   0.654  0.9977 -1.8037  1.8811
19776TIP3   OH280742   6.607   5.685   4.241 -0.1575 -0.3021 -0.2350
19776TIP3    H180743   6.601   5.597   4.278 -0.2921  0.0021  0.4734
19776TIP3    H280744   6.531   5.692   4.183  0.1844 -0.8659 -0.7633
19777TIP3   OH280745   5.742   5.818  11.333 -0.5545 -0.5887 -0.4562
19777TIP3    H180746   5.716   5.894  11.281 -0.0403  1.3424  1.9103
19777TIP3    H280747   5.671   5.806  11.396  1.1665  0.7355  1.9251
19778TIP3   OH280748   3.565   2.313  10.228 -0.3303  0.0699 -0.8754
19778TIP3    H180749   3.657   2.295  10.210 -0.0547  0.3824  0.1411
19778TIP3    H280750   3.520   2.232  10.208  0.1880 -0.1316 -1.2415
19779TIP3   OH280751   6.248   0.160   5.290 -0.6438 -0.0231  0.1976
19779TIP3    H180752   6.253   0.213   5.369 -1.3662  0.0595  0.1982
19779TIP3    H280753   6.231   0.072   5.321 -0.3614 -0.0913  0.1584
19780TIP3   OH280754   3.738   0.474   4.273  0.4270  0.1912 -0.3077
19780TIP3    H180755   3.741   0.410   4.203 -2.2252 -0.0501 -0.3099
19780TIP3    H280756   3.700   0.427   4.347 -0.7406  1.4809 -0.0397
19781TIP3   OH280757   3.273   0.544  14.927 -0.1222  0.0191  0.2422
19781TIP3    H180758   3.290   0.452  14.946  0.1079 -0.0017 -0.0569
19781TIP3    H280759   3.254   0.545  14.833 -0.0979  0.2800  0.2407
19782TIP3   OH280760   1.288   6.545  13.883  0.4394  0.6090  0.5494
19782TIP3    H180761   1.319   6.602  13.813  0.5608 -1.3168 -1.0586
19782TIP3    H280762   1.366   6.499  13.913 -0.1560 -1.5316 -0.9441
19783TIP3   OH280763   4.049   0.762   2.654  0.1080 -0.1207 -0.5580
19783TIP3    H180764   3.998   0.803   2.584 -2.8104 -3.4449 -0.6681
19783TIP3    H280765   4.136   0.749   2.615 -0.8969 -0.2523 -2.9501
19784TIP3   OH280766   3.994   2.700  13.178  0.5065 -0.3147 -0.2275
19784TIP3    H180767   4.005   2.789  13.145 -0.4718 -0.7656 -1.8889
19784TIP3    H280768   4.080   2.676  13.212  0.2499  2.0725  2.5316
19785TIP3   OH280769   6.207   2.377   1.109 -0.0615  0.4236  0.0316
19785TIP3    H180770   6.182   2.468   1.095  0.2558  0.4047 -0.7047
19785TIP3    H280771   6.139   2.342   1.166  0.3698  1.3987  1.1870
19786TIP3   OH280772   6.627   5.625  15.000  0.1586 -0.1165 -0.5278
19786TIP3    H180773   6.601   5.716  14.987 -0.7763 -0.0632  1.3416
19786TIP3    H280774   6.715   5.629  15.038  1.3441 -0.1573 -3.0465
19787TIP3   OH280775   5.174   5.767  16.724  0.1906  0.1413 -0.0087
19787TIP3    H180776   5.169   5.684  16.770  1.4746  0.7504  1.3018
19787TIP3    H280777   5.259   5.765  16.679 -0.5213  0.0542 -1.4216
19788TIP3   OH280778   0.016   2.863  16.161 -0.1299 -0.1458  0.0675
19788TIP3    H180779   0.004   2.808  16.238  0.9563  2.1211  2.0117
19788TIP3    H280780  -0.070   2.902  16.145 -0.6769 -1.6037 -0.7574
19789TIP3   OH280781   1.292   1.417  13.678  0.4002  0.0783  0.3289
19789TIP3    H180782   1.366   1.357  13.672  1.1805  0.7661  2.1945
19789TIP3    H280783   1.263   1.410  13.769 -0.5943  1.2417  0.1236
19790TIP3   OH280784   6.217   5.158   3.774  0.5647  0.0829  0.6338
19790TIP3    H180785   6.139   5.123   3.817  0.0046  0.5225 -0.0105
19790TIP3    H280786   6.284   5.091   3.788  0.8361  0.7893  3.4238
19791TIP3   OH280787   2.494   5.398  11.049  0.8049 -0.7942  0.5582
19791TIP3    H180788   2.548   5.342  11.104  1.5869  0.0315  0.6661
19791TIP3    H280789   2.534   5.391  10.962  2.4749  1.4198  1.0354
19792TIP3   OH280790   0.668   3.866  12.213 -0.0688 -0.0646 -0.0458
19792TIP3    H180791   0.726   3.923  12.264  0.1690 -0.1360 -0.2347
19792TIP3    H280792   0.704   3.778  12.227 -0.0868 -0.1001 -0.2281
19793TIP3   OH280793   2.264   6.228  16.688  0.6617  0.0852  0.3968
19793TIP3    H180794   2.310   6.221  16.605  1.1017  0.6902  0.5842
19793TIP3    H280795   2.238   6.320  16.694  1.6418  0.3169  1.4479
19794TIP3   OH280796   0.542   2.635  13.307 -0.0836 -0.1993 -0.1426
19794TIP3    H180797   0.464   2.627  13.363 -1.7622 -0.5003 -2.3635
19794TIP3    H280798   0.527   2.714  13.256  1.6530  0.3517  0.1310
19795TIP3   OH280799   5.361   2.312   3.912 -0.1801 -0.7165 -0.5815
19795TIP3    H180800   5.431   2.248   3.914  0.5400  0.0106 -1.5080
19795TIP3    H280801   5.345   2.328   3.818 -0.9024 -0.1481 -0.3791
19796TIP3   OH280802   3.043   2.532   3.425  0.0010  0.2786  0.0320
19796TIP3    H180803   2.951   2.506   3.435 -0.5344  1.9490 -0.2010
19796TIP3    H280804   3.039   2.615   3.378  1.5941  0.7189  0.6150
19797TIP3   OH280805   2.732   2.898   4.222  0.6097 -0.4357 -0.6451
19797TIP3    H180806   2.801   2.959   4.248  1.0974 -1.6112  0.9447
19797TIP3    H280807   2.760   2.865   4.137  1.2587  0.1966 -0.6886
19798TIP3   OH280808   3.221   4.611   0.366  0.6835  0.3717 -0.9414
19798TIP3    H180809   3.180   4.537   0.321  0.6453 -0.0396 -0.2374
19798TIP3    H280810   3.299   4.630   0.314  1.2849 -0.8647 -0.5256
19799TIP3   OH280811   6.119   4.083  14.732  0.2049  0.0453  0.1445
19799TIP3    H180812   6.057   4.139  14.685 -0.1892 -0.0492  0.5442
19799TIP3    H280813   6.075   4.062  14.815  0.6085 -0.3423  0.2670
19800TIP3   OH280814   4.246   0.553  11.891  1.2910  0.5085  0.5348
19800TIP3    H180815   4.185   0.497  11.938  2.5298  0.0412  1.6659
19800TIP3    H280816   4.202   0.638  11.885 -0.2770 -0.3312 -0.4932
19801TIP3   OH280817   6.043   1.974   5.816 -0.4399 -0.4837 -0.0013
19801TIP3    H180818   6.133   1.960   5.785  0.1103 -1.2791  1.8008
19801TIP3    H280819   6.048   1.958   5.911 -2.9134 -2.7095 -0.1445
19802TIP3   OH280820   2.820   3.261  10.940 -0.1334  0.2064  0.2213
19802TIP3    H180821   2.776   3.337  10.979  0.0422  1.2042 -1.4091
19802TIP3    H280822   2.757   3.190  10.949 -0.8406  0.8715  0.6380
19803TIP3   OH280823   5.972   6.339  15.162 -0.0400  0.5241 -0.1060
19803TIP3    H180824   6.055   6.305  15.127 -0.6242 -0.1784 -0.8462
19803TIP3    H280825   5.933   6.264  15.207 -1.0983  0.3278 -1.3016
19804TIP3   OH280826   6.107   4.741   4.758  0.0328  0.0681  0.1303
19804TIP3    H180827   6.064   4.691   4.827 -0.2142 -0.0769 -0.1257
19804TIP3    H280828   6.085   4.832   4.778 -1.8489 -0.0971 -0.9386
19805TIP3   OH280829   2.841   0.679  11.697 -0.2327 -0.1998  0.4279
19805TIP3    H180830   2.859   0.656  11.605  0.9813  0.5067  0.4727
19805TIP3    H280831   2.814   0.596  11.737 -1.2079 -0.4335 -0.6527
19806TIP3   OH280832   1.801   5.356  15.393  0.3249  0.1714 -0.1147
19806TIP3    H180833   1.882   5.327  15.353  0.2434 -0.2432  0.0193
19806TIP3    H280834   1.825   5.436  15.439  0.7291 -0.1246  0.1945
19807TIP3   OH280835   5.722   6.777  15.209 -0.4366 -0.3028 -0.3978
19807TIP3    H180836   5.810   6.751  15.181  0.9014  2.8145  0.5009
19807TIP3    H280837   5.664   6.709  15.172  2.0244 -1.0208 -3.3516
19808TIP3   OH280838   4.649   0.270  13.258  0.0323 -0.4726 -0.2806
19808TIP3    H180839   4.593   0.195  13.277  0.0964 -0.7688 -1.2013
19808TIP3    H280840   4.612   0.307  13.177 -0.2480  0.7385  0.3768
19809TIP3   OH280841   1.700   1.705  11.461 -0.6557 -0.2797 -0.3326
19809TIP3    H180842   1.677   1.620  11.498 -1.3292 -0.6357 -1.4907
19809TIP3    H280843   1.753   1.684  11.384 -1.1890  0.3020 -0.8775
19810TIP3   OH280844   6.601   0.993   3.075  0.1975  0.2301 -0.1898
19810TIP3    H180845   6.595   1.074   3.024  0.9240 -0.2841 -1.1342
19810TIP3    H280846   6.615   1.022   3.165  0.1392  1.1575 -0.4694
19811TIP3   OH280847   3.040   4.509   3.659 -0.4998  0.4676 -0.2895
19811TIP3    H180848   2.978   4.560   3.710 -0.4262  0.6983 -0.4256
19811TIP3    H280849   3.115   4.568   3.647  0.6554 -0.4932  1.6448
19812TIP3   OH280850   2.473   3.300   3.025  0.6755  0.2415  0.5246
19812TIP3    H180851   2.553   3.292   3.077 -0.3611  0.4083  2.2073
19812TIP3    H280852   2.443   3.389   3.042 -0.0453  0.0678  0.1866
19813TIP3   OH280853   2.935   4.337  11.459  0.4073  0.8329  0.6159
19813TIP3    H180854   2.984   4.373  11.533  0.9064 -1.9406  1.7600
19813TIP3    H280855   2.996   4.342  11.385  1.1234  0.6117  1.1894
19814TIP3   OH280856   2.224   6.500  15.635  0.2048  0.6483  0.2473
19814TIP3    H180857   2.280   6.491  15.557 -0.2911 -0.2436 -0.0229
19814TIP3    H280858   2.137   6.474  15.605 -0.7566  3.5537  0.2464
19815TIP3   OH280859   1.101   2.222  13.073 -0.3707  0.4818 -0.2563
19815TIP3    H180860   1.143   2.239  12.989  1.0801 -2.9060 -0.3804
19815TIP3    H280861   1.029   2.163  13.052  0.0969 -0.5241  0.8257
19816TIP3   OH280862   1.145   1.004  11.091  0.1083 -0.0365 -0.5750
19816TIP3    H180863   1.226   1.052  11.074 -0.4138  1.1676  0.1925
19816TIP3    H280864   1.083   1.037  11.025 -0.5473  1.1587  0.5840
19817TIP3   OH280865   0.002   4.096  12.346  0.3562 -0.2923 -0.0767
19817TIP3    H180866  -0.092   4.077  12.348  0.5145 -1.2116 -0.5299
19817TIP3    H280867   0.024   4.097  12.253  0.8361 -0.2812  0.0341
19818TIP3   OH280868   6.792   2.367   1.202 -0.1896  0.3251 -0.5145
19818TIP3    H180869   6.762   2.293   1.150  0.1377  0.5741 -1.0655
19818TIP3    H280870   6.730   2.437   1.182 -0.0995  0.4040 -0.5180
19819TIP3   OH280871   0.055   4.958  14.533  0.2980 -0.0109  0.1229
19819TIP3    H180872   0.081   4.926  14.446  0.7076 -0.3653  0.3729
19819TIP3    H280873  -0.037   4.932  14.542  0.2116  0.1548 -0.2616
19820TIP3   OH280874   2.504   3.624  12.642 -0.5623 -0.1916  1.1575
19820TIP3    H180875   2.513   3.563  12.569  0.7977  0.6038  0.6251
19820TIP3    H280876   2.526   3.573  12.719  1.4804 -0.1964  0.6255
19821TIP3   OH280877   3.840   1.181  11.269  0.2032  0.0714 -0.3769
19821TIP3    H180878   3.827   1.275  11.263  0.9499  0.1349 -1.2039
19821TIP3    H280879   3.752   1.145  11.281 -0.0809  0.8642 -0.0061
19822TIP3   OH280880   4.052   2.340   3.989  0.2683 -0.0762 -0.1149
19822TIP3    H180881   4.080   2.430   3.974  3.9968 -0.6510  2.1101
19822TIP3    H280882   4.097   2.289   3.920 -1.3577 -0.3839 -1.0097
19823TIP3   OH280883   1.937   6.425   0.885  0.1833  0.6052 -0.6336
19823TIP3    H180884   1.951   6.347   0.831  0.7755 -0.3688  0.8514
19823TIP3    H280885   1.866   6.401   0.945  0.2029  1.2849 -0.3213
19824TIP3   OH280886   5.489   3.626   2.552  0.6000 -0.0898 -0.0947
19824TIP3    H180887   5.564   3.609   2.494  1.2748 -0.3427  0.8250
19824TIP3    H280888   5.526   3.622   2.640 -0.7020 -1.3013  0.4297
19825TIP3   OH280889   1.619   0.814  12.930  0.0266  0.4313 -0.7842
19825TIP3    H180890   1.527   0.830  12.950 -0.6381 -1.7452 -1.7772
19825TIP3    H280891   1.646   0.890  12.878 -1.3175  0.9322 -0.7704
19826TIP3   OH280892   6.045   2.088  16.189 -0.0914 -0.4868 -0.4195
19826TIP3    H180893   6.002   2.005  16.170 -0.2629 -0.3839 -0.4790
19826TIP3    H280894   6.139   2.068  16.183 -0.1302 -0.2869 -2.1406
19827TIP3   OH280895   6.673   2.613  10.383  0.3467  0.2711  0.2177
19827TIP3    H180896   6.598   2.593  10.438 -0.1506  1.0232 -0.1635
19827TIP3    H280897   6.638   2.616  10.294  0.4290  2.3698  0.2035
19828TIP3   OH280898   3.910   0.148  11.666 -0.0321 -0.0389 -0.8817
19828TIP3    H180899   3.821   0.134  11.635  0.3177 -0.0594 -1.9149
19828TIP3    H280900   3.963   0.147  11.587  0.7530  1.1207 -0.3933
19829TIP3   OH280901   2.989   4.120  15.298 -0.0616  0.0577  0.0563
19829TIP3    H180902   3.051   4.171  15.246 -0.3304 -1.6649 -2.0666
19829TIP3    H280903   2.904   4.160  15.280  0.0992  0.8640  1.0037
19830TIP3   OH280904   2.323   0.209  15.836  0.2819  0.0089  0.0621
19830TIP3    H180905   2.276   0.158  15.902 -0.4652  0.0302 -0.4354
19830TIP3    H280906   2.303   0.165  15.753 -0.1318  0.9261 -0.3412
19831TIP3   OH280907   3.427   6.806   2.654  0.1299  0.4117  0.1275
19831TIP3    H180908   3.429   6.783   2.747  2.0484 -1.2632 -0.2762
19831TIP3    H280909   3.445   6.900   2.653 -1.7984  0.8655  1.4953
19832TIP3   OH280910   0.866   5.326   1.135 -0.4248 -0.6030 -0.2018
19832TIP3    H180911   0.789   5.285   1.095 -0.8656 -0.1234  0.1525
19832TIP3    H280912   0.879   5.406   1.084  2.2029 -2.4775 -2.8795
19833TIP3   OH280913   5.789   4.667  16.453 -0.6024  0.5562  0.3839
19833TIP3    H180914   5.726   4.655  16.382 -0.2175  0.4383  0.0564
19833TIP3    H280915   5.874   4.668  16.409 -0.2408 -0.9690  0.9818
19834TIP3   OH280916   3.106   5.000  13.994 -0.6896 -0.2902 -0.4253
19834TIP3    H180917   3.108   4.962  13.906  0.5350  0.4361 -0.7276
19834TIP3    H280918   3.181   5.059  13.997  0.3598 -1.6184  1.7101
19835TIP3   OH280919   4.180   5.783   5.699 -0.0665 -0.3395  0.7331
19835TIP3    H180920   4.150   5.821   5.781 -1.2330 -1.5342  0.8960
19835TIP3    H280921   4.159   5.690   5.707  1.6745 -0.8507 -0.0849
19836TIP3   OH280922   0.383   1.471  12.534  0.4764  0.1171  0.1233
19836TIP3    H180923   0.375   1.375  12.531  0.8359  0.0978 -0.4116
19836TIP3    H280924   0.392   1.491  12.627  0.9446 -0.4165  0.2010
19837TIP3   OH280925   0.048   2.723  11.299  0.0927 -0.1281 -0.0054
19837TIP3    H180926  -0.001   2.735  11.380  0.5586 -0.3307  0.3155
19837TIP3    H280927   0.027   2.633  11.271  0.3897 -0.2683  0.2129
19838TIP3   OH280928   2.224   2.343   6.144  0.9333 -0.0790  0.0089
19838TIP3    H180929   2.255   2.414   6.200 -0.1190 -0.9240  1.7527
19838TIP3    H280930   2.192   2.276   6.205  1.2579 -1.7840 -1.5797
19839TIP3   OH280931   5.972   4.604   0.119  0.0473 -0.5020  0.2481
19839TIP3    H180932   6.059   4.601   0.078 -0.3161 -1.6666 -0.4660
19839TIP3    H280933   5.970   4.528   0.177 -0.5248 -0.5048  0.2237
19840TIP3   OH280934   5.414   2.349  13.523  0.9309 -0.3355  0.6973
19840TIP3    H180935   5.326   2.345  13.487  1.0722  4.1189 -0.7560
19840TIP3    H280936   5.472   2.345  13.447  1.7787  0.1432  1.2932
19841TIP3   OH280937   1.919   2.684   5.704  0.5798 -0.7526 -0.3621
19841TIP3    H180938   1.884   2.711   5.619 -1.2747  0.1785  0.6156
19841TIP3    H280939   1.865   2.609   5.729  1.4818 -1.3721 -0.2364
19842TIP3   OH280940   6.241   1.211  15.516 -0.1229  0.4271 -0.5868
19842TIP3    H180941   6.267   1.295  15.552  0.5621 -0.4101  0.9787
19842TIP3    H280942   6.163   1.230  15.464 -0.2336  1.9587  0.0944
19843TIP3   OH280943   1.319   0.420  14.767  0.2633  0.7504  0.1113
19843TIP3    H180944   1.401   0.379  14.739  0.1839 -0.0239  0.9931
19843TIP3    H280945   1.257   0.347  14.773 -0.3979  1.2802 -0.1808
19844TIP3   OH280946   3.437   4.957   3.563  0.4058  0.2447 -0.2099
19844TIP3    H180947   3.409   4.983   3.651  1.3061  1.1106 -0.1638
19844TIP3    H280948   3.420   4.863   3.560 -1.7223  0.5605  0.0825
19845TIP3   OH280949   1.191   2.742   4.445  0.4916  0.4405  0.0545
19845TIP3    H180950   1.257   2.723   4.378 -0.7458  0.3869 -1.2039
19845TIP3    H280951   1.144   2.659   4.457  0.4343  0.5585  0.6971
19846TIP3   OH280952   0.178   2.613  15.349  0.0848 -0.2162  0.3581
19846TIP3    H180953   0.205   2.573  15.267 -1.2814 -1.0001  0.2483
19846TIP3    H280954   0.114   2.680  15.324  0.5849  0.3926  0.6991
19847TIP3   OH280955   0.230   0.729   4.481 -0.2046  0.5705  0.5183
19847TIP3    H180956   0.134   0.725   4.476 -0.1422 -1.9031  0.1041
19847TIP3    H280957   0.253   0.657   4.539  1.4701  0.1260 -0.6434
19848TIP3   OH280958   1.695   4.487  16.486 -0.5053 -0.3648 -0.2797
19848TIP3    H180959   1.697   4.427  16.560  0.8553 -0.2700 -0.2117
19848TIP3    H280960   1.696   4.574  16.525 -1.0384 -0.3053 -0.3948
19849TIP3   OH280961   0.514   0.959   5.224 -0.1215 -0.2691  0.0346
19849TIP3    H180962   0.510   0.979   5.131 -0.4079  0.7287  0.2439
19849TIP3    H280963   0.472   1.034   5.266  1.0766 -0.1322  1.0396
19850TIP3   OH280964   6.476   3.523  13.079 -0.2446 -0.1125 -0.5419
19850TIP3    H180965   6.478   3.449  13.019  0.5716 -0.2770 -0.3206
19850TIP3    H280966   6.567   3.534  13.107 -0.4391  0.6467 -0.1764
19851TIP3   OH280967   6.491   5.881   6.382  0.1819 -0.0180 -0.1230
19851TIP3    H180968   6.526   5.795   6.402  0.3464 -0.6080 -2.5825
19851TIP3    H280969   6.567   5.933   6.356  0.1802  1.1491  1.9637
19852TIP3   OH280970   1.699   6.401   1.028  0.2477  0.1386  0.2249
19852TIP3    H180971   1.656   6.387   1.112  0.6031 -1.3279  0.1874
19852TIP3    H280972   1.640   6.361   0.964 -0.1360  1.4442 -0.2870
19853TIP3   OH280973   2.449   1.974   0.234 -0.0453  0.0135  0.1057
19853TIP3    H180974   2.411   2.045   0.183  2.8205  1.4066 -0.2916
19853TIP3    H280975   2.477   2.016   0.315  2.3308 -0.4235 -0.4256
19854TIP3   OH280976   4.522   5.449   5.222 -0.3691 -0.1438 -0.1695
19854TIP3    H180977   4.575   5.467   5.145 -0.5157  0.3465 -0.1562
19854TIP3    H280978   4.457   5.519   5.224 -0.5372 -0.3076  0.2430
19855TIP3   OH280979   4.949   1.876  15.870  0.4897  0.3187  0.3865
19855TIP3    H180980   4.999   1.892  15.789 -1.0018  0.2769 -0.5831
19855TIP3    H280981   4.886   1.948  15.873  0.7085  0.4802  1.7028
19856TIP3   OH280982   5.468   1.053   4.724  0.3403  0.4030 -0.6031
19856TIP3    H180983   5.462   1.131   4.780 -1.6779  1.2477 -1.9098
19856TIP3    H280984   5.478   0.981   4.786  0.9940  1.5402  0.6979
19857TIP3   OH280985   2.803   1.562  13.641  0.9694  0.2379  0.4161
19857TIP3    H180986   2.727   1.561  13.699 -0.8122  0.3518 -1.8157
19857TIP3    H280987   2.770   1.536  13.556  3.3397  0.8009 -0.7803
19858TIP3   OH280988   1.786   0.353   1.674 -0.0815  0.1638  0.1568
19858TIP3    H180989   1.720   0.415   1.643  0.5019  1.2646  1.0446
19858TIP3    H280990   1.807   0.300   1.596 -0.7476  0.9202 -0.5638
19859TIP3   OH280991   0.359   5.853  13.407 -0.0382  0.3589  0.2918
19859TIP3    H180992   0.323   5.919  13.348 -0.5580 -0.8196 -0.7586
19859TIP3    H280993   0.370   5.899  13.490 -3.4406  0.9793  0.5462
19860TIP3   OH280994   4.930   1.264  14.387  0.2665 -0.0229 -0.7495
19860TIP3    H180995   5.024   1.257  14.373  0.0856  0.2973 -2.3878
19860TIP3    H280996   4.892   1.194  14.334 -0.5760  2.1922 -3.2974
19861TIP3   OH280997   4.188   0.821   3.675  0.4567 -0.0010  0.6687
19861TIP3    H180998   4.172   0.758   3.605 -0.0881  1.2433 -0.3631
19861TIP3    H280999   4.276   0.801   3.705  1.4591  0.6048 -1.6645
19862TIP3   OH281000   3.668   4.916   5.542  0.6262 -0.9729  0.0110
19862TIP3    H181001   3.672   4.855   5.468 -0.9900 -2.8620  1.3738
19862TIP3    H281002   3.710   4.869   5.614 -1.1535 -0.7604  1.2493
19863TIP3   OH281003   0.581   5.214   6.387 -0.1297  0.5194 -0.5163
19863TIP3    H181004   0.638   5.212   6.463  0.0778 -2.2994 -0.6601
19863TIP3    H281005   0.494   5.192   6.422  0.0678 -1.3275 -1.1204
19864TIP3   OH281006   5.428   6.330   5.876  0.2624  0.1710  0.4391
19864TIP3    H181007   5.514   6.297   5.902 -1.0226 -4.1034  0.0071
19864TIP3    H281008   5.431   6.333   5.780 -0.2240 -0.6134  0.3902
19865TIP3   OH281009   4.419   3.180  12.967  0.5018 -0.1007 -0.0692
19865TIP3    H181010   4.369   3.261  12.972 -0.1126 -0.4840  0.2141
19865TIP3    H281011   4.485   3.196  12.900 -1.4522 -0.3550 -2.1946
19866TIP3   OH281012   4.916   2.267  13.285 -0.1072  0.1518  0.3929
19866TIP3    H181013   4.832   2.241  13.245  0.2695  0.1040 -0.3913
19866TIP3    H281014   4.982   2.231  13.226  0.4581  0.9837  0.5012
19867TIP3   OH281015   5.395   5.780   1.500 -0.4762 -0.1924  0.2981
19867TIP3    H181016   5.356   5.701   1.464  1.4460 -1.4772  0.8580
19867TIP3    H281017   5.361   5.785   1.589  0.2297 -1.0507  0.6334
19868TIP3   OH281018   5.550   4.456  11.053  0.2162 -0.1031 -0.4971
19868TIP3    H181019   5.541   4.438  10.960  0.4884 -0.9583 -0.3680
19868TIP3    H281020   5.625   4.514  11.060  2.2569 -2.5589 -0.5754
19869TIP3   OH281021   6.286   0.022  12.451 -0.3325  0.3126  0.2963
19869TIP3    H181022   6.292  -0.033  12.374  0.2093  0.0738  0.5013
19869TIP3    H281023   6.294  -0.038  12.525 -0.3503  0.5934  0.5316
19870TIP3   OH281024   1.539   4.899  11.071 -0.2849  0.1462  0.0819
19870TIP3    H181025   1.582   4.898  11.157  1.1732  1.8955 -0.5670
19870TIP3    H281026   1.608   4.924  11.010 -1.2730 -1.1370 -1.6516
19871TIP3   OH281027   3.564   4.045   1.639  0.5092  0.1976  0.3227
19871TIP3    H181028   3.482   4.088   1.615 -0.0292 -0.9719 -0.0401
19871TIP3    H281029   3.549   3.953   1.619  1.7035 -0.1310  0.8415
19872TIP3   OH281030   3.245   5.315   6.738  0.4805  0.2345  0.3508
19872TIP3    H181031   3.314   5.380   6.724  0.1185  0.1528 -2.4109
19872TIP3    H281032   3.167   5.354   6.697 -0.2812 -1.0365  0.5214
19873TIP3   OH281033   5.944   3.264  15.271  0.1568  0.1223  0.2128
19873TIP3    H181034   5.873   3.316  15.234 -0.2875 -0.1473  0.6708
19873TIP3    H281035   5.929   3.266  15.365  0.0170 -0.9821  0.2310
19874TIP3   OH281036   4.650   0.788  14.218  0.0604  0.1419  0.4688
19874TIP3    H181037   4.698   0.812  14.298 -0.8787 -0.5612  1.2755
19874TIP3    H281038   4.656   0.692  14.216 -1.3565  0.0401  0.6262
19875TIP3   OH281039   2.596   6.730   1.783 -0.6710 -0.1729 -0.0542
19875TIP3    H181040   2.661   6.693   1.722 -0.1827 -1.4185  1.1747
19875TIP3    H281041   2.645   6.742   1.864 -1.2782  1.5966  0.0784
19876TIP3   OH281042   0.420   4.852  14.688  0.3165  0.2942 -0.0006
19876TIP3    H181043   0.339   4.903  14.699 -0.3695 -1.0545  1.5811
19876TIP3    H281044   0.485   4.901  14.738 -0.1313  0.0907  0.7988
19877TIP3   OH281045   0.518   1.754   5.897 -0.2276  0.4581  0.4599
19877TIP3    H181046   0.582   1.777   5.965  1.3756  1.5097 -1.3141
19877TIP3    H281047   0.516   1.830   5.839 -0.1863 -1.0683 -1.6509
19878TIP3   OH281048   6.144   5.738   4.551 -0.1058  0.5077 -0.3785
19878TIP3    H181049   6.056   5.732   4.512 -0.4907  1.8567  0.2419
19878TIP3    H281050   6.191   5.800   4.496  0.0130  0.8420  0.1004
19879TIP3   OH281051   0.578   0.498   0.943 -0.1539 -0.1043  0.5206
19879TIP3    H181052   0.512   0.431   0.962  0.3625 -1.3911 -1.8767
19879TIP3    H281053   0.537   0.580   0.971 -2.6842 -0.8804 -0.6061
19880TIP3   OH281054   3.898   2.421  15.927 -0.5801 -0.2800  0.1440
19880TIP3    H181055   3.898   2.349  15.865 -1.3239 -0.6319  0.5434
19880TIP3    H281056   3.920   2.382  16.011 -1.0090 -0.0611  0.3672
19881TIP3   OH281057   0.064   5.072   2.887 -0.1380  0.1527 -0.3962
19881TIP3    H181058   0.023   5.155   2.913 -2.3916 -0.8185 -0.5349
19881TIP3    H281059  -0.009   5.010   2.886  1.6514 -2.0867  0.7423
19882TIP3   OH281060   6.019   4.400  15.496  1.0217  0.2159  0.2231
19882TIP3    H181061   6.052   4.456  15.567  1.0068 -0.9905  1.2031
19882TIP3    H281062   6.078   4.325  15.495 -0.1463 -0.7298  0.2660
19883TIP3   OH281063   3.526   5.598  15.983 -0.0235 -0.5635  0.5033
19883TIP3    H181064   3.473   5.674  15.961  1.7486  0.2311 -1.3659
19883TIP3    H281065   3.592   5.593  15.913  2.5470 -1.2921  2.7868
19884TIP3   OH281066   0.638   0.621  16.530 -0.0824  0.3562  0.4639
19884TIP3    H181067   0.644   0.592  16.621 -2.6644 -0.5350  0.4397
19884TIP3    H281068   0.684   0.705  16.528  0.8347 -0.0622  2.3496
19885TIP3   OH281069   1.875   5.472  14.657  0.0957  0.1431  0.1480
19885TIP3    H181070   1.879   5.560  14.693  0.4077  0.7813 -1.3888
19885TIP3    H281071   1.966   5.441  14.658  0.3390  0.7455 -1.4355
19886TIP3   OH281072   2.073   5.031   4.446 -0.0056  0.6437 -0.1688
19886TIP3    H181073   2.006   5.020   4.513 -0.4288 -2.7520 -0.9965
19886TIP3    H281074   2.024   5.056   4.367  0.2099  2.0238  0.1028
19887TIP3   OH281075   4.806   2.341  16.294  0.5691 -0.0360 -0.0426
19887TIP3    H181076   4.781   2.249  16.298  2.2194 -0.5659 -0.8341
19887TIP3    H281077   4.731   2.385  16.254 -0.1848 -1.0490  0.2309
19888TIP3   OH281078   5.785   2.330   2.429  0.1189 -0.1529 -0.2401
19888TIP3    H181079   5.750   2.243   2.447  1.5684 -0.3966  1.6262
19888TIP3    H281080   5.768   2.380   2.508 -0.0741  1.0817 -1.0315
19889TIP3   OH281081   2.590   5.962  15.337  0.5109  0.3118  0.8200
19889TIP3    H181082   2.502   5.937  15.311  0.2598  1.0582  0.9292
19889TIP3    H281083   2.577   6.032  15.401  1.1914  0.7094  0.5300
19890TIP3   OH281084   2.129   4.839  10.278 -0.0921  0.1816  0.1058
19890TIP3    H181085   2.099   4.772  10.340 -0.5080 -0.4790 -0.7726
19890TIP3    H281086   2.057   4.902  10.273 -0.5498 -0.3747 -0.5456
19891TIP3   OH281087   1.488   6.577   4.733  0.4065 -0.3318  0.8780
19891TIP3    H181088   1.508   6.664   4.699  1.8398  0.2243  2.9456
19891TIP3    H281089   1.395   6.578   4.751  0.3216  0.5941  0.4254
19892TIP3   OH281090   0.613   4.649  16.411 -0.4159 -0.7449  0.4035
19892TIP3    H181091   0.546   4.650  16.480 -2.0615 -0.9205 -1.1255
19892TIP3    H281092   0.578   4.588  16.345  1.2816 -0.8556 -0.4340
19893TIP3   OH281093   3.995   2.024   2.060  0.4126 -0.0985 -0.7430
19893TIP3    H181094   3.998   2.028   2.156 -0.3329 -0.2127 -0.7139
19893TIP3    H281095   4.047   2.100   2.032  1.2290 -0.4561 -0.2606
19894TIP3   OH281096   0.468   2.780  12.629 -0.4211  0.0212  0.5947
19894TIP3    H181097   0.388   2.800  12.580 -0.1523  0.3463  0.2859
19894TIP3    H281098   0.437   2.735  12.707 -0.8982  0.0191  0.4085
19895TIP3   OH281099   3.732   6.640  11.318 -0.8091 -0.2469  0.3352
19895TIP3    H181100   3.802   6.648  11.384 -0.6963 -1.3497  0.3734
19895TIP3    H281101   3.774   6.664  11.236 -0.0388 -1.9314  0.1808
19896TIP3   OH281102   4.337   3.658  14.610  0.3826 -0.3363 -0.8751
19896TIP3    H181103   4.401   3.666  14.681  0.7203  0.9657 -1.3108
19896TIP3    H281104   4.376   3.592  14.551  0.7333 -0.4427 -0.5322
19897TIP3   OH281105   3.494   2.896   1.435  0.1140 -0.3446  0.1438
19897TIP3    H181106   3.485   2.973   1.379  1.0890  0.7286  1.3937
19897TIP3    H281107   3.408   2.854   1.434 -0.6756  1.2364  0.1077
19898TIP3   OH281108   2.170   2.215   4.985  0.2655 -0.4165  0.4142
19898TIP3    H181109   2.210   2.302   4.991  3.3072 -1.2453 -3.6560
19898TIP3    H281110   2.114   2.220   4.907  2.8560 -2.7231 -1.7698
19899TIP3   OH281111   4.466   4.053  13.231 -0.0107  0.6895  0.2937
19899TIP3    H181112   4.409   4.079  13.159 -0.2941  2.1761  0.9972
19899TIP3    H281113   4.480   4.135  13.280  1.5876  0.0738  0.9216
19900TIP3   OH281114   6.359   2.214   0.423 -0.3678 -1.0829  0.3959
19900TIP3    H181115   6.410   2.278   0.472 -0.5926  1.1451 -2.0540
19900TIP3    H281116   6.422   2.174   0.363 -0.6267 -1.8042  0.5855
19901TIP3   OH281117   6.467   3.222  15.021  0.5315  0.3303  0.3935
19901TIP3    H181118   6.469   3.211  15.116 -0.0787  0.6227  0.4401
19901TIP3    H281119   6.549   3.268  15.000  0.4343  0.7077  0.8358
19902TIP3   OH281120   5.462   1.784   3.266  0.1242  0.7772 -0.1322
19902TIP3    H181121   5.502   1.756   3.183  0.1925  1.3712 -0.3021
19902TIP3    H281122   5.370   1.798   3.245  0.2250  1.3414 -0.2127
19903TIP3   OH281123   3.908   4.214   5.390  0.1046 -0.2040 -0.0353
19903TIP3    H181124   3.883   4.206   5.298 -1.1222 -0.4888  0.3022
19903TIP3    H281125   3.932   4.125   5.416 -0.8096 -0.3922  0.2373
19904TIP3   OH281126   6.656   5.962  16.038 -0.3959 -0.0175  0.8983
19904TIP3    H181127   6.696   5.909  16.107 -0.2350 -0.9534  0.1075
19904TIP3    H281128   6.609   5.898  15.984 -0.5442  0.7064  0.1625
19905TIP3   OH281129   0.591   0.536   4.929  0.2312  0.3635 -0.4292
19905TIP3    H181130   0.551   0.594   4.864 -1.3106  0.2050  0.3408
19905TIP3    H281131   0.630   0.595   4.993  2.1537  0.5291 -1.6609
19906TIP3   OH281132   1.816   3.328  15.353  0.2092 -0.0731 -0.0495
19906TIP3    H181133   1.864   3.246  15.346  0.0387 -0.1515 -0.3158
19906TIP3    H281134   1.861   3.387  15.291  0.2591 -0.0022  0.0537
19907TIP3   OH281135   5.257   3.896   5.481 -0.7313 -0.4545 -0.1014
19907TIP3    H181136   5.209   3.893   5.564 -0.1890 -0.1786  0.2261
19907TIP3    H281137   5.306   3.814   5.479  1.6172  0.8212  1.3014
19908TIP3   OH281138   2.493   3.975   0.082 -0.2760  0.2481 -0.2130
19908TIP3    H181139   2.432   3.987   0.156 -0.5964  0.3180 -0.4836
19908TIP3    H281140   2.456   3.903   0.032  0.1521 -0.0512 -0.0963
19909TIP3   OH281141   0.968   5.805  11.452 -0.6119 -0.8968 -0.0640
19909TIP3    H181142   1.002   5.720  11.425 -0.0241 -1.1025  1.2380
19909TIP3    H281143   1.045   5.855  11.478 -1.0930 -0.5836  0.8201
19910TIP3   OH281144   1.021   4.107  11.738  0.0980  0.1021  0.1630
19910TIP3    H181145   1.042   4.088  11.829 -0.0104  0.7718  0.3353
19910TIP3    H281146   0.929   4.133  11.740  0.5669  1.8973  0.1535
19911TIP3   OH281147   0.159   3.146  11.346  0.0373  0.2599  0.0498
19911TIP3    H181148   0.093   3.173  11.282 -0.3791  0.5366  0.5873
19911TIP3    H281149   0.238   3.192  11.318 -0.1021  0.2642 -0.3513
19912TIP3   OH281150   4.398   4.753   1.074  0.5335 -0.3089 -0.2255
19912TIP3    H181151   4.332   4.684   1.062  0.9982 -0.2308 -4.7589
19912TIP3    H281152   4.476   4.706   1.104 -0.5098 -0.8790  1.8256
19913TIP3   OH281153   2.886   1.816   0.408  0.0778  0.3037 -0.7437
19913TIP3    H181154   2.951   1.819   0.338  0.3232  2.3729 -0.4946
19913TIP3    H281155   2.910   1.888   0.466 -1.8311  0.4589 -0.0825
19914TIP3   OH281156   0.129   1.946   4.229 -0.3188 -0.2540 -0.2506
19914TIP3    H181157   0.157   1.958   4.139 -0.4338 -0.7461 -0.3533
19914TIP3    H281158   0.204   1.907   4.273  0.1158  0.9498  0.1244
19915TIP3   OH281159   1.525   2.894   6.013  0.5199  1.1544  0.4594
19915TIP3    H181160   1.549   2.815   5.963  0.7085  2.2311 -1.2313
19915TIP3    H281161   1.468   2.861   6.083 -0.2263 -0.3863 -0.7879
19916TIP3   OH281162   6.459   5.034   5.392 -0.4631  0.2492  0.1497
19916TIP3    H181163   6.496   4.995   5.313 -0.1957 -1.0756  0.8984
19916TIP3    H281164   6.531   5.032   5.456 -1.2713 -0.7122  1.0703
19917TIP3   OH281165   4.185   4.892   4.542  0.3781 -0.3753  0.0273
19917TIP3    H181166   4.257   4.923   4.486  0.8987 -0.0204  0.8627
19917TIP3    H281167   4.131   4.839   4.485  2.2251 -2.0924 -0.2456
19918TIP3   OH281168   4.834   1.658   5.210 -0.1014 -0.0327 -0.6188
19918TIP3    H181169   4.828   1.563   5.222 -0.3471 -0.3057 -2.5012
19918TIP3    H281170   4.891   1.668   5.134  0.7302  1.3981  0.1527
19919TIP3   OH281171   2.811   5.162   2.232  0.3593 -0.5782 -0.1279
19919TIP3    H181172   2.752   5.119   2.295  0.8765 -0.6261  0.3294
19919TIP3    H281173   2.788   5.254   2.237  1.8447 -0.2557  1.7534
19920TIP3   OH281174   6.033   6.314   4.497 -0.5330 -0.2779 -0.1564
19920TIP3    H181175   5.988   6.231   4.480 -1.6028  0.1458  0.4923
19920TIP3    H281176   5.998   6.374   4.431  1.8635 -0.8394 -2.0815
19921TIP3   OH281177   4.688   6.287  15.580 -0.2457  0.7634  0.2248
19921TIP3    H181178   4.693   6.332  15.496 -1.0925  1.8953  0.7562
19921TIP3    H281179   4.597   6.294  15.606  0.2437  1.6465  1.8595
19922TIP3   OH281180   1.728   0.250   3.780 -0.1079  0.3936 -0.0708
19922TIP3    H181181   1.781   0.258   3.859 -1.2742 -1.0688  0.9028
19922TIP3    H281182   1.645   0.293   3.802 -0.7931 -0.8671 -0.1358
19923TIP3   OH281183   3.461   6.268  15.975  0.3753 -0.3610 -0.0934
19923TIP3    H181184   3.400   6.203  16.010  0.2677 -1.0764 -1.5214
19923TIP3    H281185   3.545   6.246  16.015  0.2316 -1.0728 -0.1655
19924TIP3   OH281186   3.313   1.849  15.205  0.4577  0.3052  0.3693
19924TIP3    H181187   3.357   1.860  15.121  0.5147 -1.7629  0.0820
19924TIP3    H281188   3.337   1.927  15.255  0.5347  1.5176 -1.4559
19925TIP3   OH281189   4.588   4.790   0.423  0.0904 -0.3362  0.1313
19925TIP3    H181190   4.591   4.778   0.518 -1.5200 -0.2152  0.2195
19925TIP3    H281191   4.579   4.884   0.410  1.0921 -0.2677 -0.1925
19926TIP3   OH281192   0.444   6.382   4.523 -0.4027  0.1049  0.4922
19926TIP3    H181193   0.508   6.325   4.480 -0.6992  0.3170 -0.2499
19926TIP3    H281194   0.497   6.450   4.565  0.0181 -1.1434  2.1142
19927TIP3   OH281195   0.417   2.909  16.977  0.7194  0.2232 -0.2470
19927TIP3    H181196   0.360   2.968  16.926 -0.2237 -0.0919  0.4041
19927TIP3    H281197   0.357   2.844  17.013  1.3968  0.3024  1.0752
19928TIP3   OH281198   6.713   6.290   2.973  0.1760 -0.6637 -0.1149
19928TIP3    H181199   6.804   6.262   2.985  0.8774  0.9220 -1.2606
19928TIP3    H281200   6.672   6.220   2.923  0.8780 -1.2192  0.0736
19929TIP3   OH281201   2.922   5.995   0.567 -0.5338  0.2272  0.5471
19929TIP3    H181202   2.833   6.027   0.552 -0.6205  0.2843  1.1710
19929TIP3    H281203   2.975   6.046   0.505 -0.7692  1.0880  1.0288
19930TIP3   OH281204   4.446   5.136  15.104  0.2130 -0.5920  0.2570
19930TIP3    H181205   4.402   5.206  15.152  0.4322  0.1658 -0.6246
19930TIP3    H281206   4.396   5.058  15.126 -0.6306 -0.0025  0.4913
19931TIP3   OH281207   4.261   4.526  17.006  0.0020 -0.3033 -0.1804
19931TIP3    H181208   4.322   4.595  17.034  1.1122 -1.2514 -0.1988
19931TIP3    H281209   4.190   4.574  16.962  1.4540  0.7629 -1.4787
19932TIP3   OH281210   4.743   3.174   2.771  0.0175  0.0176 -0.1741
19932TIP3    H181211   4.826   3.217   2.792  1.4491 -2.2123 -0.9891
19932TIP3    H281212   4.749   3.088   2.812 -0.1064 -1.7479 -3.5240
19933TIP3   OH281213   2.479   1.076  11.060  1.1357 -0.1597  0.3725
19933TIP3    H181214   2.440   0.999  11.103  1.1452 -0.1318  0.4313
19933TIP3    H281215   2.405   1.132  11.040  1.1645 -0.0082  0.6797
19934TIP3   OH281216   2.220   1.652  11.725 -0.0840 -0.2019 -0.0859
19934TIP3    H181217   2.165   1.612  11.657 -0.2394  0.5247 -0.4042
19934TIP3    H281218   2.260   1.578  11.771  1.6530 -0.7393 -2.2752
19935TIP3   OH281219   3.295   3.326   3.349  0.6036  0.0363  0.2638
19935TIP3    H181220   3.224   3.369   3.301  2.0558 -0.0194 -2.1049
19935TIP3    H281221   3.254   3.296   3.430 -1.9095  0.5800 -0.6924
19936TIP3   OH281222   2.182   2.085   5.645 -0.3554 -0.0376 -0.1489
19936TIP3    H181223   2.094   2.122   5.639  0.5699  2.7636  1.7157
19936TIP3    H281224   2.216   2.089   5.556 -1.9987 -1.0551 -0.8840
19937TIP3   OH281225   1.211   6.262  14.935  0.2949 -0.1716  0.1748
19937TIP3    H181226   1.208   6.270  14.840  1.1794 -2.8784 -0.1744
19937TIP3    H281227   1.266   6.335  14.963  1.3163 -0.2184 -1.5554
19938TIP3   OH281228   5.369   4.800   0.811 -0.4546 -0.7200  0.0135
19938TIP3    H181229   5.277   4.823   0.818 -0.3321 -0.6951  2.3586
19938TIP3    H281230   5.403   4.807   0.901  2.1249  0.4715 -0.9526
19939TIP3   OH281231   6.471   1.657   0.306  0.1901  0.4398  0.0650
19939TIP3    H181232   6.446   1.593   0.373 -1.4094  1.8648  0.9262
19939TIP3    H281233   6.428   1.627   0.226  0.8534 -0.4561  0.0378
19940TIP3   OH281234   6.624   0.337   3.247 -0.1113 -0.5130  0.3207
19940TIP3    H181235   6.660   0.425   3.258  0.2975 -0.8925  2.4612
19940TIP3    H281236   6.529   0.349   3.244 -0.0119  0.1131 -1.0687
19941TIP3   OH281237   5.045   5.657   3.585 -0.0177 -0.1284 -0.9442
19941TIP3    H181238   5.063   5.673   3.678  0.1878  0.2827 -1.0525
19941TIP3    H281239   4.955   5.687   3.573 -0.1259 -0.4049 -0.8249
19942TIP3   OH281240   3.460   0.609   0.678  0.6813 -0.5063 -0.0208
19942TIP3    H181241   3.468   0.560   0.596  0.2076  0.0949 -0.4427
19942TIP3    H281242   3.452   0.700   0.649 -0.4492 -0.3794  0.6493
19943TIP3   OH281243   5.859   0.804  15.499 -0.3081 -0.2328 -0.0295
19943TIP3    H181244   5.950   0.804  15.469 -0.5392 -0.0234 -0.7462
19943TIP3    H281245   5.807   0.791  15.420 -0.9247  0.1278  0.3063
19944TIP3   OH281246   4.944   4.143  16.766 -0.2435 -0.2137 -0.6003
19944TIP3    H181247   4.848   4.150  16.768 -0.2484  0.0067 -1.4235
19944TIP3    H281248   4.962   4.053  16.793 -0.6636 -0.1625 -0.1189
19945TIP3   OH281249   0.804   0.975  15.387 -0.4377  0.6771  0.3489
19945TIP3    H181250   0.736   0.909  15.373  0.5021  0.0035 -1.3847
19945TIP3    H281251   0.799   1.032  15.311  2.9592 -1.3240 -1.6375
19946TIP3   OH281252   2.629   1.011   6.064 -0.8789 -0.3314 -0.7614
19946TIP3    H181253   2.593   1.099   6.068  1.8266  0.8557 -0.5434
19946TIP3    H281254   2.637   0.984   6.155  0.2822  0.1248 -0.7068
19947TIP3   OH281255   0.191   0.233  15.979 -0.2567  0.3528  0.8608
19947TIP3    H181256   0.181   0.231  16.074 -1.4023 -0.1771  0.7502
19947TIP3    H281257   0.111   0.192  15.946  0.8472 -0.9402 -0.3048
19948TIP3   OH281258   6.172   0.233  13.115 -0.2607 -0.8243  0.3446
19948TIP3    H181259   6.217   0.310  13.148  0.6720 -1.5827  0.8905
19948TIP3    H281260   6.117   0.205  13.189  0.2416 -1.3123  0.5390
19949TIP3   OH281261   1.747   4.828  16.056 -0.0188  0.2930 -0.1542
19949TIP3    H181262   1.796   4.774  15.995  1.0758  0.6999  0.3195
19949TIP3    H281263   1.756   4.784  16.140 -1.0343  0.0317 -0.1717
19950TIP3   OH281264   0.545   5.801  16.198  0.1628 -0.2602  0.1972
19950TIP3    H181265   0.480   5.831  16.135  0.6703 -0.1305 -0.2639
19950TIP3    H281266   0.564   5.710  16.173 -0.7550 -0.7302  1.0890
19951TIP3   OH281267   6.172   1.755   4.054  0.0477 -0.4443 -0.3954
19951TIP3    H181268   6.118   1.782   4.129 -1.8741 -2.7285 -0.8088
19951TIP3    H281269   6.262   1.759   4.087 -0.7436 -1.9290  2.3129
19952TIP3   OH281270   6.081   5.842  15.721  0.4869 -0.8887  0.5549
19952TIP3    H181271   6.073   5.935  15.697 -0.2818 -0.5994  1.8109
19952TIP3    H281272   6.146   5.807  15.659  1.0989  0.5744  0.3033
19953TIP3   OH281273   4.078   5.051   1.730  0.3979 -0.3977  0.0145
19953TIP3    H181274   4.126   4.976   1.696  0.0846 -0.3866 -0.4711
19953TIP3    H281275   4.066   5.032   1.823 -1.0702 -1.7269 -0.3991
19954TIP3   OH281276   5.044   3.046   0.806  0.0695  0.2928 -0.8469
19954TIP3    H181277   5.039   3.141   0.797 -1.5809  0.4370  1.0010
19954TIP3    H281278   5.137   3.027   0.804  0.4783  2.0588 -0.3384
19955TIP3   OH281279   4.685   4.695  16.444  0.0694  0.1989  0.5437
19955TIP3    H181280   4.651   4.780  16.471  1.5083  1.2956 -0.8999
19955TIP3    H281281   4.774   4.692  16.481  0.9940  0.4947 -1.5227
19956TIP3   OH281282   6.240   2.778   5.014 -0.2499 -0.0090 -0.0956
19956TIP3    H181283   6.310   2.713   5.021 -0.1678  0.1663  0.7841
19956TIP3    H281284   6.176   2.737   4.956  1.2043  0.4189 -2.1501
19957TIP3   OH281285   3.601   6.003   4.700  0.1231  0.2177 -0.0313
19957TIP3    H181286   3.639   6.026   4.615 -1.1819  1.7354 -0.2496
19957TIP3    H281287   3.640   5.918   4.721  1.8295  0.6173 -1.3047
19958TIP3   OH281288   0.972   2.902   2.418 -0.2989  0.5585  0.3579
19958TIP3    H181289   0.917   2.976   2.441  0.4165  0.8785  1.0947
19958TIP3    H281290   0.919   2.825   2.436 -0.6777  0.8731  0.5902
19959TIP3   OH281291   2.673   1.747  15.846  0.1496  0.4868  0.3721
19959TIP3    H181292   2.730   1.742  15.923 -0.3257  1.2292  0.7818
19959TIP3    H281293   2.733   1.741  15.771  0.5458 -1.0516  0.7742
19960TIP3   OH281294   2.933   6.299  12.985  0.1601  0.3596  0.0855
19960TIP3    H181295   2.925   6.340  12.898 -1.2832 -1.2405 -0.6022
19960TIP3    H281296   2.901   6.366  13.046 -2.0916  0.3593 -0.9884
19961TIP3   OH281297   0.383   6.263  16.991  0.6782 -0.1903  0.5037
19961TIP3    H181298   0.387   6.222  16.904 -1.6749  2.5911 -1.0904
19961TIP3    H281299   0.296   6.242  17.024  0.2994  1.4721  0.6614
19962TIP3   OH281300   0.662   6.587   4.601 -0.3103  0.2547  0.8068
19962TIP3    H181301   0.631   6.646   4.670  0.8019 -3.3265  4.7610
19962TIP3    H281302   0.746   6.626   4.573 -1.7154  2.8338 -0.2540
19963TIP3   OH281303   1.803   5.193  13.773 -0.3088 -0.2164 -0.5533
19963TIP3    H181304   1.890   5.220  13.802  0.2103 -1.0609 -1.2763
19963TIP3    H281305   1.753   5.181  13.854  0.7787 -1.4351 -0.0300
19964TIP3   OH281306   0.988   2.683   0.918 -0.1080  0.2949 -0.4285
19964TIP3    H181307   1.060   2.742   0.894 -1.1766  1.2203 -1.4783
19964TIP3    H281308   0.926   2.738   0.964  0.8283 -0.9860  2.6026
19965TIP3   OH281309   3.750   0.260   2.060 -0.4251 -0.2130 -0.0000
19965TIP3    H181310   3.845   0.254   2.050 -0.2242  3.0250 -0.8945
19965TIP3    H281311   3.716   0.197   1.997  1.0934 -0.5875 -0.4977
19966TIP3   OH281312   4.552   5.672   5.637  0.4307  0.1285 -0.2670
19966TIP3    H181313   4.563   5.587   5.681 -0.6191  0.6636  1.1091
19966TIP3    H281314   4.642   5.705   5.629  0.6899 -0.0104  1.5121
19967TIP3   OH281315   3.336   4.455  13.350  0.8011  0.4159  0.2502
19967TIP3    H181316   3.360   4.533  13.299 -1.5552  1.3911  0.4834
19967TIP3    H281317   3.272   4.487  13.413  0.6402 -1.5321  1.1399
19968TIP3   OH281318   4.301   3.471   0.868  0.5620  0.3860 -0.6508
19968TIP3    H181319   4.305   3.401   0.934 -0.8873  0.0720 -0.8659
19968TIP3    H281320   4.393   3.487   0.845  1.0579  0.0290  0.9325
19969TIP3   OH281321   6.427   1.716   1.565  0.1460 -0.0455  0.2388
19969TIP3    H181322   6.332   1.718   1.576 -0.3182  0.3277 -2.8278
19969TIP3    H281323   6.449   1.623   1.571 -0.3114 -0.0973  1.4049
19970TIP3   OH281324   4.433   1.328   1.141 -0.1981  0.6847  0.0613
19970TIP3    H181325   4.507   1.337   1.200  1.9819  0.7355 -2.4895
19970TIP3    H281326   4.434   1.408   1.088  0.3487 -0.9157 -2.5303
19971TIP3   OH281327   6.319   0.021  10.534  0.3868 -0.1047  0.0206
19971TIP3    H181328   6.372   0.082  10.483 -0.9819  0.8553 -0.3204
19971TIP3    H281329   6.277  -0.035  10.468  2.7159 -2.4397  0.3775
19972TIP3   OH281330   5.744   5.485  15.162 -0.7925 -0.3376 -0.0087
19972TIP3    H181331   5.658   5.452  15.138 -1.3805  1.4007 -0.4424
19972TIP3    H281332   5.779   5.418  15.221 -1.4801 -2.1563 -1.5504
19973TIP3   OH281333   1.615   6.812  11.271  0.0224 -0.9509 -0.0267
19973TIP3    H181334   1.642   6.897  11.307 -0.7790 -1.8310  2.9411
19973TIP3    H281335   1.523   6.824  11.249 -0.0700 -1.0143  0.3173
19974TIP3   OH281336   3.823   4.432   2.154 -0.0063 -0.0225 -0.1568
19974TIP3    H181337   3.829   4.526   2.170 -0.4384 -0.1242  0.6693
19974TIP3    H281338   3.759   4.424   2.083 -1.7163  0.2112  1.2738
19975TIP3   OH281339   1.410   0.413   0.424  0.8765 -0.1791  0.1697
19975TIP3    H181340   1.380   0.323   0.435  0.7732 -0.1582  0.0551
19975TIP3    H281341   1.464   0.410   0.345  0.4542 -0.0343 -0.1251
19976TIP3   OH281342   4.855   5.002   4.035 -0.1491 -0.4353 -0.3245
19976TIP3    H181343   4.863   4.909   4.054 -1.2005 -0.8404 -1.6699
19976TIP3    H281344   4.939   5.026   3.998  0.1907 -0.7970  0.1965
19977TIP3   OH281345   4.128   4.774   1.359 -0.1837 -0.0706  0.2818
19977TIP3    H181346   4.149   4.801   1.270  2.2318 -0.2746  0.7262
19977TIP3    H281347   4.032   4.775   1.363 -0.3151  0.8549 -2.0070
19978TIP3   OH281348   5.466   1.851  15.590 -0.0664 -0.2069 -0.0698
19978TIP3    H181349   5.403   1.832  15.520  0.6812 -2.2158 -0.2765
19978TIP3    H281350   5.548   1.867  15.544 -0.2930  2.0391  0.2173
19979TIP3   OH281351   3.765   1.321   3.839 -0.2854  0.0734  0.5584
19979TIP3    H181352   3.693   1.382   3.824  0.0708  0.0099 -1.8064
19979TIP3    H281353   3.745   1.281   3.924 -2.9405  0.1712  0.0658
19980TIP3   OH281354   0.936   2.062  12.299  0.4390 -0.2946 -0.2593
19980TIP3    H181355   0.957   2.047  12.206 -1.7077 -0.2223 -0.8041
19980TIP3    H281356   0.915   1.975  12.333 -1.1341 -0.0337 -0.5022
19981TIP3   OH281357   3.906   3.994  14.696 -0.3085  0.4986  0.0888
19981TIP3    H181358   3.857   3.912  14.683  0.3517  0.1838 -0.5074
19981TIP3    H281359   3.995   3.965  14.714  0.1152  1.0990 -0.9656
19982TIP3   OH281360   5.409   1.653   2.708  0.0400  0.2097 -0.2831
19982TIP3    H181361   5.315   1.654   2.724  0.2044  1.5695  0.7773
19982TIP3    H281362   5.434   1.561   2.717 -1.1644 -0.1539 -0.5109
19983TIP3   OH281363   3.739   1.025   3.376 -0.4411  1.0871 -0.0122
19983TIP3    H181364   3.785   1.064   3.450 -0.5248  3.2342 -1.0263
19983TIP3    H281365   3.647   1.044   3.391 -1.0464 -2.2631  1.4549
19984TIP3   OH281366   6.126   4.731  11.134  0.4151 -1.0044  0.1539
19984TIP3    H181367   6.076   4.758  11.211  0.1798 -0.4976 -0.1671
19984TIP3    H281368   6.169   4.650  11.160  2.1648  0.2868  1.6285
19985TIP3   OH281369   0.470   2.731   1.855  0.6113 -0.1502  0.4228
19985TIP3    H181370   0.552   2.765   1.818  0.0710  1.9482  1.0005
19985TIP3    H281371   0.405   2.745   1.786  0.0327  1.7760  1.2829
19986TIP3   OH281372   6.202   2.677  16.472  0.3114  0.2195  0.4218
19986TIP3    H181373   6.112   2.678  16.504 -0.1623 -0.5434 -0.8430
19986TIP3    H281374   6.255   2.701  16.549 -0.7899 -1.3274  1.7167
19987TIP3   OH281375   4.315   2.385   0.432 -0.0559  0.0270 -0.4239
19987TIP3    H181376   4.404   2.393   0.397  0.7411 -0.6370  1.3517
19987TIP3    H281377   4.326   2.336   0.514 -2.1921 -1.0326 -0.7092
19988TIP3   OH281378   4.269   3.783   4.798 -0.1140  0.6463 -0.0418
19988TIP3    H181379   4.196   3.820   4.748 -0.7816 -0.4524  0.0843
19988TIP3    H281380   4.271   3.835   4.879 -0.3505  1.0940 -0.3197
19989LIG      O81381   4.099   3.019   0.545 -0.3671 -0.4974 -0.3089
19989LIG     C181382   4.142   3.147   0.584  0.7677 -0.2223  0.2301
19989LIG     C281383   4.223   3.221   0.472  0.4059 -0.3816 -0.4280
19989LIG     C381384   4.015   3.230   0.623 -0.5701  0.1431  0.0793
19989LIG     H181385   4.200   3.136   0.679  2.3504 -0.1303 -0.6809
19989LIG     H281386   4.218   3.328   0.501 -2.1133 -0.1430 -1.4753
19989LIG     H381387   4.158   3.224   0.382 -1.4697 -1.8303  0.8154
19989LIG     H481388   4.319   3.168   0.452 -0.0468 -1.8474  1.0890
19989LIG     H581389   3.930   3.228   0.552 -0.2300 -0.3229 -0.3184
19989LIG     H681390   4.046   3.333   0.651  0.8638 -0.2146 -0.0862
19989LIG     H781391   3.969   3.189   0.715 -1.5791  0.9294 -0.0575
19989LIG     H881392   4.069   2.975   0.625 -3.2161 -2.2380 -2.1573
   6.82205   6.82205  17.08008
